   * xtb version 6.6.1 (8d0f1dd) compiled by 'conda@1efc2f54142f' on 2023-08-01
          program call               : xtb struc.xyz --opt loose --input .xc1 --gfn2

   ID    Z sym.   atoms
    1    6 C      1, 3, 5-7, 10, 11, 14
    2    7 N      2, 4, 9, 13
    3    8 O      8, 12
    4    1 H      15-25
constraining bond 8 20 to    4.6333300 Å, actual value:    3.4833385 Å

          :  Hamiltonian                  GFN2-xTB          :
 * total energy  :   -44.6066147 Eh     change       -0.6633627E-10 Eh
 * total energy  :   -48.5480727 Eh     change       -0.3941458E+01 Eh
 * total energy  :   -54.3338376 Eh     change       -0.5785765E+01 Eh
 * total energy  :   -62.0801808 Eh     change       -0.7746343E+01 Eh
 * total energy  :   -71.0583379 Eh     change       -0.8978157E+01 Eh
 * total energy  :   -45.2948639 Eh     change        0.2576347E+02 Eh
 * total energy  :   -67.3954904 Eh     change       -0.2210063E+02 Eh
 * total energy  :   -67.7526406 Eh     change       -0.3571502E+00 Eh
 * total energy  :   -68.7961940 Eh     change       -0.1043553E+01 Eh
 * total energy  :   -71.1735771 Eh     change       -0.2377383E+01 Eh
 * total energy  :   -72.1992490 Eh     change       -0.4624324E-04 Eh
 * total energy  :   -72.1993091 Eh     change       -0.6008392E-04 Eh
 * total energy  :   -72.1993465 Eh     change       -0.3748390E-04 Eh
 * total energy  :   -72.1993916 Eh     change       -0.4506140E-04 Eh
 * total energy  :   -72.1994269 Eh     change       -0.3532464E-04 Eh
 * total energy  :   -72.1992161 Eh     change        0.2108152E-03 Eh
 * total energy  :   -72.1994309 Eh     change       -0.2147771E-03 Eh
 * total energy  :   -72.1994630 Eh     change       -0.3208376E-04 Eh
 * total energy  :   -72.1994784 Eh     change       -0.1539506E-04 Eh
   *** GEOMETRY OPTIMIZATION CONVERGED AFTER 71 ITERATIONS ***

 final structure:
================
25
 xtb: 6.6.1 (8d0f1dd)
C            3.25941377867411        1.04776547358686       -0.08873973940748
N            2.31761900118639       -0.03682058102720       -0.05705108294102
C            2.57888700129213       -1.33061068077648       -0.03006529411333
N            1.42666207191294       -2.03765272205522        0.02484194733293
C            0.39699871847919       -1.14547523501343        0.03511657294587
C            0.95454070473108        0.12963855619588       -0.01893200386166
C            0.17569074239784        1.31964150055113       -0.05977144827388
O           -1.44340140028143        3.36224367319550       -0.32656804499798
N           -1.12630364447310        1.03940483739921       -0.00282098976891
C           -2.07634656797752        2.18103037742535       -0.02603441185788
C           -1.76602509059786       -0.20682235156299        0.09009314041719
O           -2.95702267874971       -0.31734700193259        0.15937510219657
N           -0.92783756141582       -1.33902477843229        0.08786113048728
C           -1.52464778117910       -2.65934322996618        0.14968882449101
H            3.68413373602030        1.20907387778578        0.90329531446396
H            4.06619560897453        0.83417964220624       -0.78741867552041
H            2.72751274945122        1.94815229023436       -0.39181367756454
H            3.55762739846364       -1.76972108943888       -0.04992816983448
H           -2.56111582455854        2.20967041622188        0.96460636980760
H           -1.04319083134593        3.43275032142310       -0.32420782710343
H           -2.85309301297714        1.94063372776706       -0.76751097401201
H           -1.22897101540819       -3.16853602437205        1.06725078789935
H           -1.23363574851447       -3.24907538472141       -0.71962360035622
H           -2.60627485211347       -2.52921448238733        0.14837821784377
H            1.36301601210847       -3.04630259070570        0.05115014962641

          :  Hamiltonian                  GFN2-xTB          :
         :: total energy             -72.199478360996 Eh    ::
         :: gradient norm              0.003556798997 Eh/a0 ::
         :: HOMO-LUMO gap              1.755537914129 eV    ::
         :: SCC energy               -42.696025775837 Eh    ::
         :: -> dispersion             -0.022203984845 Eh    ::
         :: repulsion energy           2.398727938517 Eh    ::

    * Orbital Energies and Occupations

         #    Occupation            Energy/Eh            Energy/eV
      -------------------------------------------------------------
         1        2.0000           -0.9124527             -24.8291
       ...           ...                  ...                  ...
        25        2.0000           -0.6685836             -18.1931
        26        2.0000           -0.6575317             -17.8923
        27        2.0000           -0.6427056             -17.4889
        28        2.0000           -0.6363587             -17.3162
        29        2.0000           -0.6308023             -17.1650
        30        2.0000           -0.6255574             -17.0223
        31        2.0000           -0.6226194             -16.9423
        32        2.0000           -0.6047089             -16.4550
        33        2.0000           -0.5884621             -16.0129
        34        2.0000           -0.5732866             -15.5999
        35        1.9999           -0.5585953             -15.2002
        36        1.9986           -0.5323278             -14.4854
        37        1.9671           -0.5073796             -13.8065 (HOMO)
        38        0.0340           -0.4428648             -12.0510 (LUMO)
        39        0.0004           -0.4078817             -11.0990
        40        0.0000           -0.3743611             -10.1869
        41                         -0.2856048              -7.7717
        42                         -0.2025278              -5.5111
        43                         -0.1957413              -5.3264
        44                         -0.1400458              -3.8108
        45                         -0.1226752              -3.3382
        46                         -0.0770073              -2.0955
        47                         -0.0460825              -1.2540
        48                         -0.0420874              -1.1453
       ...                                ...                  ...
        67                          5.2981609             144.1703
      -------------------------------------------------------------
                  HL-Gap            0.0645148 Eh            1.7555 eV

     #   Z          covCN         q      C6AA      α(0)
     1   6 C        3.693    -0.093    22.466     6.782
     2   7 N        2.837     0.081    19.838     6.615
     3   6 C        3.066     0.060    26.601     8.457
     4   7 N        2.790    -0.062    22.445     7.036
     5   6 C        3.058     0.115    25.414     8.267
     6   6 C        3.141     0.019    27.343     8.557
     7   6 C        1.916    -0.142    35.121     9.571
     8   8 O        1.662    -0.425    21.344     6.237
     9   7 N        2.764    -0.029    21.806     6.936
    10   6 C        3.677     0.126    18.728     6.200
    11   6 C        2.729     0.309    21.742     7.634
    12   8 O        0.859    -0.371    21.105     6.159
    13   7 N        2.739    -0.045    22.106     6.983
    14   6 C        3.696    -0.071    22.032     6.714
    15   1 H        0.924     0.112     1.683     2.029
    16   1 H        0.925     0.105     1.737     2.061
    17   1 H        0.925     0.129     1.544     1.943
    18   1 H        0.926     0.121     1.605     1.981
    19   1 H        0.923     0.086     1.922     2.168
    20   1 H        0.854     0.367     0.544     1.156
    21   1 H        0.923     0.096     1.826     2.113
    22   1 H        0.924     0.082     1.961     2.190
    23   1 H        0.925     0.080     1.975     2.198
    24   1 H        0.925     0.125     1.574     1.962
    25   1 H        0.860     0.226     0.984     1.554

Wiberg/Mayer (AO) data.
largest (>0.10) Wiberg bond orders for each atom

     #   Z sym  total        # sym  WBO       # sym  WBO       # sym  WBO
 ---------------------------------------------------------------------------
     1   6 C    3.921 --     2 N    0.987    16 H    0.967    17 H    0.966
                            15 H    0.954
     2   7 N    3.717 --     3 C    1.430     6 C    1.149     1 C    0.987
     3   6 C    3.905 --     2 N    1.430     4 N    1.276    18 H    0.953
     4   7 N    3.605 --     3 C    1.276     5 C    1.191    25 H    0.919
     5   6 C    3.950 --     6 C    1.316    13 N    1.233     4 N    1.191
     6   6 C    3.919 --     5 C    1.316     7 C    1.186     2 N    1.149
     7   6 C    2.845 --     9 N    1.404     6 C    1.186
     8   8 O    2.025 --    10 C    1.064    20 H    0.858
     9   7 N    3.655 --     7 C    1.404    11 C    1.067    10 C    0.925
                            12 O    0.113
    10   6 C    3.925 --     8 O    1.064    21 H    0.945    19 H    0.940
                             9 N    0.925
    11   6 C    3.956 --    12 O    1.721     9 N    1.067    13 N    1.057
    12   8 O    2.068 --    11 C    1.721    13 N    0.139     9 N    0.113
    13   7 N    3.595 --     5 C    1.233    11 C    1.057    14 C    0.974
                            12 O    0.139
    14   6 C    3.929 --    13 N    0.974    23 H    0.972    22 H    0.971
                            24 H    0.965
    15   1 H    0.986 --     1 C    0.954
    16   1 H    0.988 --     1 C    0.967
    17   1 H    0.983 --     1 C    0.966
    18   1 H    0.984 --     3 C    0.953
    19   1 H    0.989 --    10 C    0.940
    20   1 H    0.865 --     8 O    0.858
    21   1 H    0.988 --    10 C    0.945
    22   1 H    0.993 --    14 C    0.971
    23   1 H    0.993 --    14 C    0.972
    24   1 H    0.984 --    14 C    0.965
    25   1 H    0.949 --     4 N    0.919
 ---------------------------------------------------------------------------

molecular dipole:
                 x           y           z       tot (Debye)
 q only:        3.022      -1.667       0.026
   full:        3.354      -2.650       0.103      10.869

           -------------------------------------------------
          | TOTAL ENERGY              -72.199478360996 Eh   |
          | GRADIENT NORM               0.003556798997 Eh/α |
          | HOMO-LUMO GAP               1.755537914129 eV   |
           -------------------------------------------------

 * finished run on 2024/06/05 at 19:58:15.694
