   * xtb version 6.6.1 (8d0f1dd) compiled by 'conda@1efc2f54142f' on 2023-08-01
          program call               : xtb xtbopt.xyz --opt crude --input .xc2 --gfn2

   ID    Z sym.   atoms
    1    6 C      1, 3, 5-7, 10, 11, 14
    2    7 N      2, 4, 9, 13
    3    8 O      8, 12
    4    1 H      15-25
########################################################################
[WARNING] Please study the warnings concerning your input carefully
-1- readin_getIntValue: could not parse ''
########################################################################

          :  Hamiltonian                  GFN2-xTB          :
 * total energy  :   -40.2971977 Eh     change        0.7105427E-13 Eh
 * total energy  :   -42.1231039 Eh     change       -0.1825906E+01 Eh
 * total energy  :   -42.1464486 Eh     change       -0.2334469E-01 Eh
 * total energy  :   -42.1484345 Eh     change       -0.1985910E-02 Eh
 * total energy  :   -42.1492639 Eh     change       -0.8293887E-03 Eh
 * total energy  :   -42.1501032 Eh     change       -0.8392904E-03 Eh
 * total energy  :   -42.1519782 Eh     change       -0.1874990E-02 Eh
 * total energy  :   -42.1534892 Eh     change       -0.1511035E-02 Eh
 * total energy  :   -42.1542241 Eh     change       -0.7349185E-03 Eh
 * total energy  :   -42.1545679 Eh     change       -0.3437929E-03 Eh
 * total energy  :   -42.1547941 Eh     change       -0.2261283E-03 Eh
 * total energy  :   -42.1550249 Eh     change       -0.2308025E-03 Eh
 * total energy  :   -42.1552682 Eh     change       -0.2433223E-03 Eh
 * total energy  :   -42.1554381 Eh     change       -0.1698933E-03 Eh
   *** GEOMETRY OPTIMIZATION CONVERGED AFTER 14 ITERATIONS ***

 final structure:
================
25
 xtb: 6.6.1 (8d0f1dd)
C            3.21954697934513        1.08305615899739       -0.06899384421472
N            2.29562779016460       -0.01671244378798       -0.03971143694848
C            2.56652174931226       -1.30788244869258       -0.03263151999847
N            1.42031374143054       -2.02565020875017        0.01518808729268
C            0.38211005588305       -1.14376068207014        0.04229623915094
C            0.92972461947481        0.13747797199719        0.00590302620258
C            0.13917498091180        1.31673859352942       -0.03147894747970
O           -1.52827119124956        3.27367063892199       -0.59135226524678
N           -1.16067396080917        1.02712113841515        0.02374718769112
C           -2.09820434994924        2.18418983640409       -0.00099252128838
C           -1.79222164910492       -0.21948581071481        0.10528814178856
O           -2.98001116391371       -0.35093602761458        0.17318800576064
N           -0.93955536459930       -1.34690089503432        0.09001732438244
C           -1.52537821780326       -2.67320597039282        0.11594736696607
H            3.59219916674020        1.29187743878937        0.93537942373819
H            4.06339837389804        0.85855165079175       -0.71891738080195
H            2.68814271966649        1.96136392671219       -0.43215012518282
H            3.54824323751986       -1.74076624974908       -0.05988041508306
H           -2.40265059396576        2.36650378604694        1.04771817287116
H           -0.57965178494899        3.28239182625790       -0.37381420022841
H           -2.98658645610877        1.88980383782315       -0.56878304910577
H           -1.21955115648665       -3.20686340286079        1.01598671190653
H           -1.23454325883164       -3.23385635632701       -0.77257288099956
H           -2.60806073496727       -2.55289836614975        0.12442219043268
H            1.37078798249096       -3.03558940094199        0.02736832629309

          :  Hamiltonian                  GFN2-xTB          :
         :: total energy             -42.155438080237 Eh    ::
         :: gradient norm              0.007928595334 Eh/a0 ::
         :: HOMO-LUMO gap              1.805616177231 eV    ::
         :: SCC energy               -42.662710021304 Eh    ::
         :: -> dispersion             -0.022246525283 Eh    ::
         :: repulsion energy           0.507164100527 Eh    ::

    * Orbital Energies and Occupations

         #    Occupation            Energy/Eh            Energy/eV
      -------------------------------------------------------------
         1        2.0000           -0.9159497             -24.9243
       ...           ...                  ...                  ...
        25        2.0000           -0.6680983             -18.1799
        26        2.0000           -0.6579185             -17.9029
        27        2.0000           -0.6423333             -17.4788
        28        2.0000           -0.6370784             -17.3358
        29        2.0000           -0.6331053             -17.2277
        30        2.0000           -0.6273662             -17.0715
        31        2.0000           -0.6257814             -17.0284
        32        2.0000           -0.6137471             -16.7009
        33        2.0000           -0.5949061             -16.1882
        34        2.0000           -0.5791419             -15.7593
        35        1.9999           -0.5606740             -15.2567
        36        1.9971           -0.5318748             -14.4730
        37        1.9715           -0.5137805             -13.9807 (HOMO)
        38        0.0312           -0.4474253             -12.1751 (LUMO)
        39        0.0003           -0.4112444             -11.1905
        40        0.0000           -0.3769770             -10.2581
        41                         -0.2892822              -7.8718
        42                         -0.2066005              -5.6219
        43                         -0.1990340              -5.4160
        44                         -0.1426751              -3.8824
        45                         -0.1275209              -3.4700
        46                         -0.0818266              -2.2266
        47                         -0.0547389              -1.4895
        48                         -0.0473949              -1.2897
       ...                                ...                  ...
        67                          0.5378220              14.6349
      -------------------------------------------------------------
                  HL-Gap            0.0663552 Eh            1.8056 eV

     #   Z          covCN         q      C6AA      α(0)
     1   6 C        3.693    -0.093    22.463     6.782
     2   7 N        2.835     0.081    19.841     6.616
     3   6 C        3.065     0.061    26.568     8.452
     4   7 N        2.790    -0.062    22.438     7.035
     5   6 C        3.054     0.117    25.375     8.261
     6   6 C        3.142     0.019    27.339     8.556
     7   6 C        1.919    -0.145    35.197     9.581
     8   8 O        1.657    -0.395    20.761     6.151
     9   7 N        2.763    -0.031    21.840     6.941
    10   6 C        3.632     0.134    18.767     6.236
    11   6 C        2.724     0.313    21.688     7.624
    12   8 O        0.859    -0.366    21.007     6.145
    13   7 N        2.739    -0.045    22.111     6.984
    14   6 C        3.696    -0.071    22.034     6.715
    15   1 H        0.924     0.113     1.670     2.021
    16   1 H        0.925     0.106     1.731     2.058
    17   1 H        0.925     0.127     1.559     1.953
    18   1 H        0.926     0.122     1.595     1.975
    19   1 H        0.922     0.070     2.089     2.260
    20   1 H        0.804     0.328     0.643     1.260
    21   1 H        0.924     0.101     1.772     2.081
    22   1 H        0.925     0.082     1.958     2.188
    23   1 H        0.925     0.081     1.967     2.193
    24   1 H        0.925     0.126     1.568     1.958
    25   1 H        0.860     0.227     0.979     1.550

Wiberg/Mayer (AO) data.
largest (>0.10) Wiberg bond orders for each atom

     #   Z sym  total        # sym  WBO       # sym  WBO       # sym  WBO
 ---------------------------------------------------------------------------
     1   6 C    3.921 --     2 N    0.988    16 H    0.968    17 H    0.965
                            15 H    0.953
     2   7 N    3.718 --     3 C    1.433     6 C    1.145     1 C    0.988
     3   6 C    3.908 --     2 N    1.433     4 N    1.276    18 H    0.952
     4   7 N    3.605 --     3 C    1.276     5 C    1.191    25 H    0.918
     5   6 C    3.951 --     6 C    1.311    13 N    1.241     4 N    1.191
     6   6 C    3.920 --     5 C    1.311     7 C    1.195     2 N    1.145
     7   6 C    2.889 --     9 N    1.405     6 C    1.195
     8   8 O    2.010 --    10 C    1.066    20 H    0.846
     9   7 N    3.657 --     7 C    1.405    11 C    1.073    10 C    0.922
                            12 O    0.113
    10   6 C    3.927 --     8 O    1.066    21 H    0.950    19 H    0.937
                             9 N    0.922
    11   6 C    3.956 --    12 O    1.726     9 N    1.073    13 N    1.047
    12   8 O    2.076 --    11 C    1.726    13 N    0.139     9 N    0.113
    13   7 N    3.596 --     5 C    1.241    11 C    1.047    14 C    0.974
                            12 O    0.139
    14   6 C    3.929 --    13 N    0.974    23 H    0.971    22 H    0.970
                            24 H    0.965
    15   1 H    0.986 --     1 C    0.953
    16   1 H    0.988 --     1 C    0.968
    17   1 H    0.984 --     1 C    0.965
    18   1 H    0.984 --     3 C    0.952
    19   1 H    0.990 --    10 C    0.937
    20   1 H    0.892 --     8 O    0.846
    21   1 H    0.988 --    10 C    0.950
    22   1 H    0.993 --    14 C    0.970
    23   1 H    0.993 --    14 C    0.971
    24   1 H    0.984 --    14 C    0.965
    25   1 H    0.948 --     4 N    0.918
 ---------------------------------------------------------------------------

molecular dipole:
                 x           y           z       tot (Debye)
 q only:        3.344      -1.759       0.195
   full:        3.623      -2.809       0.367      11.690

           -------------------------------------------------
          | TOTAL ENERGY              -42.155438080237 Eh   |
          | GRADIENT NORM               0.007928595334 Eh/α |
          | HOMO-LUMO GAP               1.805616177231 eV   |
           -------------------------------------------------

 * finished run on 2024/06/05 at 19:58:16.215
