   * xtb version 6.6.1 (8d0f1dd) compiled by 'conda@1efc2f54142f' on 2023-08-01
          program call               : xtb xtbopt.xyz --opt crude --input .xc2 --gfn2

   ID    Z sym.   atoms
    1    6 C      1, 3, 5-7, 10, 11, 14
    2    7 N      2, 4, 9, 13
    3    8 O      8, 12
    4    1 H      15-25
########################################################################
[WARNING] Please study the warnings concerning your input carefully
-1- readin_getIntValue: could not parse ''
########################################################################

          :  Hamiltonian                  GFN2-xTB          :
 * total energy  :   -41.0063438 Eh     change        0.2131628E-13 Eh
 * total energy  :   -42.1363945 Eh     change       -0.1130051E+01 Eh
 * total energy  :   -42.1553622 Eh     change       -0.1896767E-01 Eh
 * total energy  :   -42.1572310 Eh     change       -0.1868813E-02 Eh
 * total energy  :   -42.1585445 Eh     change       -0.1313497E-02 Eh
 * total energy  :   -42.1588034 Eh     change       -0.2588413E-03 Eh
 * total energy  :   -42.1590202 Eh     change       -0.2167969E-03 Eh
 * total energy  :   -42.1591348 Eh     change       -0.1146795E-03 Eh
 * total energy  :   -42.1592366 Eh     change       -0.1017270E-03 Eh
   *** GEOMETRY OPTIMIZATION CONVERGED AFTER 9 ITERATIONS ***

 final structure:
================
25
 xtb: 6.6.1 (8d0f1dd)
C            3.10287677641746        1.42744672684646       -0.08545834881454
N            2.26555701227918        0.31486279508532       -0.08225437416562
C            2.28542146698434       -2.50577099080623        0.10692830117361
N            1.13345978876992       -2.14796579277381       -0.25902499506739
C            0.38503351732727       -1.08385226729352       -0.06837424214554
C            0.99024121986465        0.23170578588339       -0.07274343522647
C            0.06725628077247        1.41408494752134       -0.05522891261564
O            0.48936864652621        2.54724517752145       -0.07437017686433
N           -1.27003851324837        1.11942072433909       -0.00381280278014
C           -2.22087984006878        2.22409977079067        0.03089292401228
C           -1.83988489496347       -0.14314569500312        0.02467085258625
O           -3.02569330492128       -0.30741294293643        0.08010786812059
N           -0.95181290176370       -1.22660107004632       -0.01218549741274
C           -1.51639932925344       -2.56095032132679        0.01568039346286
H            3.76718379720241        1.36623668637099        0.78217238524099
H            3.73900442894369        1.37050883158736       -0.97481605278318
H            2.56188897728134        2.38363285230218       -0.07266513815598
H            2.76534748669031       -2.11273633561607        0.99860350336055
H           -1.66646712924692        3.15841531712939        0.06780114431047
H           -2.85022160499632        2.19478546405176       -0.85862576408457
H           -2.86069322285599        2.12543462359025        0.90754237087014
H           -1.34669022684390       -3.02924563026511        0.98599154147906
H           -1.04576580508525       -3.16730528836068       -0.75845866816781
H           -2.58779979357717       -2.48342997611720       -0.16084690920621
H            2.79013868186582       -3.29122485087447       -0.43035434922631

          :  Hamiltonian                  GFN2-xTB          :
         :: total energy             -42.159236559017 Eh    ::
         :: gradient norm              0.006983335311 Eh/a0 ::
         :: HOMO-LUMO gap              1.022760223483 eV    ::
         :: SCC energy               -42.696235909399 Eh    ::
         :: -> dispersion             -0.022013908540 Eh    ::
         :: repulsion energy           0.536875274231 Eh    ::

    * Orbital Energies and Occupations

         #    Occupation            Energy/Eh            Energy/eV
      -------------------------------------------------------------
         1        2.0000           -0.8947999             -24.3487
       ...           ...                  ...                  ...
        25        1.9999           -0.6751468             -18.3717
        26        1.9998           -0.6623559             -18.0236
        27        1.9993           -0.6454531             -17.5637
        28        1.9992           -0.6444412             -17.5361
        29        1.9982           -0.6308446             -17.1662
        30        1.9980           -0.6297101             -17.1353
        31        1.9962           -0.6193774             -16.8541
        32        1.9933           -0.6101330             -16.6026
        33        1.9894           -0.6028518             -16.4044
        34        1.9794           -0.5922972             -16.1172
        35        1.9667           -0.5845690             -15.9069
        36        1.9495           -0.5778476             -15.7240
        37        1.5775           -0.5408749             -14.7180 (HOMO)
        38        0.5161           -0.5032891             -13.6952 (LUMO)
        39        0.0363           -0.4568447             -12.4314
        40        0.0012           -0.4019167             -10.9367
        41        0.0004           -0.3858822             -10.5004
        42        0.0000           -0.3007457              -8.1837
        43                         -0.1974713              -5.3735
        44                         -0.1444555              -3.9308
        45                         -0.0974967              -2.6530
        46                         -0.0886566              -2.4125
        47                         -0.0368221              -1.0020
        48                         -0.0315723              -0.8591
       ...                                ...                  ...
        67                          0.5526535              15.0385
      -------------------------------------------------------------
                  HL-Gap            0.0375857 Eh            1.0228 eV

     #   Z          covCN         q      C6AA      α(0)
     1   6 C        3.692    -0.054    21.738     6.671
     2   7 N        1.836    -0.114    24.254     7.298
     3   6 C        2.783     0.035    27.205     8.543
     4   7 N        1.840    -0.062    23.167     7.133
     5   6 C        2.866     0.138    24.995     8.195
     6   6 C        2.894     0.051    26.851     8.496
     7   6 C        2.766     0.269    22.455     7.760
     8   8 O        0.859    -0.322    20.190     6.024
     9   7 N        2.738    -0.067    22.530     7.050
    10   6 C        3.709    -0.063    21.852     6.681
    11   6 C        2.721     0.320    21.562     7.602
    12   8 O        0.860    -0.332    20.371     6.051
    13   7 N        2.749    -0.023    21.698     6.918
    14   6 C        3.706    -0.078    22.136     6.726
    15   1 H        0.924     0.125     1.572     1.960
    16   1 H        0.924     0.127     1.555     1.950
    17   1 H        0.923     0.131     1.525     1.931
    18   1 H        0.925     0.114     1.666     2.018
    19   1 H        0.925     0.115     1.653     2.010
    20   1 H        0.925     0.107     1.721     2.052
    21   1 H        0.925     0.108     1.711     2.046
    22   1 H        0.924     0.100     1.781     2.087
    23   1 H        0.925     0.106     1.729     2.056
    24   1 H        0.925     0.129     1.545     1.944
    25   1 H        0.926     0.139     1.471     1.896

Wiberg/Mayer (AO) data.
largest (>0.10) Wiberg bond orders for each atom

     #   Z sym  total        # sym  WBO       # sym  WBO       # sym  WBO
 ---------------------------------------------------------------------------
     1   6 C    3.878 --     2 N    1.104    15 H    0.911    16 H    0.908
                            17 H    0.893
     2   7 N    2.896 --     6 C    1.638     1 C    1.104
     3   6 C    3.778 --     4 N    1.789    25 H    0.942    18 H    0.926
     4   7 N    3.325 --     3 C    1.789     5 C    1.344
     5   6 C    3.835 --     4 N    1.344    13 N    1.247     6 C    1.086
     6   6 C    3.887 --     2 N    1.638     5 C    1.086     7 C    0.943
     7   6 C    3.894 --     8 O    1.695     9 N    1.160     6 C    0.943
     8   8 O    2.006 --     7 C    1.695     9 N    0.138
     9   7 N    3.542 --     7 C    1.160    11 C    1.096    10 C    0.963
                             8 O    0.138    12 O    0.118
    10   6 C    3.890 --    19 H    0.967     9 N    0.963    21 H    0.958
                            20 H    0.957
    11   6 C    3.941 --    12 O    1.714     9 N    1.096    13 N    1.050
    12   8 O    2.028 --    11 C    1.714     9 N    0.118    13 N    0.103
    13   7 N    3.559 --     5 C    1.247    11 C    1.050    14 C    0.975
                            12 O    0.103
    14   6 C    3.906 --    13 N    0.975    24 H    0.963    22 H    0.958
                            23 H    0.957
    15   1 H    0.956 --     1 C    0.911
    16   1 H    0.953 --     1 C    0.908
    17   1 H    0.922 --     1 C    0.893
    18   1 H    0.965 --     3 C    0.926
    19   1 H    0.983 --    10 C    0.967
    20   1 H    0.976 --    10 C    0.957
    21   1 H    0.977 --    10 C    0.958
    22   1 H    0.980 --    14 C    0.958
    23   1 H    0.982 --    14 C    0.957
    24   1 H    0.981 --    14 C    0.963
    25   1 H    0.970 --     3 C    0.942
 ---------------------------------------------------------------------------

molecular dipole:
                 x           y           z       tot (Debye)
 q only:        1.751      -1.409       0.072
   full:        1.934      -1.289       0.190       5.928

           -------------------------------------------------
          | TOTAL ENERGY              -42.159236559017 Eh   |
          | GRADIENT NORM               0.006983335311 Eh/α |
          | HOMO-LUMO GAP               1.022760223483 eV   |
           -------------------------------------------------

 * finished run on 2024/06/05 at 19:58:04.603
