   * xtb version 6.6.1 (8d0f1dd) compiled by 'conda@1efc2f54142f' on 2023-08-01
          program call               : xtb struc.xyz --opt loose --input .xc1 --gfn2

   ID    Z sym.   atoms
    1    6 C      1, 3, 5-7, 10, 11, 14
    2    7 N      2, 4, 9, 13
    3    8 O      8, 12
    4    1 H      15-25
constraining bond 9 20 to    4.0600000 Å, actual value:    2.0954220 Å

          :  Hamiltonian                  GFN2-xTB          :
 * total energy  :   -35.3539033 Eh     change       -0.6633627E-10 Eh
 * total energy  :   -38.3835814 Eh     change       -0.3029678E+01 Eh
 * total energy  :   -40.5759485 Eh     change       -0.2192367E+01 Eh
 * total energy  :   -41.5902984 Eh     change       -0.1014350E+01 Eh
 * total energy  :   -41.8485469 Eh     change       -0.2582485E+00 Eh
 * total energy  :   -41.8806000 Eh     change       -0.3205314E-01 Eh
 * total energy  :   -41.8976137 Eh     change       -0.1701370E-01 Eh
 * total energy  :   -41.9425402 Eh     change       -0.4492652E-01 Eh
 * total energy  :   -41.9582139 Eh     change       -0.1567370E-01 Eh
 * total energy  :   -41.9648281 Eh     change       -0.6614123E-02 Eh
 * total energy  :   -42.0783451 Eh     change       -0.1295259E-02 Eh
 * total energy  :   -42.0796467 Eh     change       -0.1301653E-02 Eh
 * total energy  :   -42.0800496 Eh     change       -0.4028292E-03 Eh
 * total energy  :   -42.0801657 Eh     change       -0.1161839E-03 Eh
 * total energy  :   -42.0803563 Eh     change       -0.1905782E-03 Eh
 * total energy  :   -42.0804320 Eh     change       -0.7571178E-04 Eh
 * total energy  :   -42.0805232 Eh     change       -0.9119843E-04 Eh
 * total energy  :   -42.0805550 Eh     change       -0.3177191E-04 Eh
 * total energy  :   -42.0805924 Eh     change       -0.3739247E-04 Eh
   *** GEOMETRY OPTIMIZATION CONVERGED AFTER 32 ITERATIONS ***

 final structure:
================
25
 xtb: 6.6.1 (8d0f1dd)
C            3.28342570632564        1.09458735756007       -0.00387705861281
N            2.33293966985728        0.01421504718938       -0.00856313059791
C            2.60012813112532       -1.28277193549030       -0.04368220560408
N            1.45201315505039       -1.99091792173496       -0.01910721564306
C            0.41263528495410       -1.10976976710242        0.03527111864619
C            0.96479072530337        0.16541033688339        0.04269406717268
C            0.16077847034810        1.35225889565353        0.07866509532547
O            0.54381974444407        2.50125032669607        0.05605266583902
N           -1.23143520992011        1.03213271033243        0.15252502719396
C           -2.09482006413125        2.06030729948687        0.23751996994378
C           -1.79931955696259       -0.27077736195702        0.13849437252579
O           -2.98578425533381       -0.43892857710067        0.18341285268440
N           -0.91247515722730       -1.34636373759209        0.06901235677323
C           -1.44903643803424       -2.69523664090758        0.04093228948922
H            3.78080669916009        1.15679296001863        0.96522317716212
H            4.03489682795197        0.93995441566266       -0.77630412716538
H            2.75207345669842        2.02879546437405       -0.18363118576135
H            3.58144593213318       -1.71352417110594       -0.08593449194007
H           -1.68575127726690        3.05194632947848        0.25091878682561
H           -4.02115295638464        3.49759729974295       -1.46393078822262
H           -3.14486009900774        1.85013474970354        0.30076197529427
H           -1.12733638805416       -3.25329705953735        0.92062119799789
H           -1.13663503583682       -3.20873485325763       -0.86840628554768
H           -2.53551029700282       -2.61792995665372        0.04986871786866
H            1.38479444591039       -2.99889266874249       -0.03736556374705

          :  Hamiltonian                  GFN2-xTB          :
         :: total energy             -42.080592391420 Eh    ::
         :: gradient norm              0.003865721558 Eh/a0 ::
         :: HOMO-LUMO gap              0.282273142567 eV    ::
         :: SCC energy               -42.603021396985 Eh    ::
         :: -> dispersion             -0.022728724310 Eh    ::
         :: repulsion energy           0.522338437703 Eh    ::

    * Orbital Energies and Occupations

         #    Occupation            Energy/Eh            Energy/eV
      -------------------------------------------------------------
         1        2.0000           -0.9169037             -24.9502
       ...           ...                  ...                  ...
        25        2.0000           -0.6704542             -18.2440
        26        2.0000           -0.6678429             -18.1729
        27        2.0000           -0.6621798             -18.0188
        28        2.0000           -0.6355925             -17.2954
        29        2.0000           -0.6302901             -17.1511
        30        2.0000           -0.6283714             -17.0989
        31        2.0000           -0.6214620             -16.9108
        32        2.0000           -0.6149330             -16.7332
        33        2.0000           -0.6094990             -16.5853
        34        2.0000           -0.5845694             -15.9069
        35        2.0000           -0.5651138             -15.3775
        36        2.0000           -0.5602409             -15.2449
        37        1.3055           -0.4742058             -12.9038 (HOMO)
        38        0.6729           -0.4638325             -12.6215 (LUMO)
        39        0.0212           -0.4333114             -11.7910
        40        0.0003           -0.4002702             -10.8919
        41        0.0000           -0.3725899             -10.1387
        42                         -0.2875961              -7.8259
        43                         -0.2073518              -5.6423
        44                         -0.2001452              -5.4462
        45                         -0.1512601              -4.1160
        46                         -0.1434683              -3.9040
        47                         -0.0825459              -2.2462
        48                         -0.0556869              -1.5153
       ...                                ...                  ...
        67                          0.5491454              14.9430
      -------------------------------------------------------------
                  HL-Gap            0.0103733 Eh            0.2823 eV

     #   Z          covCN         q      C6AA      α(0)
     1   6 C        3.691    -0.096    22.519     6.791
     2   7 N        2.834     0.085    19.773     6.604
     3   6 C        3.058     0.053    26.746     8.481
     4   7 N        2.796    -0.054    22.279     7.010
     5   6 C        3.045     0.106    25.625     8.302
     6   6 C        3.117    -0.024    28.444     8.736
     7   6 C        2.776     0.254    22.725     7.808
     8   8 O        0.857    -0.367    21.040     6.150
     9   7 N        2.742    -0.031    21.851     6.943
    10   6 C        2.818    -0.027    28.665     8.772
    11   6 C        2.739     0.310    21.734     7.633
    12   8 O        0.859    -0.349    20.695     6.099
    13   7 N        2.737    -0.050    22.212     7.000
    14   6 C        3.698    -0.074    22.087     6.722
    15   1 H        0.924     0.110     1.693     2.035
    16   1 H        0.925     0.106     1.733     2.059
    17   1 H        0.925     0.138     1.479     1.902
    18   1 H        0.926     0.127     1.559     1.952
    19   1 H        0.926     0.132     1.518     1.927
    20   1 H        0.000    -0.004     7.788     5.103
    21   1 H        0.926     0.130     1.535     1.938
    22   1 H        0.924     0.084     1.940     2.178
    23   1 H        0.925     0.083     1.948     2.183
    24   1 H        0.925     0.128     1.549     1.947
    25   1 H        0.860     0.231     0.959     1.534

Wiberg/Mayer (AO) data.
largest (>0.10) Wiberg bond orders for each atom

     #   Z sym  total        # sym  WBO       # sym  WBO       # sym  WBO
 ---------------------------------------------------------------------------
     1   6 C    3.915 --     2 N    0.985    16 H    0.964    17 H    0.960
                            15 H    0.955
     2   7 N    3.689 --     3 C    1.405     6 C    1.150     1 C    0.985
     3   6 C    3.887 --     2 N    1.405     4 N    1.286    18 H    0.952
     4   7 N    3.607 --     3 C    1.286     5 C    1.192    25 H    0.918
     5   6 C    3.909 --     6 C    1.326    13 N    1.197     4 N    1.192
     6   6 C    3.917 --     5 C    1.326     2 N    1.150     7 C    1.110
     7   6 C    3.886 --     8 O    1.671     6 C    1.110     9 N    1.001
     8   8 O    1.972 --     7 C    1.671     9 N    0.113
     9   7 N    3.633 --    10 C    1.327    11 C    1.021     7 C    1.001
                             8 O    0.113
    10   6 C    3.420 --     9 N    1.327    19 H    0.960    21 H    0.958
    11   6 C    3.919 --    12 O    1.713    13 N    1.081     9 N    1.021
    12   8 O    2.037 --    11 C    1.713    13 N    0.136
    13   7 N    3.575 --     5 C    1.197    11 C    1.081    14 C    0.970
                            12 O    0.136
    14   6 C    3.924 --    23 H    0.972    22 H    0.972    13 N    0.970
                            24 H    0.964
    15   1 H    0.985 --     1 C    0.955
    16   1 H    0.987 --     1 C    0.964
    17   1 H    0.981 --     1 C    0.960
    18   1 H    0.983 --     3 C    0.952
    19   1 H    0.982 --    10 C    0.960
    20   1 H    0.102
    21   1 H    0.982 --    10 C    0.958
    22   1 H    0.991 --    14 C    0.972
    23   1 H    0.992 --    14 C    0.972
    24   1 H    0.983 --    14 C    0.964
    25   1 H    0.946 --     4 N    0.918
 ---------------------------------------------------------------------------

molecular dipole:
                 x           y           z       tot (Debye)
 q only:        2.658      -2.196       0.058
   full:        2.902      -2.666       0.036      10.018

           -------------------------------------------------
          | TOTAL ENERGY              -42.080592391420 Eh   |
          | GRADIENT NORM               0.003865721558 Eh/α |
          | HOMO-LUMO GAP               0.282273142567 eV   |
           -------------------------------------------------

 * finished run on 2024/06/05 at 19:58:03.974
