   * xtb version 6.6.1 (8d0f1dd) compiled by 'conda@1efc2f54142f' on 2023-08-01
          program call               : xtb struc.xyz --opt loose --input .xc1 --gfn2

   ID    Z sym.   atoms
    1    6 C      1, 3, 5-7, 10, 11, 14
    2    7 N      2, 4, 9, 13
    3    8 O      8, 12
    4    1 H      15-25
constraining bond 22 24 to    3.2800000 Å, actual value:    1.7745984 Å

          :  Hamiltonian                  GFN2-xTB          :
 * total energy  :   -38.2014252 Eh     change       -0.6650680E-10 Eh
 * total energy  :   -40.2917473 Eh     change       -0.2090322E+01 Eh
 * total energy  :   -41.6380483 Eh     change       -0.1346301E+01 Eh
 * total energy  :   -42.0392241 Eh     change       -0.4011758E+00 Eh
 * total energy  :   -42.0689089 Eh     change       -0.2968478E-01 Eh
 * total energy  :   -42.0699086 Eh     change       -0.9997842E-03 Eh
 * total energy  :   -42.0709965 Eh     change       -0.1087803E-02 Eh
 * total energy  :   -42.0724141 Eh     change       -0.1417646E-02 Eh
 * total energy  :   -42.0744774 Eh     change       -0.2063297E-02 Eh
 * total energy  :   -42.0756576 Eh     change       -0.1180199E-02 Eh
 * total energy  :   -42.1738599 Eh     change       -0.9304673E-03 Eh
 * total energy  :   -42.1740635 Eh     change       -0.2036946E-03 Eh
 * total energy  :   -42.1749953 Eh     change       -0.9317487E-03 Eh
 * total energy  :   -42.1753120 Eh     change       -0.3166614E-03 Eh
 * total energy  :   -42.1755293 Eh     change       -0.2173538E-03 Eh
 * total energy  :   -42.1756774 Eh     change       -0.1481191E-03 Eh
 * total energy  :   -42.1757747 Eh     change       -0.9722687E-04 Eh
 * total energy  :   -42.1758166 Eh     change       -0.4196601E-04 Eh
 * total energy  :   -42.1758410 Eh     change       -0.2436069E-04 Eh
   *** GEOMETRY OPTIMIZATION CONVERGED AFTER 35 ITERATIONS ***

 final structure:
================
25
 xtb: 6.6.1 (8d0f1dd)
C            3.23529252599483        1.20538989577173        0.07786361347270
N            2.32907982746048        0.08923625702107        0.05788438365311
C            2.66067932790219       -1.20876582209858        0.07535089441355
N            1.53811436537150       -1.96816879924880        0.04779351249220
C            0.46220297830210       -1.12395825841771        0.01316908871581
C            0.95620513903005        0.17710818154804        0.01864731146973
C            0.10689504253264        1.33277639332432       -0.04103208765885
O            0.44119587271553        2.49906289604799       -0.07535547898204
N           -1.25226082376965        0.94265603412134       -0.05501252622952
C           -2.25168176218459        1.99725089014455       -0.08558012770931
C           -1.69519948259004       -0.33243915091613       -0.02727314186637
O           -3.00977205733477       -0.51638501757532        0.01779439480730
N           -0.87414374637640       -1.42644400724003       -0.03546289991982
C           -1.35854399554168       -2.69870518966794       -0.02593019176826
H            3.77875451609458        1.23686577262414        1.02308643268386
H            3.95327305482737        1.12349374454559       -0.73809211424100
H            2.65793359643585        2.12245587512244       -0.03373980533627
H            3.65856968080333       -1.59421438713646        0.10417659896204
H           -1.71899571769288        2.94588152450408       -0.09775616865214
H           -2.86989108487704        1.90242931687886       -0.97658558926606
H           -2.88848059668832        1.93599860308587        0.79561544348690
H           -0.67047865685667       -3.50100320015966        0.09284345710786
H           -2.33259254210744       -2.91297920130467       -0.41616790894719
H           -3.21266652501948       -1.43314028993770        0.27643323782262
H            1.51694257766860       -2.97616351943714        0.03850128938907

          :  Hamiltonian                  GFN2-xTB          :
         :: total energy             -42.175840984830 Eh    ::
         :: gradient norm              0.002405081216 Eh/a0 ::
         :: HOMO-LUMO gap              1.412674397353 eV    ::
         :: SCC energy               -42.693040064749 Eh    ::
         :: -> dispersion             -0.023014863820 Eh    ::
         :: repulsion energy           0.517085723076 Eh    ::

    * Orbital Energies and Occupations

         #    Occupation            Energy/Eh            Energy/eV
      -------------------------------------------------------------
         1        2.0000           -0.9000242             -24.4909
       ...           ...                  ...                  ...
        25        2.0000           -0.6678541             -18.1732
        26        2.0000           -0.6625477             -18.0288
        27        2.0000           -0.6584718             -17.9179
        28        2.0000           -0.6429679             -17.4960
        29        2.0000           -0.6345765             -17.2677
        30        2.0000           -0.6207852             -16.8924
        31        2.0000           -0.6180743             -16.8187
        32        1.9999           -0.6023946             -16.3920
        33        1.9999           -0.5999335             -16.3250
        34        1.9995           -0.5797116             -15.7748
        35        1.9989           -0.5676184             -15.4457
        36        1.9968           -0.5510238             -14.9941
        37        1.5910           -0.4704580             -12.8018 (HOMO)
        38        0.2557           -0.4185432             -11.3891 (LUMO)
        39        0.1431           -0.4083663             -11.1122
        40        0.0154           -0.3720044             -10.1228
        41        0.0000           -0.2802519              -7.6260
        42        0.0000           -0.1942728              -5.2864
        43        0.0000           -0.1857357              -5.0541
        44                         -0.1406928              -3.8284
        45                         -0.1239828              -3.3737
        46                         -0.0920614              -2.5051
        47                         -0.0518807              -1.4117
        48                         -0.0311077              -0.8465
       ...                                ...                  ...
        67                          0.5386111              14.6564
      -------------------------------------------------------------
                  HL-Gap            0.0519148 Eh            1.4127 eV

     #   Z          covCN         q      C6AA      α(0)
     1   6 C        3.691    -0.092    22.453     6.781
     2   7 N        2.826     0.067    20.071     6.654
     3   6 C        3.037     0.039    27.093     8.537
     4   7 N        2.781    -0.060    22.406     7.030
     5   6 C        3.074     0.082    26.107     8.377
     6   6 C        3.097    -0.018    28.343     8.725
     7   6 C        2.766     0.248    22.839     7.827
     8   8 O        0.857    -0.390    21.477     6.213
     9   7 N        2.746    -0.047    22.149     6.990
    10   6 C        3.707    -0.071    22.005     6.705
    11   6 C        2.774     0.226    23.256     7.898
    12   8 O        1.660    -0.331    19.553     5.969
    13   7 N        2.736     0.020    20.893     6.789
    14   6 C        2.797    -0.147    31.777     9.235
    15   1 H        0.924     0.101     1.772     2.082
    16   1 H        0.925     0.100     1.783     2.088
    17   1 H        0.925     0.133     1.509     1.921
    18   1 H        0.927     0.117     1.636     2.000
    19   1 H        0.925     0.124     1.584     1.968
    20   1 H        0.925     0.098     1.806     2.102
    21   1 H        0.925     0.097     1.815     2.107
    22   1 H        0.927     0.058     2.218     2.329
    23   1 H        0.926     0.066     2.132     2.283
    24   1 H        0.804     0.356     0.574     1.190
    25   1 H        0.860     0.224     0.992     1.560

Wiberg/Mayer (AO) data.
largest (>0.10) Wiberg bond orders for each atom

     #   Z sym  total        # sym  WBO       # sym  WBO       # sym  WBO
 ---------------------------------------------------------------------------
     1   6 C    3.920 --     2 N    0.988    16 H    0.963    17 H    0.961
                            15 H    0.960
     2   7 N    3.603 --     3 C    1.331     6 C    1.154     1 C    0.988
     3   6 C    3.734 --     2 N    1.331     4 N    1.258    18 H    0.955
     4   7 N    3.527 --     3 C    1.258     5 C    1.178    25 H    0.920
     5   6 C    3.858 --     6 C    1.335     4 N    1.178    13 N    1.112
     6   6 C    3.880 --     5 C    1.335     2 N    1.154     7 C    1.106
     7   6 C    3.896 --     8 O    1.638     6 C    1.106     9 N    1.038
     8   8 O    1.942 --     7 C    1.638     9 N    0.135
     9   7 N    3.544 --    11 C    1.243     7 C    1.038    10 C    0.970
                             8 O    0.135
    10   6 C    3.916 --     9 N    0.970    20 H    0.966    19 H    0.965
                            21 H    0.965
    11   6 C    3.775 --     9 N    1.243    13 N    1.155    12 O    1.145
                            14 C    0.112
    12   8 O    2.161 --    11 C    1.145    24 H    0.827
    13   7 N    3.650 --    14 C    1.185    11 C    1.155     5 C    1.112
    14   6 C    3.396 --    13 N    1.185    22 H    0.974    23 H    0.961
                            11 C    0.112
    15   1 H    0.983 --     1 C    0.960
    16   1 H    0.985 --     1 C    0.963
    17   1 H    0.982 --     1 C    0.961
    18   1 H    0.985 --     3 C    0.955
    19   1 H    0.984 --    10 C    0.965
    20   1 H    0.986 --    10 C    0.966
    21   1 H    0.986 --    10 C    0.965
    22   1 H    0.996 --    14 C    0.974
    23   1 H    0.993 --    14 C    0.961
    24   1 H    0.871 --    12 O    0.827
    25   1 H    0.949 --     4 N    0.920
 ---------------------------------------------------------------------------

molecular dipole:
                 x           y           z       tot (Debye)
 q only:        1.042      -1.878       0.205
   full:        1.124      -2.633       0.184       7.293

           -------------------------------------------------
          | TOTAL ENERGY              -42.175840984830 Eh   |
          | GRADIENT NORM               0.002405081216 Eh/α |
          | HOMO-LUMO GAP               1.412674397353 eV   |
           -------------------------------------------------

 * finished run on 2024/06/05 at 19:58:29.082
