   * xtb version 6.6.1 (8d0f1dd) compiled by 'conda@1efc2f54142f' on 2023-08-01
          program call               : xtb struc.xyz --opt loose --input .xc1 --gfn2

   ID    Z sym.   atoms
    1    6 C      1, 3, 5-7, 10, 11, 14
    2    7 N      2, 4, 9, 13
    3    8 O      8, 12
    4    1 H      15-25
constraining bond 11 23 to    5.1400000 Å, actual value:    3.1827480 Å

          :  Hamiltonian                  GFN2-xTB          :
 * total energy  :   -35.4077788 Eh     change       -0.6650680E-10 Eh
 * total energy  :   -38.5632480 Eh     change       -0.3155469E+01 Eh
 * total energy  :   -40.6841412 Eh     change       -0.2120893E+01 Eh
 * total energy  :   -41.6884374 Eh     change       -0.1004296E+01 Eh
 * total energy  :   -41.9525591 Eh     change       -0.2641217E+00 Eh
 * total energy  :   -41.9770118 Eh     change       -0.2445268E-01 Eh
 * total energy  :   -41.9880174 Eh     change       -0.1100564E-01 Eh
 * total energy  :   -42.0127144 Eh     change       -0.2469700E-01 Eh
 * total energy  :   -42.0244585 Eh     change       -0.1174401E-01 Eh
 * total energy  :   -42.0330284 Eh     change       -0.8569902E-02 Eh
 * total energy  :   -42.1570048 Eh     change        0.2319570E-04 Eh
 * total energy  :   -42.1572069 Eh     change       -0.2020966E-03 Eh
 * total energy  :   -42.1573057 Eh     change       -0.9878693E-04 Eh
 * total energy  :   -42.1574513 Eh     change       -0.1456169E-03 Eh
 * total energy  :   -42.1576054 Eh     change       -0.1540142E-03 Eh
 * total energy  :   -42.1577260 Eh     change       -0.1206387E-03 Eh
 * total energy  :   -42.1578191 Eh     change       -0.9309690E-04 Eh
 * total energy  :   -42.1578908 Eh     change       -0.7175079E-04 Eh
 * total energy  :   -42.1579302 Eh     change       -0.3936635E-04 Eh
   *** GEOMETRY OPTIMIZATION CONVERGED AFTER 72 ITERATIONS ***

 final structure:
================
25
 xtb: 6.6.1 (8d0f1dd)
C            3.03887793940158        1.15055949391486        0.18753814996598
N            2.12211984496248        0.05433877404028        0.04725033358825
C            2.45382190455278       -1.20036700897647       -0.16383475184189
N            1.36251491310059       -1.96826283288214       -0.24801943716084
C            0.20480215610889       -1.17782902543862       -0.08260103936901
C            0.72762658767367        0.15127922809796        0.12872746631940
C            0.11083880424478        1.39166923744842        0.27948523943404
O            0.55203397021917        2.50852990962313        0.29278449960978
N           -1.43894815667699        1.30534307243218        0.46134674467880
C           -2.19921009010159        2.04460601101521       -0.54101112280075
C           -1.88490074859041        0.83229607209853        1.51915601927085
O           -2.16145942216846        0.34765258643045        2.52002766010347
N           -1.00940513505471       -1.54350820371557       -0.13977874838069
C           -1.44344757450595       -2.87631434943985       -0.42106059856159
H            2.89936876070288        1.63826547917829        1.15218743356958
H            4.05889695622479        0.78225650266119        0.11003739190613
H            2.85814840961495        1.89506356925779       -0.58825801687302
H            3.46189400273655       -1.56067234957005       -0.25348507943316
H           -1.66769204176024        2.97538360222001       -0.74822503958240
H           -2.26003620894537        1.44289799545544       -1.45007234734530
H           -3.20108295322058        2.26860550221634       -0.17784216348760
H           -1.65712767307371       -3.38938570331622        0.52130542471593
H           -0.74556200636348       -3.49289635104457       -1.00897748194098
H           -2.38324457008385       -2.79634504203474       -0.96908991334454
H            1.36160384510059       -2.96492762807649       -0.39641900513800

          :  Hamiltonian                  GFN2-xTB          :
         :: total energy             -42.157930215043 Eh    ::
         :: gradient norm              0.003378662667 Eh/a0 ::
         :: HOMO-LUMO gap              1.955940361355 eV    ::
         :: SCC energy               -42.725900741227 Eh    ::
         :: -> dispersion             -0.021865634616 Eh    ::
         :: repulsion energy           0.567734296062 Eh    ::

    * Orbital Energies and Occupations

         #    Occupation            Energy/Eh            Energy/eV
      -------------------------------------------------------------
         1        2.0000           -0.9315668             -25.3492
       ...           ...                  ...                  ...
        25        2.0000           -0.6705901             -18.2477
        26        2.0000           -0.6640101             -18.0686
        27        2.0000           -0.6486541             -17.6508
        28        1.9999           -0.6367580             -17.3271
        29        1.9999           -0.6320523             -17.1990
        30        1.9999           -0.6301348             -17.1468
        31        1.9996           -0.6072808             -16.5250
        32        1.9993           -0.6003930             -16.3375
        33        1.9990           -0.5935428             -16.1511
        34        1.9986           -0.5886331             -16.0175
        35        1.9978           -0.5817786             -15.8310
        36        1.9171           -0.5235541             -14.2466
        37        1.8214           -0.5105994             -13.8941 (HOMO)
        38        0.1964           -0.4387199             -11.9382 (LUMO)
        39        0.0653           -0.4201682             -11.4334
        40        0.0039           -0.3751696             -10.2089
        41        0.0020           -0.3640893              -9.9074
        42        0.0000           -0.2935242              -7.9872
        43        0.0000           -0.2417533              -6.5784
        44                         -0.1723285              -4.6893
        45                         -0.1271411              -3.4597
        46                         -0.0879965              -2.3945
        47                         -0.0763351              -2.0772
        48                         -0.0330233              -0.8986
       ...                                ...                  ...
        67                          1.0221767              27.8148
      -------------------------------------------------------------
                  HL-Gap            0.0718795 Eh            1.9559 eV

     #   Z          covCN         q      C6AA      α(0)
     1   6 C        3.693    -0.084    22.299     6.756
     2   7 N        2.815     0.066    20.093     6.658
     3   6 C        2.973     0.075    26.322     8.416
     4   7 N        2.782    -0.097    23.130     7.143
     5   6 C        2.939     0.143    24.888     8.182
     6   6 C        3.053    -0.043    29.019     8.835
     7   6 C        2.750     0.256    22.694     7.801
     8   8 O        0.857    -0.329    20.312     6.042
     9   7 N        2.714    -0.022    21.678     6.915
    10   6 C        3.697    -0.066    21.936     6.699
    11   6 C        1.794     0.327    23.893     7.900
    12   8 O        0.856    -0.110    16.669     5.474
    13   7 N        1.824    -0.256    27.508     7.771
    14   6 C        3.698    -0.032    21.305     6.602
    15   1 H        0.925     0.110     1.696     2.037
    16   1 H        0.925     0.096     1.826     2.113
    17   1 H        0.924     0.116     1.649     2.008
    18   1 H        0.926     0.110     1.699     2.038
    19   1 H        0.924     0.123     1.592     1.973
    20   1 H        0.924     0.107     1.726     2.055
    21   1 H        0.925     0.101     1.779     2.086
    22   1 H        0.924     0.076     2.016     2.221
    23   1 H        0.923     0.038     2.474     2.460
    24   1 H        0.924     0.082     1.957     2.188
    25   1 H        0.860     0.214     1.036     1.594

Wiberg/Mayer (AO) data.
largest (>0.10) Wiberg bond orders for each atom

     #   Z sym  total        # sym  WBO       # sym  WBO       # sym  WBO
 ---------------------------------------------------------------------------
     1   6 C    3.929 --     2 N    0.993    16 H    0.974    15 H    0.959
                            17 H    0.957
     2   7 N    3.669 --     3 C    1.418     6 C    1.089     1 C    0.993
                             4 N    0.108
     3   6 C    3.881 --     2 N    1.418     4 N    1.312    18 H    0.951
     4   7 N    3.536 --     3 C    1.312     5 C    1.045    25 H    0.924
                             2 N    0.108
     5   6 C    3.945 --    13 N    1.630     6 C    1.139     4 N    1.045
     6   6 C    3.830 --     7 C    1.277     5 C    1.139     2 N    1.089
                             8 O    0.113
     7   6 C    3.866 --     8 O    1.728     6 C    1.277     9 N    0.714
     8   8 O    2.103 --     7 C    1.728     6 C    0.113
     9   7 N    3.579 --    11 C    1.595    10 C    0.929     7 C    0.714
                            12 O    0.239
    10   6 C    3.890 --    21 H    0.976    20 H    0.966    19 H    0.962
                             9 N    0.929
    11   6 C    3.786 --    12 O    2.077     9 N    1.595
    12   8 O    2.415 --    11 C    2.077     9 N    0.239
    13   7 N    2.931 --     5 C    1.630    14 C    1.038
    14   6 C    3.951 --    13 N    1.038    23 H    0.963    24 H    0.962
                            22 H    0.947
    15   1 H    0.985 --     1 C    0.959
    16   1 H    0.990 --     1 C    0.974
    17   1 H    0.984 --     1 C    0.957
    18   1 H    0.986 --     3 C    0.951
    19   1 H    0.984 --    10 C    0.962
    20   1 H    0.988 --    10 C    0.966
    21   1 H    0.989 --    10 C    0.976
    22   1 H    0.974 --    14 C    0.947
    23   1 H    0.983 --    14 C    0.963
    24   1 H    0.980 --    14 C    0.962
    25   1 H    0.953 --     4 N    0.924
 ---------------------------------------------------------------------------

molecular dipole:
                 x           y           z       tot (Debye)
 q only:        0.891      -0.543      -0.256
   full:        1.174      -1.108      -0.310       4.178

           -------------------------------------------------
          | TOTAL ENERGY              -42.157930215043 Eh   |
          | GRADIENT NORM               0.003378662667 Eh/α |
          | HOMO-LUMO GAP               1.955940361355 eV   |
           -------------------------------------------------

 * finished run on 2024/06/05 at 19:58:27.826
