   * xtb version 6.6.1 (8d0f1dd) compiled by 'conda@1efc2f54142f' on 2023-08-01
          program call               : xtb struc.xyz --opt loose --input .xc1 --gfn2

   ID    Z sym.   atoms
    1    7 N      1, 17
    2    6 C      2-6, 8, 9, 11-16, 18-23, 25, 26, 28-33
    3    8 O      7, 10, 24, 27
    4    1 H      34-72
constraining bond 3 44 to    4.1400000 Å, actual value:    2.1700288 Å

          :  Hamiltonian                  GFN2-xTB          :
 * total energy  :   -98.7112040 Eh     change       -0.4035485E-08 Eh
 * total energy  :   -98.9526658 Eh     change       -0.2414618E+00 Eh
 * total energy  :   -99.0909975 Eh     change       -0.1383317E+00 Eh
 * total energy  :   -99.1634027 Eh     change       -0.7240514E-01 Eh
 * total energy  :   -99.1961957 Eh     change       -0.3279308E-01 Eh
 * total energy  :   -99.2073410 Eh     change       -0.1114523E-01 Eh
 * total energy  :   -99.2111898 Eh     change       -0.3848790E-02 Eh
 * total energy  :   -99.2148567 Eh     change       -0.3666939E-02 Eh
 * total energy  :   -99.2197420 Eh     change       -0.4885265E-02 Eh
 * total energy  :   -99.2310752 Eh     change       -0.1133323E-01 Eh
 * total energy  :   -99.3164951 Eh     change       -0.2278090E-03 Eh
 * total energy  :   -99.3166569 Eh     change       -0.1617875E-03 Eh
 * total energy  :   -99.3168038 Eh     change       -0.1469010E-03 Eh
 * total energy  :   -99.3168999 Eh     change       -0.9611526E-04 Eh
 * total energy  :   -99.3170045 Eh     change       -0.1045549E-03 Eh
 * total energy  :   -99.3170751 Eh     change       -0.7063392E-04 Eh
 * total energy  :   -99.3171439 Eh     change       -0.6877226E-04 Eh
 * total energy  :   -99.3172302 Eh     change       -0.8630373E-04 Eh
 * total energy  :   -99.3172683 Eh     change       -0.3810363E-04 Eh
   *** GEOMETRY OPTIMIZATION CONVERGED AFTER 46 ITERATIONS ***

 final structure:
================
72
 xtb: 6.6.1 (8d0f1dd)
N           -1.66339711210303        3.18927956840303        2.04645933157256
C           -2.01499045235418        1.99215651634731        1.74284752853010
C           -3.26695896172183        1.67215871656770        1.17493391514034
C           -3.59073258914936        0.30338452628418        0.88786031724756
C           -4.49239452868345       -0.04099014340246       -0.14534051193001
C           -4.82148978404571       -1.35174744553097       -0.42335718781638
O           -5.65812111574987       -1.75620287069145       -1.40190863168023
C           -6.36853777583127       -0.79261326222582       -2.14444946340859
C           -4.25283282625164       -2.40329807219654        0.35088060414909
O           -4.64222847777607       -3.64752356425431        0.01790457583123
C           -4.19433743751126       -4.73767024167259        0.78953447698483
C           -3.36648625419202       -2.07307884996492        1.36998494204125
C           -3.03446252441086       -0.75687113098732        1.62682996766341
C           -2.03391123831570        2.40074756330355       -2.37971504377186
C           -1.54162370511683        1.11305539405772       -1.86255973216617
C           -0.21612707157505        1.17413785916189       -1.22281760068645
N            0.38525911990544        0.12987066627334       -0.67503343990530
C            1.75375317342087        0.21814401048115       -0.22432219109465
C            2.73374410196788       -0.28073214065490       -1.30583353338012
C            4.15566065822060       -0.09129378354248       -0.85695189287271
C            4.80609464848050        1.11381200499419       -1.07063629296576
C            6.11325803356169        1.30002316458065       -0.64947735676459
C            6.79811360135252        0.28245949847008       -0.00011704381333
O            8.06517917876941        0.34884643923448        0.44625106868274
C            8.80566519922217        1.53102308802804        0.24498053735464
C            6.13768683134581       -0.95703627402988        0.22777345636101
O            6.87583782249470       -1.89039906196026        0.85969641335235
C            6.32359990250847       -3.16265970307957        1.09955972923350
C            4.82916312655749       -1.11868875850472       -0.20077755617336
C           -0.23579724694352       -1.17004352099712       -0.69095459905175
C           -4.27362100121462        2.76361128458690        0.93391339106560
C           -4.69258517135609        3.37506876402380        2.27564000832132
C           -3.72523320479383        3.84801291609856        0.00844045036766
H           -4.91552065073448        0.74420187590148       -0.74958784275213
H           -6.96906640296231       -0.14868058021542       -1.49494775233479
H           -7.02721130381345       -1.35787667655391       -2.80069352878539
H           -5.69688427215453       -0.17620390077741       -2.75099464859091
H           -4.50586837031549       -4.64197918080762        1.83357805768662
H           -4.66262757023655       -5.61677956240342        0.35258414702473
H           -3.10665018482311       -4.84467341710882        0.74171082569523
H           -2.94218966372880       -2.84664031877108        1.98971643905436
H           -2.38457909173969       -0.54632070186206        2.46118532071213
H           -2.84083421045277        2.41208830545527       -3.08269364897804
H           -1.49077132244574        3.30544435002473       -2.19807671105092
H           -2.27340452511607        0.69823060928229       -1.14190569055912
H           -1.52601160578676        0.36388316797531       -2.67336287846487
H           -1.32155329727102        1.15065167322704        1.87710300275029
H            0.30217615337476        2.11904653443569       -1.18045756309399
H            1.87379873238413       -0.37973798563248        0.68249424200673
H            1.98710311791214        1.25703513120740        0.01522508279448
H            2.55708139117510        0.28753623199233       -2.22090559697854
H            2.54416451745130       -1.33495150216473       -1.51159482088247
H            4.29974192201065        1.91722900811699       -1.58360758368026
H            6.59540118125016        2.24497271498762       -0.83850791726334
H            8.34378463191640        2.38417952835302        0.75103236274675
H            8.92017639901708        1.75496803476511       -0.81982920944427
H            9.78438135407643        1.33998345583883        0.68081968164220
H            7.10755899757058       -3.73259775889884        1.59434073774140
H            5.45043799974325       -3.10387055009291        1.75725199795515
H            6.04731254142690       -3.66265375475891        0.16605780599908
H            4.32365461617830       -2.05821013676623       -0.04067357242922
H           -0.37081566842176       -1.53183378981675       -1.71341900048343
H           -1.21769956151565       -1.12816161219124       -0.21191703775061
H            0.38584350296686       -1.87850317936395       -0.14968709650653
H           -5.16914155766327        2.33110717462213        0.48030373896642
H           -3.83196047856300        3.82930036841550        2.75642155959061
H           -5.10342291181924        2.60997197455576        2.93150223749266
H           -5.45104335098704        4.13706394840600        2.11261675775346
H           -2.88323910307486        4.33802595867086        0.48741975017438
H           -3.38642127768326        3.40720386996375       -0.93257807982758
H           -4.49436932429582        4.58604955549866       -0.20169683787201
H           -0.74196267464122        3.31069750184338        2.44779947611082

          :  Hamiltonian                  GFN2-xTB          :
         :: total energy             -99.317268273972 Eh    ::
         :: gradient norm              0.003364544784 Eh/a0 ::
         :: HOMO-LUMO gap              0.057127361932 eV    ::
         :: SCC energy              -100.708271836835 Eh    ::
         :: -> dispersion             -0.072194061746 Eh    ::
         :: repulsion energy           1.389467727966 Eh    ::

    * Orbital Energies and Occupations

         #    Occupation            Energy/Eh            Energy/eV
      -------------------------------------------------------------
         1        2.0000           -0.8141806             -22.1550
       ...           ...                  ...                  ...
        78        1.9982           -0.5302980             -14.4301
        79        1.9981           -0.5295966             -14.4111
        80        1.9977           -0.5263692             -14.3232
        81        1.9968           -0.5214214             -14.1886
        82        1.9953           -0.5152825             -14.0216
        83        1.9938           -0.5108729             -13.9016
        84        1.9924           -0.5075640             -13.8115
        85        1.9859           -0.4976514             -13.5418
        86        1.9774           -0.4901380             -13.3373
        87        1.9225           -0.4701732             -12.7941
        88        1.8388           -0.4578736             -12.4594
        89        1.8350           -0.4574735             -12.4485
        90        1.1058           -0.4226953             -11.5021 (HOMO)
        91        1.0399           -0.4205959             -11.4450 (LUMO)
        92        0.3189           -0.3930138             -10.6945
        93        0.0047           -0.3235494              -8.8042
        94        0.0032           -0.3173965              -8.6368
        95        0.0026           -0.3139820              -8.5439
        96        0.0022           -0.3117795              -8.4840
        97        0.0001           -0.2613074              -7.1105
        98        0.0000           -0.1891871              -5.1480
        99        0.0000           -0.1858089              -5.0561
       100                         -0.1353604              -3.6833
       101                         -0.0680773              -1.8525
       ...                                ...                  ...
       171                          0.5762150              15.6796
      -------------------------------------------------------------
                  HL-Gap            0.0020994 Eh            0.0571 eV

     #   Z          covCN         q      C6AA      α(0)
     1   7 N        1.780    -0.298    28.536     7.911
     2   6 C        2.824     0.076    26.288     8.401
     3   6 C        2.964    -0.010    28.273     8.722
     4   6 C        2.967    -0.003    28.085     8.693
     5   6 C        2.919    -0.085    30.120     9.000
     6   6 C        2.859     0.130    25.157     8.221
     7   8 O        1.706    -0.234    17.872     5.708
     8   6 C        3.644     0.027    20.450     6.500
     9   6 C        2.864     0.130    25.158     8.222
    10   8 O        1.706    -0.223    17.693     5.679
    11   6 C        3.646     0.026    20.474     6.503
    12   6 C        2.910    -0.073    29.809     8.953
    13   6 C        2.921    -0.053    29.319     8.879
    14   6 C        2.837    -0.116    30.936     9.115
    15   6 C        3.803    -0.056    21.580     6.613
    16   6 C        2.851     0.005    27.893     8.656
    17   7 N        2.730     0.019    20.919     6.793
    18   6 C        3.755    -0.019    20.963     6.529
    19   6 C        3.808    -0.071    21.847     6.654
    20   6 C        2.968     0.000    28.019     8.683
    21   6 C        2.922    -0.048    29.197     8.861
    22   6 C        2.914    -0.067    29.666     8.931
    23   6 C        2.865     0.134    25.065     8.207
    24   8 O        1.706    -0.220    17.653     5.673
    25   6 C        3.645     0.024    20.500     6.507
    26   6 C        2.863     0.134    25.078     8.209
    27   8 O        1.706    -0.223    17.704     5.681
    28   6 C        3.645     0.027    20.460     6.501
    29   6 C        2.919    -0.079    29.977     8.978
    30   6 C        3.703    -0.073    22.057     6.715
    31   6 C        3.855    -0.005    20.626     6.459
    32   6 C        3.758    -0.110    22.659     6.787
    33   6 C        3.756    -0.119    22.825     6.812
    34   1 H        0.926     0.054     2.267     2.354
    35   1 H        0.924     0.055     2.264     2.353
    36   1 H        0.925     0.081     1.967     2.193
    37   1 H        0.924     0.047     2.356     2.400
    38   1 H        0.924     0.058     2.226     2.333
    39   1 H        0.925     0.083     1.952     2.185
    40   1 H        0.924     0.049     2.332     2.388
    41   1 H        0.926     0.052     2.295     2.369
    42   1 H        0.926     0.046     2.371     2.408
    43   1 H        0.927     0.057     2.240     2.340
    44   1 H        0.926     0.059     2.208     2.324
    45   1 H        0.922     0.103     1.757     2.073
    46   1 H        0.923     0.091     1.866     2.136
    47   1 H        0.923    -0.004     3.123     2.764
    48   1 H        0.926     0.081     1.972     2.196
    49   1 H        0.924     0.070     2.090     2.261
    50   1 H        0.924     0.072     2.059     2.244
    51   1 H        0.924     0.057     2.240     2.341
    52   1 H        0.924     0.055     2.257     2.349
    53   1 H        0.926     0.047     2.361     2.403
    54   1 H        0.926     0.060     2.201     2.320
    55   1 H        0.924     0.055     2.255     2.348
    56   1 H        0.924     0.057     2.237     2.339
    57   1 H        0.925     0.083     1.947     2.182
    58   1 H        0.925     0.083     1.953     2.186
    59   1 H        0.924     0.049     2.329     2.387
    60   1 H        0.924     0.053     2.285     2.364
    61   1 H        0.926     0.048     2.351     2.398
    62   1 H        0.924     0.077     2.008     2.216
    63   1 H        0.924     0.079     1.985     2.204
    64   1 H        0.925     0.082     1.961     2.190
    65   1 H        0.924     0.041     2.438     2.442
    66   1 H        0.925     0.070     2.090     2.261
    67   1 H        0.925     0.040     2.452     2.449
    68   1 H        0.925     0.053     2.287     2.365
    69   1 H        0.925     0.073     2.057     2.243
    70   1 H        0.924     0.043     2.408     2.427
    71   1 H        0.925     0.052     2.291     2.367
    72   1 H        0.860     0.142     1.458     1.891

Wiberg/Mayer (AO) data.
largest (>0.10) Wiberg bond orders for each atom

     #   Z sym  total        # sym  WBO       # sym  WBO       # sym  WBO
 ---------------------------------------------------------------------------
     1   7 N    2.712 --     2 C    1.667    72 H    0.950
     2   6 C    3.928 --     1 N    1.667     3 C    1.269    47 H    0.927
     3   6 C    3.598 --     2 C    1.269     4 C    1.198    31 C    1.010
     4   6 C    3.965 --    13 C    1.306     5 C    1.282     3 C    1.198
     5   6 C    3.909 --     6 C    1.433     4 C    1.282    34 H    0.956
     6   6 C    3.908 --     5 C    1.433     9 C    1.205     7 O    1.097
     7   8 O    2.252 --     6 C    1.097     8 C    0.977
     8   6 C    3.932 --     7 O    0.977    36 H    0.977    35 H    0.974
                            37 H    0.973
     9   6 C    3.840 --    12 C    1.359     6 C    1.205    10 O    1.111
    10   8 O    2.247 --     9 C    1.111    11 C    0.976
    11   6 C    3.930 --    39 H    0.977    10 O    0.976    40 H    0.973
                            38 H    0.973
    12   6 C    3.963 --    13 C    1.453     9 C    1.359    41 H    0.963
    13   6 C    3.876 --    12 C    1.453     4 C    1.306    42 H    0.964
    14   6 C    3.147 --    15 C    1.090    43 H    0.982    44 H    0.980
    15   6 C    3.982 --    14 C    1.090    16 C    1.070    46 H    0.900
                            45 H    0.871
    16   6 C    3.600 --    17 N    1.422    15 C    1.070    48 H    0.957
    17   7 N    3.490 --    16 C    1.422    30 C    1.002    18 C    0.987
    18   6 C    3.953 --    17 N    0.987    50 H    0.967    19 C    0.965
                            49 H    0.965
    19   6 C    3.977 --    20 C    1.008    52 H    0.972    51 H    0.971
                            18 C    0.965
    20   6 C    3.942 --    21 C    1.406    29 C    1.381    19 C    1.008
    21   6 C    3.948 --    22 C    1.419    20 C    1.406    53 H    0.968
    22   6 C    3.958 --    21 C    1.419    23 C    1.381    54 H    0.963
    23   6 C    3.893 --    22 C    1.381    26 C    1.218    24 O    1.113
    24   8 O    2.255 --    23 C    1.113    25 C    0.975
    25   6 C    3.927 --    57 H    0.977    24 O    0.975    55 H    0.972
                            56 H    0.972
    26   6 C    3.896 --    29 C    1.393    23 C    1.218    27 O    1.105
    27   8 O    2.254 --    26 C    1.105    28 C    0.978
    28   6 C    3.931 --    27 O    0.978    58 H    0.977    59 H    0.973
                            60 H    0.973
    29   6 C    3.958 --    26 C    1.393    20 C    1.381    61 H    0.962
    30   6 C    3.957 --    17 N    1.002    64 H    0.978    62 H    0.962
                            63 H    0.958
    31   6 C    3.971 --     3 C    1.010    33 C    0.988    32 C    0.973
                            65 H    0.955
    32   6 C    3.947 --    67 H    0.985    68 H    0.979    66 H    0.974
                            31 C    0.973
    33   6 C    3.927 --    31 C    0.988    71 H    0.979    69 H    0.970
                            70 H    0.948
    34   1 H    0.995 --     5 C    0.956
    35   1 H    0.994 --     8 C    0.974
    36   1 H    0.993 --     8 C    0.977
    37   1 H    0.994 --     8 C    0.973
    38   1 H    0.991 --    11 C    0.973
    39   1 H    0.993 --    11 C    0.977
    40   1 H    0.992 --    11 C    0.973
    41   1 H    0.995 --    12 C    0.963
    42   1 H    0.997 --    13 C    0.964
    43   1 H    0.996 --    14 C    0.982
    44   1 H    0.996 --    14 C    0.980
    45   1 H    0.942 --    15 C    0.871
    46   1 H    0.955 --    15 C    0.900
    47   1 H    0.968 --     2 C    0.927
    48   1 H    0.993 --    16 C    0.957
    49   1 H    0.991 --    18 C    0.965
    50   1 H    0.994 --    18 C    0.967
    51   1 H    0.995 --    19 C    0.971
    52   1 H    0.996 --    19 C    0.972
    53   1 H    0.997 --    21 C    0.968
    54   1 H    0.995 --    22 C    0.963
    55   1 H    0.991 --    25 C    0.972
    56   1 H    0.991 --    25 C    0.972
    57   1 H    0.992 --    25 C    0.977
    58   1 H    0.992 --    28 C    0.977
    59   1 H    0.993 --    28 C    0.973
    60   1 H    0.992 --    28 C    0.973
    61   1 H    0.996 --    29 C    0.962
    62   1 H    0.985 --    30 C    0.962
    63   1 H    0.987 --    30 C    0.958
    64   1 H    0.993 --    30 C    0.978
    65   1 H    0.990 --    31 C    0.955
    66   1 H    0.990 --    32 C    0.974
    67   1 H    0.995 --    32 C    0.985
    68   1 H    0.991 --    32 C    0.979
    69   1 H    0.990 --    33 C    0.970
    70   1 H    0.995 --    33 C    0.948
    71   1 H    0.991 --    33 C    0.979
    72   1 H    0.969 --     1 N    0.950
 ---------------------------------------------------------------------------

molecular dipole:
                 x           y           z       tot (Debye)
 q only:        0.693      -0.485      -0.962
   full:        0.789      -0.772      -0.839       3.524

           -------------------------------------------------
          | TOTAL ENERGY              -99.317268273972 Eh   |
          | GRADIENT NORM               0.003364544784 Eh/α |
          | HOMO-LUMO GAP               0.057127361932 eV   |
           -------------------------------------------------

 * finished run on 2024/04/06 at 11:12:02.851
