   * xtb version 6.6.1 (8d0f1dd) compiled by 'conda@1efc2f54142f' on 2023-08-01
          program call               : xtb struc.xyz --opt loose --input .xc1 --gfn2

   ID    Z sym.   atoms
    1    7 N      1, 17
    2    6 C      2-6, 8, 9, 11-16, 18-23, 25, 26, 28-33
    3    8 O      7, 10, 24, 27
    4    1 H      34-72
constraining bond 17 62 to    2.6866700 Å, actual value:    2.0996439 Å

          :  Hamiltonian                  GFN2-xTB          :
 * total energy  :   -99.4656603 Eh     change       -0.4035485E-08 Eh
 * total energy  :   -99.5790045 Eh     change       -0.1133442E+00 Eh
 * total energy  :   -99.7474935 Eh     change       -0.1684889E+00 Eh
 * total energy  :   -97.3200503 Eh     change        0.2427443E+01 Eh
 * total energy  :   -99.7924879 Eh     change       -0.2472438E+01 Eh
 * total energy  :   -99.8315486 Eh     change       -0.3906070E-01 Eh
 * total energy  :   -99.8331765 Eh     change       -0.1627983E-02 Eh
 * total energy  :   -99.8404473 Eh     change       -0.7270755E-02 Eh
 * total energy  :   -99.8400649 Eh     change        0.3824048E-03 Eh
 * total energy  :   -99.8447877 Eh     change       -0.4722841E-02 Eh
 * total energy  :   -99.8771717 Eh     change       -0.2450384E-03 Eh
 * total energy  :   -99.8773308 Eh     change       -0.1590727E-03 Eh
 * total energy  :   -99.8775265 Eh     change       -0.1956698E-03 Eh
 * total energy  :   -99.8776526 Eh     change       -0.1261593E-03 Eh
 * total energy  :   -99.8777766 Eh     change       -0.1240105E-03 Eh
 * total energy  :   -99.8778462 Eh     change       -0.6957735E-04 Eh
 * total energy  :   -99.8779240 Eh     change       -0.7781925E-04 Eh
 * total energy  :   -99.8779772 Eh     change       -0.5317910E-04 Eh
 * total energy  :   -99.8780269 Eh     change       -0.4964307E-04 Eh
   *** GEOMETRY OPTIMIZATION CONVERGED AFTER 46 ITERATIONS ***

 final structure:
================
72
 xtb: 6.6.1 (8d0f1dd)
N           -1.83946524012034        3.02367802454421        2.12636402575462
C           -2.18214444168409        2.13435306228716        1.36853300338470
C           -3.19522590157410        1.90486740256189        0.34851236002449
C           -3.65690381240143        0.45512155475515        0.39016894629176
C           -4.59062881890863       -0.01358000116509       -0.53347398304277
C           -5.05111530230512       -1.31822007971385       -0.48653702808472
O           -5.96035903688025       -1.85447772598229       -1.32796349572421
C           -6.55282061796439       -1.04009639257853       -2.31102126994138
C           -4.55806731685970       -2.19955968915449        0.51247961715413
O           -5.07064266460049       -3.44595364319935        0.48698856672354
C           -4.67717361761279       -4.36676425663471        1.47734054095694
C           -3.61947999752500       -1.72791630748143        1.41590252138595
C           -3.17801185075421       -0.41444572570241        1.35413145220081
C           -2.55060450405292        2.22384427762046       -1.02708958337298
C           -1.54845986867737        1.17705281380965       -1.51538983195605
C           -0.23363265107516        1.21816022087800       -0.74550412113663
N            0.65484572066262        0.11529864606698       -1.20178120488449
C            2.05649596699177        0.30309066726567       -0.67627779560495
C            3.05441712662575       -0.52392938169342       -1.48412841029083
C            4.45481473018127       -0.28821436340578       -0.97656041666852
C            5.10348308883155        0.90741881294159       -1.23526592006752
C            6.38216566867049        1.13978182152510       -0.75188700800248
C            7.04161844275072        0.17407402856032       -0.00646357182874
O            8.28019600994547        0.29112826380016        0.51254866995120
C            8.99820266203316        1.48597853696544        0.30969169947308
C            6.39084324776263       -1.06289823154861        0.24808333115625
O            7.11093885000158       -1.95526298303175        0.95894158450092
C            6.57526291037543       -3.23483623308532        1.19849735320057
C            5.10692244576383       -1.26682938486678       -0.23173977909325
C            0.04450857122863       -1.16039408961426       -0.83423763707934
C           -4.44054883267614        2.83492328908022        0.59498708629369
C           -5.08722932649402        2.52672854263545        1.94161793234908
C           -4.11600114230364        4.31991083691849        0.49760495601710
H           -4.96791881203210        0.65047177478136       -1.29357137992626
H           -7.08308792877646       -0.19276769847188       -1.86518555828233
H           -7.26720123244735       -1.67867551304372       -2.82683890124784
H           -5.81313692136064       -0.67339640494424       -3.03016072044641
H           -4.92055627454238       -4.00427890606709        2.48089580081333
H           -5.24391827809941       -5.27355637962992        1.27464158259805
H           -3.60677086050948       -4.58736262105213        1.41718372260784
H           -3.22757592965944       -2.37537666900855        2.18261251583854
H           -2.45850317556995       -0.06314404996713        2.08095863558408
H           -3.35388807439783        2.29359498083504       -1.75925701068183
H           -2.05983937002245        3.19648900137878       -0.97501768377896
H           -1.97284795635509        0.17470400547158       -1.41835148774112
H           -1.35155386351398        1.36407497574794       -2.57317657542969
H           -0.42670583169517        1.08771886161328        0.32212332119469
H            0.26691666524665        2.17604336542476       -0.90241975823412
H            2.07328994702273        0.00370164956462        0.37248876849188
H            2.32421489301808        1.35942154179576       -0.74338182929156
H            2.99909712561459       -0.23326381830543       -2.53575492920965
H            2.80916319941360       -1.58300329246105       -1.40448086996655
H            4.62278654254147        1.66996396635105       -1.82987653784002
H            6.86174276900658        2.07949078444181       -0.97108008114915
H            8.47439015438420        2.34609597265205        0.73802463229904
H            9.18777302194384        1.66493824137303       -0.75303121992373
H            9.94609749105706        1.34767260553181        0.82628362178791
H            7.34606391615041       -3.77664736408043        1.74319121227236
H            5.66910367391614       -3.18374928963610        1.81048132023481
H            6.35699257834987       -3.75953692997953        0.26306614447913
H            4.60264952822638       -2.20088854549210       -0.04097622395672
H            0.68890689932776        0.13328204362244       -2.01507613805558
H           -0.00814774870895       -1.31411074562886        0.22998187872260
H            0.43339037754336       -1.98939273608028       -1.39914432836934
H           -5.15497635987072        2.58418569245677       -0.19445887683290
H           -4.43145780112128        2.81819241226659        2.75788745969537
H           -5.31363714008774        1.46730356846611        2.03568993685549
H           -6.01554963558681        3.08386271895874        2.03799743229830
H           -3.34481309961191        4.59447098029510        1.21271818393412
H           -3.79196559534542        4.60094267991918       -0.50053871948924
H           -5.00916013584559        4.89423684433985        0.73112845098045
H           -1.07905165796170        3.00039950570270        2.78861646172354

          :  Hamiltonian                  GFN2-xTB          :
         :: total energy             -99.878026858797 Eh    ::
         :: gradient norm              0.002888813394 Eh/a0 ::
         :: HOMO-LUMO gap              0.774797725436 eV    ::
         :: SCC energy              -100.704570373452 Eh    ::
         :: -> dispersion             -0.073319097783 Eh    ::
         :: repulsion energy           1.451469214107 Eh    ::

    * Orbital Energies and Occupations

         #    Occupation            Energy/Eh            Energy/eV
      -------------------------------------------------------------
         1        2.0000           -0.8163017             -22.2127
       ...           ...                  ...                  ...
        78        1.9993           -0.5312049             -14.4548
        79        1.9992           -0.5293899             -14.4054
        80        1.9989           -0.5234716             -14.2444
        81        1.9988           -0.5222849             -14.2121
        82        1.9987           -0.5214968             -14.1906
        83        1.9986           -0.5207162             -14.1694
        84        1.9980           -0.5149101             -14.0114
        85        1.9980           -0.5141935             -13.9919
        86        1.9863           -0.4840696             -13.1722
        87        1.9852           -0.4827688             -13.1368
        88        1.9022           -0.4522043             -12.3051
        89        1.8889           -0.4500741             -12.2471
        90        1.5120           -0.4231172             -11.5136 (HOMO)
        91        0.6782           -0.3946439             -10.7388 (LUMO)
        92        0.0459           -0.3458223              -9.4103
        93        0.0047           -0.3092910              -8.4162
        94        0.0040           -0.3068139              -8.3488
        95        0.0038           -0.3060942              -8.3292
        96        0.0035           -0.3049115              -8.2971
        97        0.0000           -0.1870752              -5.0906
        98        0.0000           -0.1830355              -4.9806
        99        0.0000           -0.1717763              -4.6743
       100                         -0.1024169              -2.7869
       101                         -0.0751791              -2.0457
       ...                                ...                  ...
       171                          0.6298361              17.1387
      -------------------------------------------------------------
                  HL-Gap            0.0284733 Eh            0.7748 eV

     #   Z          covCN         q      C6AA      α(0)
     1   7 N        1.772    -0.187    25.830     7.526
     2   6 C        1.916     0.055    29.710     8.803
     3   6 C        3.905     0.025    20.101     6.373
     4   6 C        2.978    -0.001    28.040     8.686
     5   6 C        2.920    -0.080    30.000     8.982
     6   6 C        2.863     0.130    25.142     8.219
     7   8 O        1.706    -0.231    17.835     5.702
     8   6 C        3.645     0.028    20.432     6.497
     9   6 C        2.865     0.131    25.128     8.217
    10   8 O        1.706    -0.229    17.794     5.695
    11   6 C        3.646     0.027    20.452     6.499
    12   6 C        2.914    -0.070    29.744     8.943
    13   6 C        2.922    -0.048    29.193     8.860
    14   6 C        3.814    -0.062    21.682     6.627
    15   6 C        3.801    -0.076    21.954     6.671
    16   6 C        3.755    -0.027    21.106     6.551
    17   7 N        3.580     0.037    20.590     6.739
    18   6 C        3.742    -0.028    21.153     6.562
    19   6 C        3.808    -0.070    21.828     6.651
    20   6 C        2.969    -0.005    28.133     8.700
    21   6 C        2.922    -0.053    29.310     8.878
    22   6 C        2.914    -0.069    29.728     8.941
    23   6 C        2.865     0.131    25.122     8.216
    24   8 O        1.706    -0.227    17.772     5.692
    25   6 C        3.645     0.027    20.460     6.501
    26   6 C        2.863     0.132    25.115     8.215
    27   8 O        1.706    -0.229    17.796     5.696
    28   6 C        3.645     0.028    20.440     6.498
    29   6 C        2.920    -0.080    29.996     8.981
    30   6 C        2.781    -0.197    33.165     9.433
    31   6 C        3.853    -0.009    20.693     6.470
    32   6 C        3.755    -0.114    22.734     6.798
    33   6 C        3.755    -0.119    22.845     6.815
    34   1 H        0.926     0.048     2.346     2.395
    35   1 H        0.924     0.050     2.320     2.382
    36   1 H        0.925     0.080     1.982     2.202
    37   1 H        0.924     0.047     2.363     2.404
    38   1 H        0.924     0.052     2.295     2.369
    39   1 H        0.925     0.079     1.984     2.203
    40   1 H        0.924     0.050     2.318     2.381
    41   1 H        0.926     0.054     2.275     2.359
    42   1 H        0.925     0.037     2.489     2.467
    43   1 H        0.925     0.067     2.124     2.279
    44   1 H        0.924     0.055     2.264     2.353
    45   1 H        0.924     0.080     1.981     2.201
    46   1 H        0.924     0.052     2.295     2.369
    47   1 H        0.924     0.084     1.939     2.178
    48   1 H        0.924     0.061     2.188     2.313
    49   1 H        0.924     0.076     2.018     2.222
    50   1 H        0.924     0.065     2.136     2.285
    51   1 H        0.924     0.050     2.317     2.381
    52   1 H        0.925     0.061     2.183     2.310
    53   1 H        0.926     0.038     2.478     2.462
    54   1 H        0.926     0.055     2.256     2.349
    55   1 H        0.924     0.051     2.310     2.377
    56   1 H        0.924     0.053     2.278     2.360
    57   1 H        0.925     0.080     1.978     2.199
    58   1 H        0.925     0.080     1.980     2.201
    59   1 H        0.924     0.048     2.345     2.395
    60   1 H        0.924     0.051     2.305     2.374
    61   1 H        0.926     0.049     2.335     2.390
    62   1 H        0.863     0.223     0.997     1.564
    63   1 H        0.926     0.018     2.759     2.598
    64   1 H        0.926     0.020     2.735     2.586
    65   1 H        0.924     0.050     2.318     2.381
    66   1 H        0.925     0.048     2.350     2.397
    67   1 H        0.925     0.041     2.430     2.438
    68   1 H        0.925     0.054     2.268     2.355
    69   1 H        0.925     0.056     2.249     2.345
    70   1 H        0.925     0.040     2.453     2.449
    71   1 H        0.925     0.058     2.220     2.330
    72   1 H        0.860     0.198     1.117     1.656

Wiberg/Mayer (AO) data.
largest (>0.10) Wiberg bond orders for each atom

     #   Z sym  total        # sym  WBO       # sym  WBO       # sym  WBO
 ---------------------------------------------------------------------------
     1   7 N    3.139 --     2 C    2.108    72 H    0.910
     2   6 C    3.271 --     1 N    2.108     3 C    1.045
     3   6 C    3.956 --     2 C    1.045     4 C    0.964    14 C    0.938
                            31 C    0.894
     4   6 C    3.946 --    13 C    1.421     5 C    1.370     3 C    0.964
     5   6 C    3.966 --     6 C    1.403     4 C    1.370    34 H    0.958
     6   6 C    3.912 --     5 C    1.403     9 C    1.226     7 O    1.096
     7   8 O    2.257 --     6 C    1.096     8 C    0.980
     8   6 C    3.935 --     7 O    0.980    36 H    0.977    35 H    0.974
                            37 H    0.974
     9   6 C    3.910 --    12 C    1.393     6 C    1.226    10 O    1.102
    10   8 O    2.258 --     9 C    1.102    11 C    0.978
    11   6 C    3.933 --    10 O    0.978    39 H    0.977    38 H    0.974
                            40 H    0.974
    12   6 C    3.966 --    13 C    1.406     9 C    1.393    41 H    0.963
    13   6 C    3.956 --     4 C    1.421    12 C    1.406    42 H    0.956
    14   6 C    3.984 --    15 C    1.006    44 H    0.972    43 H    0.966
                             3 C    0.938
    15   6 C    3.981 --    16 C    1.007    14 C    1.006    46 H    0.973
                            45 H    0.959
    16   6 C    3.930 --    15 C    1.007    48 H    0.970    47 H    0.956
                            17 N    0.941
    17   7 N    3.747 --    16 C    0.941    30 C    0.930    62 H    0.925
                            18 C    0.910
    18   6 C    3.917 --    19 C    0.998    49 H    0.974    50 H    0.968
                            17 N    0.910
    19   6 C    3.988 --    20 C    0.999    18 C    0.998    52 H    0.971
                            51 H    0.968
    20   6 C    3.954 --    21 C    1.417    29 C    1.383    19 C    0.999
    21   6 C    3.960 --    20 C    1.417    22 C    1.414    53 H    0.969
    22   6 C    3.966 --    21 C    1.414    23 C    1.389    54 H    0.964
    23   6 C    3.907 --    22 C    1.389    26 C    1.228    24 O    1.103
    24   8 O    2.257 --    23 C    1.103    25 C    0.977
    25   6 C    3.932 --    24 O    0.977    57 H    0.977    55 H    0.974
                            56 H    0.973
    26   6 C    3.909 --    29 C    1.396    23 C    1.228    27 O    1.100
    27   8 O    2.257 --    26 C    1.100    28 C    0.979
    28   6 C    3.934 --    27 O    0.979    58 H    0.977    60 H    0.974
                            59 H    0.974
    29   6 C    3.965 --    26 C    1.396    20 C    1.383    61 H    0.962
    30   6 C    2.951 --    63 H    0.981    64 H    0.978    17 N    0.930
    31   6 C    3.940 --    33 C    1.015    32 C    1.012    65 H    0.953
                             3 C    0.894
    32   6 C    3.991 --    31 C    1.012    66 H    0.984    67 H    0.983
                            68 H    0.981
    33   6 C    3.988 --    31 C    1.015    70 H    0.984    71 H    0.978
                            69 H    0.977
    34   1 H    0.996 --     5 C    0.958
    35   1 H    0.995 --     8 C    0.974
    36   1 H    0.993 --     8 C    0.977
    37   1 H    0.995 --     8 C    0.974
    38   1 H    0.994 --    11 C    0.974
    39   1 H    0.993 --    11 C    0.977
    40   1 H    0.994 --    11 C    0.974
    41   1 H    0.995 --    12 C    0.963
    42   1 H    0.998 --    13 C    0.956
    43   1 H    0.994 --    14 C    0.966
    44   1 H    0.996 --    14 C    0.972
    45   1 H    0.993 --    15 C    0.959
    46   1 H    0.996 --    15 C    0.973
    47   1 H    0.993 --    16 C    0.956
    48   1 H    0.996 --    16 C    0.970
    49   1 H    0.994 --    18 C    0.974
    50   1 H    0.993 --    18 C    0.968
    51   1 H    0.996 --    19 C    0.968
    52   1 H    0.996 --    19 C    0.971
    53   1 H    0.998 --    21 C    0.969
    54   1 H    0.996 --    22 C    0.964
    55   1 H    0.994 --    25 C    0.974
    56   1 H    0.993 --    25 C    0.973
    57   1 H    0.993 --    25 C    0.977
    58   1 H    0.993 --    28 C    0.977
    59   1 H    0.994 --    28 C    0.974
    60   1 H    0.994 --    28 C    0.974
    61   1 H    0.997 --    29 C    0.962
    62   1 H    0.950 --    17 N    0.925
    63   1 H    0.992 --    30 C    0.981
    64   1 H    0.993 --    30 C    0.978
    65   1 H    0.989 --    31 C    0.953
    66   1 H    0.997 --    32 C    0.984
    67   1 H    0.998 --    32 C    0.983
    68   1 H    0.995 --    32 C    0.981
    69   1 H    0.996 --    33 C    0.977
    70   1 H    0.998 --    33 C    0.984
    71   1 H    0.994 --    33 C    0.978
    72   1 H    0.934 --     1 N    0.910
 ---------------------------------------------------------------------------

molecular dipole:
                 x           y           z       tot (Debye)
 q only:        0.078       1.346      -0.510
   full:        0.451       1.456      -0.565       4.132

           -------------------------------------------------
          | TOTAL ENERGY              -99.878026858797 Eh   |
          | GRADIENT NORM               0.002888813394 Eh/α |
          | HOMO-LUMO GAP               0.774797725436 eV   |
           -------------------------------------------------

 * finished run on 2024/04/06 at 11:16:50.023
