   * xtb version 6.6.1 (8d0f1dd) compiled by 'conda@1efc2f54142f' on 2023-08-01
          program call               : xtb xtbopt.xyz --opt crude --input .xc2 --gfn2

   ID    Z sym.   atoms
    1    7 N      1, 17
    2    6 C      2-6, 8, 9, 11-16, 18-23, 25, 26, 28-33
    3    8 O      7, 10, 24, 27
    4    1 H      34-72
########################################################################
[WARNING] Please study the warnings concerning your input carefully
-1- readin_getIntValue: could not parse ''
########################################################################

          :  Hamiltonian                  GFN2-xTB          :
 * total energy  :   -99.2519980 Eh     change       -0.4050094E-11 Eh
 * total energy  :   -99.3045177 Eh     change       -0.5251967E-01 Eh
 * total energy  :   -99.3050795 Eh     change       -0.5618036E-03 Eh
 * total energy  :   -99.3052531 Eh     change       -0.1736464E-03 Eh
   *** GEOMETRY OPTIMIZATION CONVERGED AFTER 4 ITERATIONS ***

 final structure:
================
72
 xtb: 6.6.1 (8d0f1dd)
N           -1.83381985886551        3.02732181920302        2.12110155146303
C           -2.18140734795091        2.13447899435941        1.36847139314203
C           -3.19575373905249        1.90618129914188        0.34943304754164
C           -3.65656280085236        0.45569072355410        0.39056406741047
C           -4.58910774513633       -0.01393870781848       -0.53388157098899
C           -5.04864687611454       -1.31894426307597       -0.48709059195005
O           -5.95722265232697       -1.85597488231624       -1.32894232539549
C           -6.55001034470000       -1.04177494087623       -2.31205815511183
C           -4.55609359076555       -2.19980311262477        0.51256880677834
O           -5.06760865452253       -3.44680311025302        0.48627722740628
C           -4.67279774871462       -4.36805116363462        1.47566793411249
C           -3.61901985087562       -1.72739675474046        1.41700109581673
C           -3.17825414070140       -0.41362245668717        1.35512123837914
C           -2.55237849085578        2.22534478920916       -1.02663814179804
C           -1.54907844539196        1.17974623498147       -1.51174412683665
C           -0.23721669130496        1.22070149947543       -0.73615613192774
N            0.65179067598079        0.11427662309049       -1.16910648994995
C            2.05463501200628        0.30383075124942       -0.66619829871940
C            3.05135941381910       -0.52375596853415       -1.47595290809517
C            4.45297430122879       -0.28928227172142       -0.97257712585277
C            5.10121508912706        0.90620713821615       -1.23279954888321
C            6.38081989154367        1.13835716348214       -0.75128231407555
C            7.04053223923827        0.17324164181277       -0.00553551829912
O            8.27903858407219        0.29096546470070        0.51301261804593
C            8.99789687487325        1.48464884405940        0.30626907686043
C            6.38991270208203       -1.06341816104133        0.25084891257333
O            7.10956827339579       -1.95505762063518        0.96301509550499
C            6.57339042351748       -3.23424282043053        1.20360647538568
C            5.10560395249245       -1.26781713161978       -0.22817796964899
C            0.04320123817348       -1.16493447260709       -0.82906022741236
C           -4.44054072980772        2.83535050888343        0.59735185325539
C           -5.08545112270491        2.52600833320679        1.94479756043583
C           -4.11535936501084        4.32043056597557        0.50005351014370
H           -4.96570246465076        0.64979680222587       -1.29471028956159
H           -7.08136839531440       -0.19510207914298       -1.86603212751082
H           -7.26366125005228       -1.68062002375208       -2.82863316304969
H           -5.81019353334658       -0.67401194571581       -3.03063009228469
H           -4.91801129212464       -4.00776437107982        2.47943252125503
H           -5.23698765149585       -5.27588497034910        1.27118686299723
H           -3.60187105966078       -4.58584611954924        1.41622024525932
H           -3.22858208156285       -2.37411257107765        2.18536457396641
H           -2.45946745742245       -0.06158544083990        2.08223000326776
H           -3.35670927929614        2.29394834838949       -1.75836490745327
H           -2.06308509361965        3.19884485992025       -0.97537929193552
H           -1.97201185858603        0.17675961702480       -1.41667459944432
H           -1.34453306437553        1.36725286007029       -2.56891921399370
H           -0.44126182600020        1.09864845267400        0.33268006932484
H            0.26746247558187        2.17748282044972       -0.89378437782894
H            2.08094991046230        0.00664806633862        0.38424267819102
H            2.32078490614296        1.36095783389417       -0.73672452101939
H            2.99099852534038       -0.23054665908915       -2.52805763949157
H            2.80443928293311       -1.58302481007848       -1.39736185229727
H            4.61955753653683        1.66878936533612       -1.82655463861950
H            6.86038133944500        2.07783554778685       -0.97172945397405
H            8.47639592296167        2.34607715931263        0.73498145766134
H            9.18429646646951        1.66197869976444       -0.75726937387941
H            9.94717534200912        1.34592407569312        0.82005702957846
H            7.34403676168036       -3.77588697450304        1.74855650080469
H            5.66731350834869       -3.18261874852688        1.81583220883327
H            6.35448738138041       -3.75940487766150        0.26863777366267
H            4.60149441241418       -2.20176747576803       -0.03616073659740
H            0.69858638682702        0.14150613960204       -2.18922055264658
H           -0.01573297886325       -1.33084616453179        0.23557249790220
H            0.42796548259999       -1.99229604887309       -1.39938558709603
H           -5.15686347754924        2.58537411557953       -0.19102367982727
H           -4.42763810604605        2.81463262264570        2.76045043253293
H           -5.31275436981645        1.46673314791646        2.03688389302817
H           -6.01270962477449        3.08415567584138        2.04387550511348
H           -3.34215806085116        4.59365553576365        1.21345731599774
H           -3.79303417347366        4.60151190921005       -0.49868129486651
H           -5.00738764150236        4.89533980365286        0.73532195080775
H           -1.07369377964842        3.00364078796137        2.78361869648172

          :  Hamiltonian                  GFN2-xTB          :
         :: total energy             -99.305253136575 Eh    ::
         :: gradient norm              0.004815052133 Eh/a0 ::
         :: HOMO-LUMO gap              0.763654031929 eV    ::
         :: SCC energy              -100.679299726649 Eh    ::
         :: -> dispersion             -0.073325400992 Eh    ::
         :: repulsion energy           1.372936653868 Eh    ::

    * Orbital Energies and Occupations

         #    Occupation            Energy/Eh            Energy/eV
      -------------------------------------------------------------
         1        2.0000           -0.8087261             -22.0066
       ...           ...                  ...                  ...
        78        1.9993           -0.5310072             -14.4494
        79        1.9992           -0.5292758             -14.4023
        80        1.9989           -0.5233450             -14.2409
        81        1.9988           -0.5219952             -14.2042
        82        1.9987           -0.5212791             -14.1847
        83        1.9987           -0.5204543             -14.1623
        84        1.9981           -0.5148051             -14.0086
        85        1.9980           -0.5139934             -13.9865
        86        1.9865           -0.4838471             -13.1662
        87        1.9854           -0.4826296             -13.1330
        88        1.9032           -0.4520033             -12.2996
        89        1.8904           -0.4499262             -12.2431
        90        1.5052           -0.4224533             -11.4955 (HOMO)
        91        0.6815           -0.3943895             -10.7319 (LUMO)
        92        0.0462           -0.3455454              -9.4028
        93        0.0047           -0.3090594              -8.4099
        94        0.0040           -0.3066549              -8.3445
        95        0.0039           -0.3058780              -8.3234
        96        0.0036           -0.3048002              -8.2940
        97        0.0000           -0.1867990              -5.0831
        98        0.0000           -0.1828058              -4.9744
        99        0.0000           -0.1733541              -4.7172
       100                         -0.0931006              -2.5334
       101                         -0.0775201              -2.1094
       ...                                ...                  ...
       171                          0.6276393              17.0789
      -------------------------------------------------------------
                  HL-Gap            0.0280638 Eh            0.7637 eV

     #   Z          covCN         q      C6AA      α(0)
     1   7 N        1.772    -0.188    25.855     7.529
     2   6 C        1.916     0.054    29.723     8.805
     3   6 C        3.905     0.025    20.100     6.373
     4   6 C        2.978    -0.001    28.044     8.687
     5   6 C        2.920    -0.080    30.001     8.982
     6   6 C        2.863     0.130    25.144     8.219
     7   8 O        1.706    -0.232    17.839     5.702
     8   6 C        3.644     0.029    20.430     6.497
     9   6 C        2.865     0.131    25.130     8.217
    10   8 O        1.706    -0.229    17.799     5.696
    11   6 C        3.646     0.027    20.450     6.499
    12   6 C        2.914    -0.070    29.745     8.943
    13   6 C        2.922    -0.048    29.193     8.860
    14   6 C        3.814    -0.062    21.679     6.627
    15   6 C        3.801    -0.076    21.944     6.669
    16   6 C        3.752    -0.025    21.081     6.547
    17   7 N        3.578     0.050    20.359     6.701
    18   6 C        3.742    -0.026    21.116     6.556
    19   6 C        3.807    -0.069    21.820     6.650
    20   6 C        2.969    -0.004    28.131     8.700
    21   6 C        2.922    -0.053    29.310     8.878
    22   6 C        2.914    -0.069    29.729     8.941
    23   6 C        2.865     0.131    25.122     8.216
    24   8 O        1.706    -0.228    17.773     5.692
    25   6 C        3.645     0.027    20.459     6.501
    26   6 C        2.864     0.132    25.117     8.215
    27   8 O        1.706    -0.229    17.798     5.696
    28   6 C        3.645     0.028    20.439     6.498
    29   6 C        2.920    -0.080    29.996     8.981
    30   6 C        2.779    -0.192    33.044     9.415
    31   6 C        3.853    -0.008    20.692     6.470
    32   6 C        3.755    -0.114    22.732     6.798
    33   6 C        3.755    -0.119    22.845     6.815
    34   1 H        0.926     0.048     2.348     2.396
    35   1 H        0.924     0.050     2.321     2.382
    36   1 H        0.925     0.080     1.983     2.202
    37   1 H        0.924     0.046     2.365     2.405
    38   1 H        0.924     0.052     2.295     2.369
    39   1 H        0.925     0.079     1.985     2.203
    40   1 H        0.924     0.050     2.320     2.382
    41   1 H        0.926     0.053     2.278     2.360
    42   1 H        0.925     0.037     2.491     2.468
    43   1 H        0.925     0.066     2.125     2.279
    44   1 H        0.924     0.055     2.263     2.352
    45   1 H        0.924     0.080     1.983     2.202
    46   1 H        0.924     0.051     2.308     2.376
    47   1 H        0.924     0.085     1.933     2.174
    48   1 H        0.924     0.061     2.193     2.316
    49   1 H        0.924     0.077     2.014     2.220
    50   1 H        0.924     0.065     2.141     2.288
    51   1 H        0.924     0.049     2.332     2.388
    52   1 H        0.924     0.061     2.183     2.311
    53   1 H        0.926     0.038     2.481     2.463
    54   1 H        0.926     0.055     2.256     2.349
    55   1 H        0.924     0.051     2.311     2.377
    56   1 H        0.924     0.053     2.279     2.361
    57   1 H        0.925     0.080     1.978     2.199
    58   1 H        0.925     0.080     1.981     2.201
    59   1 H        0.924     0.048     2.347     2.396
    60   1 H        0.924     0.051     2.306     2.375
    61   1 H        0.926     0.049     2.336     2.390
    62   1 H        0.860     0.208     1.068     1.619
    63   1 H        0.926     0.019     2.750     2.593
    64   1 H        0.926     0.020     2.734     2.585
    65   1 H        0.924     0.050     2.321     2.382
    66   1 H        0.925     0.047     2.352     2.398
    67   1 H        0.925     0.041     2.430     2.438
    68   1 H        0.925     0.054     2.269     2.356
    69   1 H        0.925     0.056     2.247     2.344
    70   1 H        0.925     0.040     2.455     2.450
    71   1 H        0.925     0.058     2.221     2.331
    72   1 H        0.860     0.197     1.120     1.658

Wiberg/Mayer (AO) data.
largest (>0.10) Wiberg bond orders for each atom

     #   Z sym  total        # sym  WBO       # sym  WBO       # sym  WBO
 ---------------------------------------------------------------------------
     1   7 N    3.136 --     2 C    2.106    72 H    0.911
     2   6 C    3.270 --     1 N    2.106     3 C    1.045
     3   6 C    3.956 --     2 C    1.045     4 C    0.964    14 C    0.938
                            31 C    0.895
     4   6 C    3.946 --    13 C    1.421     5 C    1.370     3 C    0.964
     5   6 C    3.966 --     6 C    1.403     4 C    1.370    34 H    0.958
     6   6 C    3.912 --     5 C    1.403     9 C    1.226     7 O    1.096
     7   8 O    2.257 --     6 C    1.096     8 C    0.980
     8   6 C    3.935 --     7 O    0.980    36 H    0.977    35 H    0.974
                            37 H    0.974
     9   6 C    3.910 --    12 C    1.394     6 C    1.226    10 O    1.101
    10   8 O    2.258 --     9 C    1.101    11 C    0.978
    11   6 C    3.933 --    10 O    0.978    39 H    0.977    38 H    0.974
                            40 H    0.974
    12   6 C    3.966 --    13 C    1.406     9 C    1.394    41 H    0.963
    13   6 C    3.956 --     4 C    1.421    12 C    1.406    42 H    0.956
    14   6 C    3.984 --    15 C    1.006    44 H    0.972    43 H    0.966
                             3 C    0.938
    15   6 C    3.981 --    16 C    1.007    14 C    1.006    46 H    0.972
                            45 H    0.959
    16   6 C    3.930 --    15 C    1.007    48 H    0.970    47 H    0.952
                            17 N    0.946
    17   7 N    3.759 --    16 C    0.946    30 C    0.936    62 H    0.919
                            18 C    0.917
    18   6 C    3.918 --    19 C    0.998    49 H    0.972    50 H    0.968
                            17 N    0.917
    19   6 C    3.988 --    20 C    1.000    18 C    0.998    52 H    0.971
                            51 H    0.967
    20   6 C    3.954 --    21 C    1.417    29 C    1.383    19 C    1.000
    21   6 C    3.960 --    20 C    1.417    22 C    1.413    53 H    0.969
    22   6 C    3.966 --    21 C    1.413    23 C    1.389    54 H    0.964
    23   6 C    3.908 --    22 C    1.389    26 C    1.228    24 O    1.103
    24   8 O    2.257 --    23 C    1.103    25 C    0.977
    25   6 C    3.932 --    24 O    0.977    57 H    0.977    55 H    0.974
                            56 H    0.973
    26   6 C    3.910 --    29 C    1.396    23 C    1.228    27 O    1.099
    27   8 O    2.257 --    26 C    1.099    28 C    0.979
    28   6 C    3.934 --    27 O    0.979    58 H    0.977    60 H    0.974
                            59 H    0.974
    29   6 C    3.965 --    26 C    1.396    20 C    1.383    61 H    0.962
    30   6 C    2.952 --    63 H    0.978    64 H    0.978    17 N    0.936
    31   6 C    3.940 --    33 C    1.014    32 C    1.012    65 H    0.953
                             3 C    0.895
    32   6 C    3.991 --    31 C    1.012    66 H    0.984    67 H    0.983
                            68 H    0.981
    33   6 C    3.988 --    31 C    1.014    70 H    0.984    71 H    0.978
                            69 H    0.977
    34   1 H    0.996 --     5 C    0.958
    35   1 H    0.995 --     8 C    0.974
    36   1 H    0.993 --     8 C    0.977
    37   1 H    0.995 --     8 C    0.974
    38   1 H    0.994 --    11 C    0.974
    39   1 H    0.993 --    11 C    0.977
    40   1 H    0.994 --    11 C    0.974
    41   1 H    0.995 --    12 C    0.963
    42   1 H    0.998 --    13 C    0.956
    43   1 H    0.994 --    14 C    0.966
    44   1 H    0.996 --    14 C    0.972
    45   1 H    0.993 --    15 C    0.959
    46   1 H    0.997 --    15 C    0.972
    47   1 H    0.993 --    16 C    0.952
    48   1 H    0.996 --    16 C    0.970
    49   1 H    0.994 --    18 C    0.972
    50   1 H    0.993 --    18 C    0.968
    51   1 H    0.996 --    19 C    0.967
    52   1 H    0.996 --    19 C    0.971
    53   1 H    0.998 --    21 C    0.969
    54   1 H    0.996 --    22 C    0.964
    55   1 H    0.994 --    25 C    0.974
    56   1 H    0.993 --    25 C    0.973
    57   1 H    0.993 --    25 C    0.977
    58   1 H    0.993 --    28 C    0.977
    59   1 H    0.994 --    28 C    0.974
    60   1 H    0.994 --    28 C    0.974
    61   1 H    0.997 --    29 C    0.962
    62   1 H    0.955 --    17 N    0.919
    63   1 H    0.992 --    30 C    0.978
    64   1 H    0.993 --    30 C    0.978
    65   1 H    0.989 --    31 C    0.953
    66   1 H    0.997 --    32 C    0.984
    67   1 H    0.998 --    32 C    0.983
    68   1 H    0.995 --    32 C    0.981
    69   1 H    0.996 --    33 C    0.977
    70   1 H    0.998 --    33 C    0.984
    71   1 H    0.994 --    33 C    0.978
    72   1 H    0.934 --     1 N    0.911
 ---------------------------------------------------------------------------

molecular dipole:
                 x           y           z       tot (Debye)
 q only:        0.096       1.335      -0.555
   full:        0.463       1.444      -0.608       4.152

           -------------------------------------------------
          | TOTAL ENERGY              -99.305253136575 Eh   |
          | GRADIENT NORM               0.004815052133 Eh/α |
          | HOMO-LUMO GAP               0.763654031929 eV   |
           -------------------------------------------------

 * finished run on 2024/04/06 at 11:16:50.969
