   * xtb version 6.6.1 (8d0f1dd) compiled by 'conda@1efc2f54142f' on 2023-08-01
          program call               : xtb struc.xyz --opt loose --input .xc1 --gfn2

   ID    Z sym.   atoms
    1    7 N      1, 17
    2    6 C      2-6, 8, 9, 11-16, 18-23, 25, 26, 28-33
    3    8 O      7, 10, 24, 27
    4    1 H      34-72
constraining bond 33 67 to    5.1400000 Å, actual value:    3.4542246 Å

          :  Hamiltonian                  GFN2-xTB          :
 * total energy  :   -98.8967115 Eh     change       -0.4035485E-08 Eh
 * total energy  :   -99.0875813 Eh     change       -0.1908698E+00 Eh
 * total energy  :   -99.1792435 Eh     change       -0.9166213E-01 Eh
 * total energy  :   -99.2166292 Eh     change       -0.3738577E-01 Eh
 * total energy  :   -99.2290202 Eh     change       -0.1239092E-01 Eh
 * total energy  :   -99.2336085 Eh     change       -0.4588309E-02 Eh
 * total energy  :   -99.2358763 Eh     change       -0.2267862E-02 Eh
 * total energy  :   -99.2367896 Eh     change       -0.9132723E-03 Eh
 * total energy  :   -99.2373425 Eh     change       -0.5528992E-03 Eh
 * total energy  :   -99.2377327 Eh     change       -0.3902257E-03 Eh
 * total energy  :   -99.2380782 Eh     change       -0.3454642E-03 Eh
 * total energy  :   -99.2383817 Eh     change       -0.3034995E-03 Eh
 * total energy  :   -99.2386022 Eh     change       -0.2205099E-03 Eh
 * total energy  :   -99.2387776 Eh     change       -0.1754367E-03 Eh
 * total energy  :   -99.2389066 Eh     change       -0.1289266E-03 Eh
 * total energy  :   -99.2389859 Eh     change       -0.7931442E-04 Eh
 * total energy  :   -99.2390371 Eh     change       -0.5122441E-04 Eh
 * total energy  :   -99.2390750 Eh     change       -0.3790901E-04 Eh
   *** GEOMETRY OPTIMIZATION CONVERGED AFTER 18 ITERATIONS ***

 final structure:
================
72
 xtb: 6.6.1 (8d0f1dd)
N           -1.94465742023044        2.84682581069315        2.24851206623186
C           -1.84743226278007        2.16037007896173        1.20982152231997
C           -2.98513985156201        1.94989581545340        0.24707380122015
C           -3.45720237092145        0.50298674149812        0.32498126096741
C           -4.42271993138831        0.04560028360610       -0.57342621685427
C           -4.89881123574371       -1.25371047061008       -0.52442041821786
O           -5.83599117617270       -1.77478060768404       -1.34275339833662
C           -6.46683567031451       -0.94516818003028       -2.28962058814300
C           -4.38607188922165       -2.15018222114560        0.45199675506476
O           -4.90146807754467       -3.39582897353373        0.42404596317187
C           -4.50370412075909       -4.32172027970685        1.40794304825476
C           -3.42358610111843       -1.69134071937653        1.33649291332556
C           -2.96517416338768       -0.38114987426422        1.27175598441130
C           -2.42281478601288        2.21762450108872       -1.17569963125509
C           -1.50728269571310        1.10227212484143       -1.71672392256814
C           -0.16600301857636        1.09541247933885       -1.09339714850405
N            0.48788114212455        0.02010929174045       -0.67239437517848
C            1.86616739015681        0.12231694882949       -0.25432734931355
C            2.83522369924524       -0.33435837150019       -1.36161035199894
C            4.25566410246837       -0.13112845875231       -0.91423534745293
C            4.89640169740326        1.07802939375208       -1.12975113944850
C            6.19813624226882        1.27886713222590       -0.69731691196749
C            6.88484599402590        0.27204235378034       -0.03429111568562
O            8.14729412354119        0.35251824632618        0.42500784655370
C            8.88027980850998        1.53801308914873        0.21828651227544
C            6.23332820482470       -0.97114541716517        0.19676898270681
O            6.97322747722023       -1.89319140144895        0.84419734853047
C            6.42743390687543       -3.16701072603270        1.08991644762274
C            4.93096779206140       -1.14764714012975       -0.24290996285148
C           -0.10546825425446       -1.29512772323069       -0.69464084416977
C           -4.18497972453783        2.87412310112571        0.59020484090410
C           -4.91465377478919        2.20232737898524        1.95123728020264
C           -3.61673800824060        4.56444026315408        0.22714452458580
H           -4.82286189429793        0.72397042856400       -1.30820734012962
H           -6.97950650538747       -0.10601723940509       -1.80996966217066
H           -7.19930689118439       -1.57760554218507       -2.78762742957677
H           -5.75551960333738       -0.56609903213488       -3.03058626284886
H           -4.73741585693903       -3.96174039036894        2.41424387409003
H           -5.07450287293695       -5.22586624786130        1.20631184692857
H           -3.43432048765543       -4.54608986881277        1.33913305722840
H           -3.02927593592392       -2.34409252789744        2.09851543609645
H           -2.23955424347938       -0.05337818373382        1.99991288737371
H           -3.25883780227624        2.32969739012515       -1.86464141738853
H           -1.86512948694648        3.15364834105273       -1.17171053882845
H           -2.00218191325259        0.13749924336571       -1.62249891645069
H           -1.36906423889372        1.30086460864457       -2.78774828762400
H           -0.91390004238275        1.67085531286486        0.87461807520233
H            0.38125556559222        2.02644875049362       -1.08329553495652
H            2.01741780278713       -0.49074709719370        0.63808528405571
H            2.08954423491399        1.15977118985344        0.00301463746478
H            2.64078560880433        0.25350727862066       -2.26035418618616
H            2.65928472266333       -1.38582951378507       -1.59127700305165
H            4.38726146823866        1.87402574121573       -1.65171221130858
H            6.67318764810277        2.22718012633200       -0.88755659439928
H            8.41041128868335        2.39172880012430        0.71609397266246
H            8.99804141715519        1.75515046007162       -0.84755930173676
H            9.85827465000797        1.35675764973162        0.65984530831661
H            7.21142681710472       -3.72798344801115        1.59480859567034
H            5.54906816678187       -3.10884777335395        1.74084908331063
H            6.16095556362300       -3.67619691679738        0.15850816669758
H            4.43044044202772       -2.08922004853865       -0.07943252724697
H           -0.25616072108204       -1.64393909171162       -1.71854493245440
H           -1.07044704838900       -1.28587242546671       -0.18157882290227
H            0.55195481653248       -1.99357059645251       -0.18336362188755
H           -4.94185208402662        2.76319116038741       -0.18866800595518
H           -4.21434091694474        2.29569759419686        2.76967064275546
H           -5.48099563982819        0.77846751475255        2.29577922278824
H           -5.80468725360726        2.78509803446784        2.15106508224510
H           -2.66606701641030        4.70420567944219        0.71317919719544
H           -3.57396263745364        4.60261112522865       -0.84813195706454
H           -4.36331877266208        5.23657537118994        0.62309757120258
H           -1.11970179817773        2.94999919554616        2.83112907907985

          :  Hamiltonian                  GFN2-xTB          :
         :: total energy             -99.239075009131 Eh    ::
         :: gradient norm              0.002765118960 Eh/a0 ::
         :: HOMO-LUMO gap              1.668073267649 eV    ::
         :: SCC energy              -100.620596387895 Eh    ::
         :: -> dispersion             -0.076308219148 Eh    ::
         :: repulsion energy           1.345577024622 Eh    ::

    * Orbital Energies and Occupations

         #    Occupation            Energy/Eh            Energy/eV
      -------------------------------------------------------------
         1        2.0000           -0.8080307             -21.9876
       ...           ...                  ...                  ...
        78        1.9987           -0.5323576             -14.4862
        79        1.9983           -0.5281725             -14.3723
        80        1.9980           -0.5248856             -14.2829
        81        1.9975           -0.5218608             -14.2006
        82        1.9971           -0.5195034             -14.1364
        83        1.9963           -0.5156089             -14.0304
        84        1.9953           -0.5117688             -13.9259
        85        1.9810           -0.4893836             -13.3168
        86        1.9791           -0.4879136             -13.2768
        87        1.9726           -0.4835452             -13.1579
        88        1.9446           -0.4721752             -12.8485
        89        1.8714           -0.4582358             -12.4692
        90        1.8472           -0.4553086             -12.3896 (HOMO)
        91        0.4024           -0.3940080             -10.7215 (LUMO)
        92        0.0144           -0.3378785              -9.1941
        93        0.0039           -0.3169764              -8.6254
        94        0.0033           -0.3143996              -8.5552
        95        0.0028           -0.3117957              -8.4844
        96        0.0024           -0.3094778              -8.4213
        97        0.0016           -0.3026819              -8.2364
        98        0.0000           -0.2052935              -5.5863
        99        0.0000           -0.1883761              -5.1260
       100        0.0000           -0.1869224              -5.0864
       101                         -0.1357906              -3.6950
       ...                                ...                  ...
       171                          0.5773427              15.7103
      -------------------------------------------------------------
                  HL-Gap            0.0613006 Eh            1.6681 eV

     #   Z          covCN         q      C6AA      α(0)
     1   7 N        1.774    -0.269    27.813     7.810
     2   6 C        2.826     0.100    25.775     8.319
     3   6 C        3.906     0.009    20.372     6.415
     4   6 C        2.975     0.006    27.890     8.663
     5   6 C        2.921    -0.078    29.945     8.974
     6   6 C        2.862     0.130    25.150     8.220
     7   8 O        1.706    -0.229    17.801     5.697
     8   6 C        3.644     0.027    20.452     6.501
     9   6 C        2.864     0.128    25.184     8.226
    10   8 O        1.706    -0.229    17.790     5.695
    11   6 C        3.646     0.027    20.449     6.499
    12   6 C        2.914    -0.075    29.870     8.962
    13   6 C        2.921    -0.053    29.308     8.878
    14   6 C        3.810    -0.067    21.775     6.642
    15   6 C        3.802    -0.069    21.827     6.652
    16   6 C        2.844     0.007    27.869     8.652
    17   7 N        2.729     0.012    21.040     6.813
    18   6 C        3.756    -0.017    20.923     6.522
    19   6 C        3.808    -0.070    21.842     6.653
    20   6 C        2.969    -0.001    28.038     8.686
    21   6 C        2.922    -0.049    29.217     8.864
    22   6 C        2.914    -0.068    29.683     8.934
    23   6 C        2.865     0.133    25.082     8.209
    24   8 O        1.706    -0.222    17.686     5.678
    25   6 C        3.645     0.025    20.487     6.505
    26   6 C        2.863     0.133    25.090     8.210
    27   8 O        1.706    -0.225    17.731     5.685
    28   6 C        3.645     0.027    20.451     6.500
    29   6 C        2.919    -0.080    29.990     8.980
    30   6 C        3.699    -0.071    22.035     6.713
    31   6 C        3.654    -0.026    21.343     6.633
    32   6 C        2.919    -0.071    29.758     8.946
    33   6 C        3.592    -0.112    23.342     6.999
    34   1 H        0.926     0.052     2.293     2.368
    35   1 H        0.924     0.054     2.269     2.356
    36   1 H        0.925     0.081     1.965     2.192
    37   1 H        0.924     0.047     2.355     2.400
    38   1 H        0.924     0.055     2.261     2.352
    39   1 H        0.925     0.081     1.967     2.193
    40   1 H        0.924     0.047     2.352     2.398
    41   1 H        0.926     0.052     2.301     2.372
    42   1 H        0.926     0.037     2.485     2.465
    43   1 H        0.925     0.058     2.218     2.329
    44   1 H        0.925     0.055     2.258     2.350
    45   1 H        0.925     0.066     2.126     2.280
    46   1 H        0.923     0.080     1.979     2.200
    47   1 H        0.922     0.004     2.989     2.704
    48   1 H        0.926     0.069     2.095     2.264
    49   1 H        0.924     0.068     2.112     2.272
    50   1 H        0.924     0.067     2.116     2.275
    51   1 H        0.924     0.055     2.258     2.350
    52   1 H        0.924     0.056     2.251     2.346
    53   1 H        0.926     0.045     2.387     2.416
    54   1 H        0.926     0.058     2.219     2.329
    55   1 H        0.924     0.054     2.270     2.356
    56   1 H        0.924     0.056     2.250     2.346
    57   1 H        0.925     0.082     1.956     2.187
    58   1 H        0.925     0.082     1.961     2.190
    59   1 H        0.924     0.048     2.340     2.392
    60   1 H        0.924     0.052     2.291     2.367
    61   1 H        0.926     0.047     2.359     2.402
    62   1 H        0.924     0.076     2.017     2.221
    63   1 H        0.924     0.081     1.972     2.196
    64   1 H        0.925     0.080     1.981     2.201
    65   1 H        0.924     0.042     2.426     2.436
    66   1 H        0.926     0.067     2.123     2.278
    67   1 H        0.132    -0.023     8.656     5.375
    68   1 H        0.925     0.055     2.263     2.352
    69   1 H        0.926     0.056     2.245     2.343
    70   1 H        0.926     0.053     2.284     2.363
    71   1 H        0.926     0.062     2.179     2.308
    72   1 H        0.860     0.157     1.355     1.824

Wiberg/Mayer (AO) data.
largest (>0.10) Wiberg bond orders for each atom

     #   Z sym  total        # sym  WBO       # sym  WBO       # sym  WBO
 ---------------------------------------------------------------------------
     1   7 N    3.033 --     2 C    1.959    72 H    0.943
     2   6 C    3.932 --     1 N    1.959     3 C    0.993    47 H    0.905
     3   6 C    3.977 --     2 C    0.993    31 C    0.968     4 C    0.962
                            14 C    0.956
     4   6 C    3.947 --    13 C    1.414     5 C    1.369     3 C    0.962
     5   6 C    3.962 --     6 C    1.402     4 C    1.369    34 H    0.958
     6   6 C    3.906 --     5 C    1.402     9 C    1.222     7 O    1.100
     7   8 O    2.255 --     6 C    1.100     8 C    0.978
     8   6 C    3.932 --     7 O    0.978    36 H    0.977    37 H    0.974
                            35 H    0.973
     9   6 C    3.901 --    12 C    1.392     6 C    1.222    10 O    1.101
    10   8 O    2.252 --     9 C    1.101    11 C    0.978
    11   6 C    3.932 --    10 O    0.978    39 H    0.977    40 H    0.974
                            38 H    0.973
    12   6 C    3.962 --    13 C    1.402     9 C    1.392    41 H    0.964
    13   6 C    3.954 --     4 C    1.414    12 C    1.402    42 H    0.962
    14   6 C    3.972 --    15 C    0.980    44 H    0.972    43 H    0.969
                             3 C    0.956
    15   6 C    3.987 --    16 C    1.061    14 C    0.980    45 H    0.961
                            46 H    0.928
    16   6 C    3.587 --    17 N    1.403    15 C    1.061    48 H    0.957
    17   7 N    3.478 --    16 C    1.403    30 C    0.998    18 C    0.988
    18   6 C    3.955 --    17 N    0.988    50 H    0.968    19 C    0.967
                            49 H    0.964
    19   6 C    3.976 --    20 C    1.008    52 H    0.972    51 H    0.972
                            18 C    0.967
    20   6 C    3.945 --    21 C    1.410    29 C    1.380    19 C    1.008
    21   6 C    3.951 --    22 C    1.416    20 C    1.410    53 H    0.968
    22   6 C    3.960 --    21 C    1.416    23 C    1.384    54 H    0.963
    23   6 C    3.896 --    22 C    1.384    26 C    1.220    24 O    1.110
    24   8 O    2.255 --    23 C    1.110    25 C    0.976
    25   6 C    3.928 --    57 H    0.977    24 O    0.976    55 H    0.973
                            56 H    0.973
    26   6 C    3.899 --    29 C    1.395    23 C    1.220    27 O    1.103
    27   8 O    2.255 --    26 C    1.103    28 C    0.979
    28   6 C    3.932 --    27 O    0.979    58 H    0.977    59 H    0.973
                            60 H    0.973
    29   6 C    3.959 --    26 C    1.395    20 C    1.380    61 H    0.963
    30   6 C    3.957 --    17 N    0.998    64 H    0.978    62 H    0.966
                            63 H    0.959
    31   6 C    3.940 --    32 C    0.986    65 H    0.973     3 C    0.968
                            33 C    0.946
    32   6 C    3.938 --    68 H    0.987    31 C    0.986    66 H    0.981
                            67 H    0.946
    33   6 C    3.972 --    71 H    0.991    69 H    0.989    70 H    0.987
                            31 C    0.946
    34   1 H    0.996 --     5 C    0.958
    35   1 H    0.993 --     8 C    0.973
    36   1 H    0.993 --     8 C    0.977
    37   1 H    0.994 --     8 C    0.974
    38   1 H    0.993 --    11 C    0.973
    39   1 H    0.993 --    11 C    0.977
    40   1 H    0.993 --    11 C    0.974
    41   1 H    0.996 --    12 C    0.964
    42   1 H    0.998 --    13 C    0.962
    43   1 H    0.995 --    14 C    0.969
    44   1 H    0.996 --    14 C    0.972
    45   1 H    0.995 --    15 C    0.961
    46   1 H    0.968 --    15 C    0.928
    47   1 H    0.988 --     2 C    0.905
    48   1 H    0.995 --    16 C    0.957
    49   1 H    0.991 --    18 C    0.964
    50   1 H    0.994 --    18 C    0.968
    51   1 H    0.996 --    19 C    0.972
    52   1 H    0.996 --    19 C    0.972
    53   1 H    0.997 --    21 C    0.968
    54   1 H    0.995 --    22 C    0.963
    55   1 H    0.992 --    25 C    0.973
    56   1 H    0.992 --    25 C    0.973
    57   1 H    0.992 --    25 C    0.977
    58   1 H    0.993 --    28 C    0.977
    59   1 H    0.993 --    28 C    0.973
    60   1 H    0.993 --    28 C    0.973
    61   1 H    0.997 --    29 C    0.963
    62   1 H    0.985 --    30 C    0.966
    63   1 H    0.987 --    30 C    0.959
    64   1 H    0.993 --    30 C    0.978
    65   1 H    0.993 --    31 C    0.973
    66   1 H    0.991 --    32 C    0.981
    67   1 H    0.982 --    32 C    0.946
    68   1 H    0.993 --    32 C    0.987
    69   1 H    0.996 --    33 C    0.989
    70   1 H    0.996 --    33 C    0.987
    71   1 H    0.995 --    33 C    0.991
    72   1 H    0.971 --     1 N    0.943
 ---------------------------------------------------------------------------

molecular dipole:
                 x           y           z       tot (Debye)
 q only:        0.652       0.170      -0.918
   full:        0.903       0.098      -1.017       3.466

           -------------------------------------------------
          | TOTAL ENERGY              -99.239075009131 Eh   |
          | GRADIENT NORM               0.002765118960 Eh/α |
          | HOMO-LUMO GAP               1.668073267649 eV   |
           -------------------------------------------------

 * finished run on 2024/04/06 at 11:14:56.749
