   * xtb version 6.6.1 (8d0f1dd) compiled by 'conda@1efc2f54142f' on 2023-08-01
          program call               : xtb xtbopt.xyz --opt crude --input .xc2 --gfn2

   ID    Z sym.   atoms
    1    7 N      1, 17
    2    6 C      2-6, 8, 9, 11-16, 18-23, 25, 26, 28-33
    3    8 O      7, 10, 24, 27
    4    1 H      34-72

          :  Hamiltonian                  GFN2-xTB          :
 * total energy  :   -99.2736713 Eh     change       -0.4405365E-12 Eh
 * total energy  :   -99.3406116 Eh     change       -0.6694022E-01 Eh
 * total energy  :   -99.3645941 Eh     change       -0.2398255E-01 Eh
 * total energy  :   -99.3902965 Eh     change       -0.2570240E-01 Eh
 * total energy  :   -99.4008603 Eh     change       -0.1056375E-01 Eh
 * total energy  :   -99.4039344 Eh     change       -0.3074116E-02 Eh
 * total energy  :   -99.4054209 Eh     change       -0.1486547E-02 Eh
 * total energy  :   -99.4055328 Eh     change       -0.1118641E-03 Eh
 * total energy  :   -99.4060263 Eh     change       -0.4935158E-03 Eh
 * total energy  :   -99.4061189 Eh     change       -0.9263515E-04 Eh
 * total energy  :   -99.4062980 Eh     change       -0.1790943E-03 Eh
 * total energy  :   -99.4063464 Eh     change       -0.4835213E-04 Eh
   *** GEOMETRY OPTIMIZATION CONVERGED AFTER 12 ITERATIONS ***

 final structure:
================
72
 xtb: 6.6.1 (8d0f1dd)
N           -1.89171779919562        2.79767337459807        2.23459115802364
C           -1.83723493024736        2.11684765165509        1.18937647098183
C           -2.98419307958526        1.90774384883480        0.23958935689235
C           -3.45703815516898        0.46375610246798        0.32073680096734
C           -4.41241662627552        0.00033679220167       -0.58587772622149
C           -4.89328495509157       -1.29701402756288       -0.53381967652432
O           -5.82741605409840       -1.81352381504895       -1.35831457204289
C           -6.45818130488369       -0.97256112488859       -2.29554476172076
C           -4.39097565722250       -2.18987669307636        0.45131415610052
O           -4.90670942412677       -3.43501956906785        0.42353287383132
C           -4.51679498198034       -4.36049878557151        1.41112335767319
C           -3.43923491270638       -1.72560475924229        1.34488066771238
C           -2.98274038446963       -0.41432712346516        1.28264653138811
C           -2.42715401895164        2.20082843511302       -1.17780017437723
C           -1.48741322434054        1.11208280041778       -1.72805637995626
C           -0.15504002593841        1.10003250665089       -1.08423765543034
N            0.49842356965896        0.01746010377692       -0.67959945075855
C            1.87657405379813        0.11099028899772       -0.25899209368788
C            2.84482915937511       -0.34026086204824       -1.36927214694435
C            4.26472775755863       -0.13694408610134       -0.92060974462593
C            4.90408363983801        1.07358672869511       -1.13292045918955
C            6.20425896960354        1.27579521505707       -0.69690413220505
C            6.89097185964050        0.26936879491728       -0.03302138830405
O            8.15193393142692        0.35234583911672        0.42943110476580
C            8.88293858956121        1.53938910461084        0.22374779928567
C            6.24074997446311       -0.97519849561817        0.19492245377713
O            6.97917392014895       -1.89695752988932        0.84416421781368
C            6.43271651251158       -3.17097465568672        1.08799443035108
C            4.93992234955096       -1.15323662886510       -0.24904487663651
C           -0.09828739364546       -1.29612263055192       -0.71238013019774
C           -4.19445057467302        2.84338498204930        0.53336669573158
C           -4.82691196441744        2.53622844492911        1.89089588227234
C           -3.85495305075177        4.32663910397143        0.44243261493067
H           -4.79740011590250        0.67128015745150       -1.33545119237285
H           -6.95969330677773       -0.13244637894036       -1.80554484768676
H           -7.20025261611756       -1.59399420429735       -2.79265254225648
H           -5.74928999349660       -0.59414240395278       -3.03916675384140
H           -4.75457212605514       -3.99875852373537        2.41583078641885
H           -5.08962283332926       -5.26310780109969        1.20787441350405
H           -3.44791911840579       -4.58868146244869        1.34781490281314
H           -3.05121904983492       -2.37555532968222        2.11238083639470
H           -2.26772123437434       -0.08183242268513        2.01944567103445
H           -3.26350641387180        2.30368289953511       -1.86805994234618
H           -1.89827426470850        3.15448584309214       -1.15703054893358
H           -1.97570638598059        0.14116765933029       -1.66349462279154
H           -1.33339143993340        1.33893448637037       -2.79114279349731
H           -0.91449129894453        1.62528820760004        0.82385667494593
H            0.39620242146067        2.02900393483576       -1.06766166218155
H            2.02477122042657       -0.51062000352539        0.62810332239488
H            2.10405173975581        1.14518318547172        0.00779301652276
H            2.64960224150357        0.25122462795113       -2.26543977520399
H            2.66976896431799       -1.39092568877903       -1.60332574332301
H            4.39496134561401        1.86947208346208       -1.65501798017011
H            6.67810745047718        2.22521584633135       -0.88443862134195
H            8.41111253528217        2.39194497932175        0.72168840681142
H            9.00071371457480        1.75721724388720       -0.84194910401224
H            9.86107533287999        1.35993528725472        0.66567016369214
H            7.21513577203724       -3.73229806600438        1.59488228839210
H            5.55253907816018       -3.11280727846539        1.73649028418892
H            6.16875585345773       -3.67973219677459        0.15565554637962
H            4.44063088440599       -2.09595785148798       -0.08850802040736
H           -0.25230348048781       -1.63540681786923       -1.73891809640228
H           -1.06163435848217       -1.29032923257255       -0.19604805447268
H            0.55948108911905       -2.00044241645979       -0.20961877994472
H           -4.94399509269033        2.63400127398649       -0.23656371389397
H           -4.11765000802013        2.74458911830038        2.68580419679043
H           -5.12986582103088        1.49145011214131        1.96164991257110
H           -5.70561628564127        3.15852673383575        2.03627791062409
H           -2.99917128121584        4.55255351183546        1.07149984220748
H           -3.63898142196801        4.60696262440260       -0.57929604473865
H           -4.69095045561150        4.93098875420791        0.78089042661991
H           -1.04632141295772        2.89169969929889        2.78863387643751

          :  Hamiltonian                  GFN2-xTB          :
         :: total energy             -99.406346391141 Eh    ::
         :: gradient norm              0.008767692655 Eh/a0 ::
         :: HOMO-LUMO gap              1.671220969344 eV    ::
         :: SCC energy              -100.786271357772 Eh    ::
         :: -> dispersion             -0.075092889391 Eh    ::
         :: repulsion energy           1.378687209065 Eh    ::

    * Orbital Energies and Occupations

         #    Occupation            Energy/Eh            Energy/eV
      -------------------------------------------------------------
         1        2.0000           -0.8088420             -22.0097
       ...           ...                  ...                  ...
        78        1.9983           -0.5292618             -14.4019
        79        1.9983           -0.5289383             -14.3931
        80        1.9982           -0.5281966             -14.3730
        81        1.9976           -0.5231192             -14.2348
        82        1.9971           -0.5201907             -14.1551
        83        1.9961           -0.5155801             -14.0296
        84        1.9950           -0.5116489             -13.9227
        85        1.9942           -0.5093829             -13.8610
        86        1.9811           -0.4905937             -13.3497
        87        1.9786           -0.4886280             -13.2962
        88        1.9379           -0.4714230             -12.8281
        89        1.8734           -0.4596005             -12.5064
        90        1.8437           -0.4560104             -12.4087 (HOMO)
        91        0.3921           -0.3945941             -10.7375 (LUMO)
        92        0.0152           -0.3397646              -9.2455
        93        0.0036           -0.3166930              -8.6177
        94        0.0030           -0.3137937              -8.5388
        95        0.0027           -0.3125197              -8.5041
        96        0.0024           -0.3102157              -8.4414
        97        0.0000           -0.1910498              -5.1987
        98        0.0000           -0.1876779              -5.1070
        99                         -0.1365089              -3.7146
       100                         -0.0685255              -1.8647
       101                         -0.0643220              -1.7503
       ...                                ...                  ...
       171                          0.5763669              15.6837
      -------------------------------------------------------------
                  HL-Gap            0.0614162 Eh            1.6712 eV

     #   Z          covCN         q      C6AA      α(0)
     1   7 N        1.774    -0.267    27.758     7.802
     2   6 C        2.826     0.101    25.758     8.316
     3   6 C        3.907     0.007    20.406     6.421
     4   6 C        2.974     0.003    27.962     8.674
     5   6 C        2.921    -0.080    29.992     8.981
     6   6 C        2.863     0.130    25.153     8.221
     7   8 O        1.706    -0.229    17.805     5.697
     8   6 C        3.645     0.027    20.449     6.499
     9   6 C        2.864     0.129    25.179     8.225
    10   8 O        1.706    -0.228    17.788     5.694
    11   6 C        3.645     0.027    20.455     6.500
    12   6 C        2.914    -0.075    29.870     8.962
    13   6 C        2.921    -0.054    29.333     8.882
    14   6 C        3.812    -0.065    21.739     6.636
    15   6 C        3.802    -0.069    21.819     6.650
    16   6 C        2.844     0.008    27.842     8.648
    17   7 N        2.729     0.011    21.068     6.817
    18   6 C        3.756    -0.016    20.920     6.521
    19   6 C        3.808    -0.070    21.841     6.653
    20   6 C        2.969    -0.000    28.033     8.685
    21   6 C        2.922    -0.049    29.213     8.863
    22   6 C        2.914    -0.067    29.680     8.934
    23   6 C        2.865     0.134    25.078     8.209
    24   8 O        1.706    -0.222    17.678     5.677
    25   6 C        3.645     0.025    20.490     6.505
    26   6 C        2.863     0.133    25.086     8.210
    27   8 O        1.706    -0.224    17.724     5.684
    28   6 C        3.645     0.027    20.453     6.500
    29   6 C        2.919    -0.080    29.989     8.980
    30   6 C        3.699    -0.071    22.024     6.712
    31   6 C        3.853    -0.008    20.681     6.468
    32   6 C        3.755    -0.119    22.838     6.814
    33   6 C        3.756    -0.118    22.812     6.810
    34   1 H        0.926     0.052     2.291     2.367
    35   1 H        0.924     0.054     2.271     2.357
    36   1 H        0.925     0.081     1.965     2.192
    37   1 H        0.924     0.048     2.350     2.397
    38   1 H        0.924     0.055     2.258     2.350
    39   1 H        0.925     0.081     1.966     2.193
    40   1 H        0.924     0.048     2.348     2.396
    41   1 H        0.926     0.052     2.300     2.372
    42   1 H        0.926     0.038     2.480     2.463
    43   1 H        0.925     0.060     2.197     2.318
    44   1 H        0.924     0.054     2.269     2.355
    45   1 H        0.925     0.066     2.131     2.283
    46   1 H        0.924     0.080     1.980     2.200
    47   1 H        0.922     0.007     2.943     2.683
    48   1 H        0.926     0.070     2.090     2.261
    49   1 H        0.924     0.067     2.115     2.274
    50   1 H        0.924     0.067     2.117     2.275
    51   1 H        0.924     0.055     2.257     2.349
    52   1 H        0.924     0.056     2.250     2.346
    53   1 H        0.926     0.045     2.382     2.414
    54   1 H        0.926     0.059     2.215     2.327
    55   1 H        0.924     0.054     2.267     2.354
    56   1 H        0.924     0.056     2.247     2.344
    57   1 H        0.925     0.082     1.953     2.186
    58   1 H        0.925     0.082     1.959     2.189
    59   1 H        0.924     0.049     2.337     2.391
    60   1 H        0.924     0.053     2.289     2.366
    61   1 H        0.926     0.047     2.356     2.400
    62   1 H        0.924     0.076     2.018     2.222
    63   1 H        0.924     0.080     1.978     2.199
    64   1 H        0.925     0.080     1.982     2.202
    65   1 H        0.924     0.038     2.482     2.464
    66   1 H        0.925     0.071     2.077     2.254
    67   1 H        0.925     0.035     2.523     2.484
    68   1 H        0.925     0.051     2.307     2.375
    69   1 H        0.925     0.055     2.254     2.348
    70   1 H        0.925     0.036     2.505     2.475
    71   1 H        0.925     0.056     2.244     2.342
    72   1 H        0.860     0.157     1.353     1.822

Wiberg/Mayer (AO) data.
largest (>0.10) Wiberg bond orders for each atom

     #   Z sym  total        # sym  WBO       # sym  WBO       # sym  WBO
 ---------------------------------------------------------------------------
     1   7 N    3.042 --     2 C    1.957    72 H    0.942
     2   6 C    3.927 --     1 N    1.957     3 C    0.995    47 H    0.897
     3   6 C    3.976 --     2 C    0.995     4 C    0.969    14 C    0.958
                            31 C    0.943
     4   6 C    3.950 --    13 C    1.415     5 C    1.368     3 C    0.969
     5   6 C    3.962 --     6 C    1.401     4 C    1.368    34 H    0.957
     6   6 C    3.906 --     5 C    1.401     9 C    1.222     7 O    1.100
     7   8 O    2.255 --     6 C    1.100     8 C    0.978
     8   6 C    3.932 --     7 O    0.978    36 H    0.977    35 H    0.974
                            37 H    0.973
     9   6 C    3.902 --    12 C    1.393     6 C    1.222    10 O    1.102
    10   8 O    2.253 --     9 C    1.102    11 C    0.978
    11   6 C    3.931 --    10 O    0.978    39 H    0.977    40 H    0.974
                            38 H    0.973
    12   6 C    3.962 --    13 C    1.402     9 C    1.393    41 H    0.964
    13   6 C    3.955 --     4 C    1.415    12 C    1.402    42 H    0.963
    14   6 C    3.972 --    15 C    0.981    44 H    0.973    43 H    0.969
                             3 C    0.958
    15   6 C    3.987 --    16 C    1.060    14 C    0.981    45 H    0.962
                            46 H    0.928
    16   6 C    3.597 --    17 N    1.400    15 C    1.060    48 H    0.957
    17   7 N    3.480 --    16 C    1.400    30 C    0.998    18 C    0.988
    18   6 C    3.955 --    17 N    0.988    50 H    0.968    19 C    0.967
                            49 H    0.964
    19   6 C    3.976 --    20 C    1.008    52 H    0.972    51 H    0.972
                            18 C    0.967
    20   6 C    3.944 --    21 C    1.409    29 C    1.380    19 C    1.008
    21   6 C    3.950 --    22 C    1.417    20 C    1.409    53 H    0.968
    22   6 C    3.959 --    21 C    1.417    23 C    1.383    54 H    0.963
    23   6 C    3.895 --    22 C    1.383    26 C    1.219    24 O    1.111
    24   8 O    2.255 --    23 C    1.111    25 C    0.976
    25   6 C    3.928 --    57 H    0.977    24 O    0.976    55 H    0.973
                            56 H    0.973
    26   6 C    3.899 --    29 C    1.395    23 C    1.219    27 O    1.104
    27   8 O    2.255 --    26 C    1.104    28 C    0.978
    28   6 C    3.932 --    27 O    0.978    58 H    0.977    59 H    0.973
                            60 H    0.973
    29   6 C    3.959 --    26 C    1.395    20 C    1.380    61 H    0.962
    30   6 C    3.957 --    17 N    0.998    64 H    0.978    62 H    0.966
                            63 H    0.960
    31   6 C    3.972 --    33 C    1.009    32 C    1.008    65 H    0.960
                             3 C    0.943
    32   6 C    3.977 --    31 C    1.008    67 H    0.982    68 H    0.981
                            66 H    0.972
    33   6 C    3.984 --    31 C    1.009    70 H    0.984    71 H    0.980
                            69 H    0.978
    34   1 H    0.996 --     5 C    0.957
    35   1 H    0.993 --     8 C    0.974
    36   1 H    0.993 --     8 C    0.977
    37   1 H    0.994 --     8 C    0.973
    38   1 H    0.993 --    11 C    0.973
    39   1 H    0.993 --    11 C    0.977
    40   1 H    0.993 --    11 C    0.974
    41   1 H    0.996 --    12 C    0.964
    42   1 H    0.998 --    13 C    0.963
    43   1 H    0.995 --    14 C    0.969
    44   1 H    0.996 --    14 C    0.973
    45   1 H    0.995 --    15 C    0.962
    46   1 H    0.970 --    15 C    0.928
    47   1 H    0.987 --     2 C    0.897
    48   1 H    0.995 --    16 C    0.957
    49   1 H    0.991 --    18 C    0.964
    50   1 H    0.994 --    18 C    0.968
    51   1 H    0.996 --    19 C    0.972
    52   1 H    0.996 --    19 C    0.972
    53   1 H    0.997 --    21 C    0.968
    54   1 H    0.995 --    22 C    0.963
    55   1 H    0.992 --    25 C    0.973
    56   1 H    0.992 --    25 C    0.973
    57   1 H    0.992 --    25 C    0.977
    58   1 H    0.993 --    28 C    0.977
    59   1 H    0.993 --    28 C    0.973
    60   1 H    0.993 --    28 C    0.973
    61   1 H    0.997 --    29 C    0.962
    62   1 H    0.985 --    30 C    0.966
    63   1 H    0.987 --    30 C    0.960
    64   1 H    0.993 --    30 C    0.978
    65   1 H    0.992 --    31 C    0.960
    66   1 H    0.990 --    32 C    0.972
    67   1 H    0.997 --    32 C    0.982
    68   1 H    0.994 --    32 C    0.981
    69   1 H    0.994 --    33 C    0.978
    70   1 H    0.997 --    33 C    0.984
    71   1 H    0.994 --    33 C    0.980
    72   1 H    0.970 --     1 N    0.942
 ---------------------------------------------------------------------------

molecular dipole:
                 x           y           z       tot (Debye)
 q only:        0.681      -0.051      -0.818
   full:        0.981      -0.101      -0.989       3.551

           -------------------------------------------------
          | TOTAL ENERGY              -99.406346391141 Eh   |
          | GRADIENT NORM               0.008767692655 Eh/α |
          | HOMO-LUMO GAP               1.671220969344 eV   |
           -------------------------------------------------

 * finished run on 2024/04/06 at 11:14:58.949
