   * xtb version 6.6.1 (8d0f1dd) compiled by 'conda@1efc2f54142f' on 2023-08-01
          program call               : xtb struc.xyz --opt loose --input .xc1 --gfn2

   ID    Z sym.   atoms
    1    7 N      1, 17
    2    6 C      2-6, 8, 9, 11-16, 18-23, 25, 26, 28-33
    3    8 O      7, 10, 24, 27
    4    1 H      34-72
constraining bond 16 18 to    5.0000000 Å, actual value:    2.4007352 Å

          :  Hamiltonian                  GFN2-xTB          :
 * total energy  :   -98.1977938 Eh     change       -0.4035485E-08 Eh
 * total energy  :   -98.4776278 Eh     change       -0.2798341E+00 Eh
 * total energy  :   -98.6652074 Eh     change       -0.1875796E+00 Eh
 * total energy  :   -98.8084149 Eh     change       -0.1432075E+00 Eh
 * total energy  :   -98.9349212 Eh     change       -0.1265063E+00 Eh
 * total energy  :   -99.0156685 Eh     change       -0.8074728E-01 Eh
 * total energy  :   -99.0687638 Eh     change       -0.5309528E-01 Eh
 * total energy  :   -99.1166944 Eh     change       -0.4793066E-01 Eh
 * total energy  :   -99.1693301 Eh     change       -0.5263565E-01 Eh
 * total energy  :   -99.2111667 Eh     change       -0.4183661E-01 Eh
 * total energy  :   -99.3459332 Eh     change       -0.4181545E-03 Eh
 * total energy  :   -99.3462619 Eh     change       -0.3287208E-03 Eh
 * total energy  :   -99.3465066 Eh     change       -0.2446649E-03 Eh
 * total energy  :   -99.3466809 Eh     change       -0.1742457E-03 Eh
 * total energy  :   -99.3467881 Eh     change       -0.1072873E-03 Eh
 * total energy  :   -99.3468816 Eh     change       -0.9341474E-04 Eh
 * total energy  :   -99.3469500 Eh     change       -0.6848143E-04 Eh
 * total energy  :   -99.3470069 Eh     change       -0.5689025E-04 Eh
 * total energy  :   -99.3470556 Eh     change       -0.4870548E-04 Eh
   *** GEOMETRY OPTIMIZATION CONVERGED AFTER 38 ITERATIONS ***

 final structure:
================
72
 xtb: 6.6.1 (8d0f1dd)
N           -2.02184441881274        3.10796828144079        1.83541727849431
C           -2.12735358128055        2.30197892394017        0.88459679526188
C           -3.40439656413197        2.05698776171377        0.12520251235778
C           -3.78158497190780        0.58924963626683        0.22644429866223
C           -4.76280660811788        0.06188014945615       -0.61448630753413
C           -5.15578022783366       -1.26399949475575       -0.52567398515882
O           -6.09243841455264       -1.85349399700458       -1.29450250158093
C           -6.79035744622569       -1.08587378896075       -2.24688255606956
C           -4.54914314223799       -2.11042825448743        0.44347970112175
O           -4.99256319452980       -3.38198479945097        0.45884065392921
C           -4.50232377859852       -4.26880646971032        1.43722252744777
C           -3.58010254173765       -1.57717384664441        1.27985084719368
C           -3.20537135742943       -0.24538972221569        1.17359921524136
C           -3.09861871827655        2.44646551711298       -1.34827522529567
C           -2.24848129249685        1.43559955973504       -2.12917839781579
C           -0.79344147055841        1.47337725346659       -1.76542752053861
N           -0.00680041193232        0.53805342348204       -1.47184140186685
C            3.20303304430759       -0.50008056655718        0.49507318282592
C            3.37545926187359       -0.87037501010786       -0.91856478521051
C            4.61704560369140       -0.42884711725578       -0.11873075026077
C            5.17577214645876        0.87649475740439       -0.39477788696123
C            6.51305428199842        1.11688310339857       -0.28620891061037
C            7.40967741966473        0.10807006084794        0.10510403263775
O            8.72522808620739        0.25070986897955        0.24501890540175
C            9.34027584450705        1.48969515693790       -0.03210970484036
C            6.90202364450343       -1.20824348175130        0.38532193530100
O            7.84587073479670       -2.10150478972159        0.74011340092842
C            7.46241798237202       -3.43453415785518        0.99211474698074
C            5.56546378696591       -1.45898027090085        0.27498023261196
C           -0.37204800580272       -0.84181850911247       -1.36547727176293
C           -4.60802758579696        2.89276652086580        0.65296096514974
C           -4.95691527850754        2.52425469078472        2.09318712669885
C           -4.39049772005109        4.39962610424440        0.54797620393630
H           -5.23123188325904        0.70052901927168       -1.34505202979236
H           -7.33276320373911       -0.25976139315909       -1.77696093142006
H           -7.50235854863637       -1.76882012799431       -2.70606626473825
H           -6.11874559674216       -0.69326769928114       -3.01721325363577
H           -4.70658255473795       -3.90236962618166        2.44765010444073
H           -5.03584743311588       -5.20377325289392        1.27730123890684
H           -3.42757805632144       -4.44034131753501        1.32069919008663
H           -3.11173405386913       -2.19216267866401        2.03099381925783
H           -2.46589225515936        0.14034470867123        1.85782552929267
H           -4.04701055244840        2.57666838032004       -1.87293973439475
H           -2.58891318606793        3.41247795968480       -1.35127983846900
H           -2.65286507318888        0.42870037439162       -2.02226697605858
H           -2.29845369205605        1.70583248326966       -3.18998241432652
H           -1.28084822558433        1.73203433453150        0.47736115448250
H           -0.34349271805768        2.46384702243117       -1.80077493713219
H            3.04471019286172       -1.27138814316174        1.23211156353081
H            2.73771345402133        0.44411931411035        0.72953170475183
H            3.01959787255653       -0.18769683851359       -1.67432294104710
H            3.34010622729960       -1.91035815099945       -1.20026629412316
H            4.50570237929471        1.66652618050385       -0.69558810417120
H            6.88940876670220        2.10349251576633       -0.50506564296807
H            8.96149027316368        2.28104710266625        0.62234902557211
H            9.19977998186049        1.77986878106782       -1.07827767214060
H           10.40154384076482        1.33918156550091        0.16230790408366
H            8.38726924154123       -3.96995291404593        1.19395947573731
H            6.80388324531224       -3.50235136699873        1.86355416869727
H            6.96678036072879       -3.87665607756372        0.12357039561623
H            5.16984370244315       -2.43981517789305        0.48267870375553
H           -0.19770390563303       -1.33227807765368       -2.32618387175991
H           -1.41321582598345       -1.00976905157831       -1.06754260747193
H            0.29011495852058       -1.29511351976229       -0.62759707187756
H           -5.46583396401629        2.62824637502175        0.02274404384212
H           -4.13649950504427        2.78850673294139        2.75382501882944
H           -5.16174113605142        1.46033851985654        2.19056627406169
H           -5.84202448048825        3.07276784557002        2.40594341050967
H           -3.51916779110323        4.69249774476287        1.12605246113121
H           -4.26333005199730        4.72157090393449       -0.48206836664779
H           -5.25777482017918        4.91430061234900        0.95351986194800
H           -1.10424549310991        3.22858996616031        2.25180138957072

          :  Hamiltonian                  GFN2-xTB          :
         :: total energy             -99.347055635096 Eh    ::
         :: gradient norm              0.003901471547 Eh/a0 ::
         :: HOMO-LUMO gap              1.424895262135 eV    ::
         :: SCC energy              -100.735708537583 Eh    ::
         :: -> dispersion             -0.071138866006 Eh    ::
         :: repulsion energy           1.387341894071 Eh    ::

    * Orbital Energies and Occupations

         #    Occupation            Energy/Eh            Energy/eV
      -------------------------------------------------------------
         1        2.0000           -0.8257281             -22.4692
       ...           ...                  ...                  ...
        78        1.9975           -0.5262937             -14.3212
        79        1.9972           -0.5244101             -14.2699
        80        1.9969           -0.5228582             -14.2277
        81        1.9956           -0.5173542             -14.0779
        82        1.9951           -0.5156373             -14.0312
        83        1.9930           -0.5097808             -13.8718
        84        1.9917           -0.5070688             -13.7980
        85        1.9903           -0.5046746             -13.7329
        86        1.9703           -0.4867282             -13.2445
        87        1.9598           -0.4818888             -13.1129
        88        1.8966           -0.4663925             -12.6912
        89        1.8794           -0.4638091             -12.6209
        90        1.8098           -0.4559954             -12.4083 (HOMO)
        91        0.5168           -0.4036315             -10.9834 (LUMO)
        92        0.0094           -0.3356059              -9.1323
        93        0.0055           -0.3271274              -8.9016
        94        0.0038           -0.3211005              -8.7376
        95        0.0022           -0.3126332              -8.5072
        96        0.0018           -0.3095689              -8.4238
        97        0.0000           -0.2457637              -6.6876
        98        0.0000           -0.1871503              -5.0926
        99                         -0.1362545              -3.7077
       100                         -0.0743398              -2.0229
       101                         -0.0660907              -1.7984
       ...                                ...                  ...
       171                          0.5749550              15.6453
      -------------------------------------------------------------
                  HL-Gap            0.0523639 Eh            1.4249 eV

     #   Z          covCN         q      C6AA      α(0)
     1   7 N        1.774    -0.267    27.741     7.799
     2   6 C        2.828     0.102    25.729     8.312
     3   6 C        3.907     0.009    20.376     6.416
     4   6 C        2.975     0.008    27.832     8.654
     5   6 C        2.920    -0.076    29.903     8.967
     6   6 C        2.862     0.132    25.114     8.214
     7   8 O        1.706    -0.225    17.733     5.686
     8   6 C        3.644     0.027    20.459     6.502
     9   6 C        2.864     0.131    25.122     8.216
    10   8 O        1.706    -0.223    17.705     5.681
    11   6 C        3.645     0.026    20.468     6.502
    12   6 C        2.913    -0.070    29.733     8.941
    13   6 C        2.921    -0.045    29.127     8.850
    14   6 C        3.811    -0.059    21.624     6.619
    15   6 C        3.801    -0.073    21.887     6.661
    16   6 C        2.834     0.072    26.371     8.415
    17   7 N        1.820    -0.210    26.397     7.613
    18   6 C        3.806    -0.055    21.551     6.609
    19   6 C        3.806    -0.056    21.576     6.613
    20   6 C        3.920     0.035    19.920     6.343
    21   6 C        2.909    -0.034    28.847     8.807
    22   6 C        2.903    -0.064    29.583     8.918
    23   6 C        2.863     0.143    24.881     8.176
    24   8 O        1.706    -0.191    17.185     5.597
    25   6 C        3.644     0.018    20.610     6.525
    26   6 C        2.853     0.135    25.041     8.202
    27   8 O        1.706    -0.229    17.795     5.696
    28   6 C        3.646     0.024    20.506     6.508
    29   6 C        2.907    -0.078    29.940     8.972
    30   6 C        3.700    -0.031    21.281     6.597
    31   6 C        3.853    -0.007    20.670     6.466
    32   6 C        3.756    -0.117    22.792     6.807
    33   6 C        3.755    -0.119    22.838     6.814
    34   1 H        0.926     0.055     2.259     2.351
    35   1 H        0.924     0.055     2.259     2.351
    36   1 H        0.925     0.082     1.957     2.188
    37   1 H        0.924     0.051     2.310     2.377
    38   1 H        0.924     0.056     2.246     2.344
    39   1 H        0.925     0.082     1.959     2.189
    40   1 H        0.924     0.052     2.301     2.372
    41   1 H        0.926     0.055     2.263     2.353
    42   1 H        0.926     0.045     2.387     2.416
    43   1 H        0.924     0.054     2.271     2.357
    44   1 H        0.924     0.051     2.311     2.377
    45   1 H        0.924     0.051     2.307     2.375
    46   1 H        0.924     0.065     2.137     2.286
    47   1 H        0.923     0.021     2.717     2.578
    48   1 H        0.925     0.052     2.299     2.371
    49   1 H        0.926     0.064     2.155     2.296
    50   1 H        0.926     0.067     2.115     2.274
    51   1 H        0.926     0.075     2.029     2.228
    52   1 H        0.926     0.066     2.128     2.281
    53   1 H        0.926     0.065     2.137     2.286
    54   1 H        0.926     0.068     2.108     2.270
    55   1 H        0.924     0.064     2.153     2.294
    56   1 H        0.924     0.065     2.147     2.291
    57   1 H        0.925     0.091     1.870     2.139
    58   1 H        0.925     0.085     1.925     2.170
    59   1 H        0.924     0.053     2.277     2.360
    60   1 H        0.924     0.053     2.283     2.363
    61   1 H        0.926     0.063     2.169     2.303
    62   1 H        0.924     0.061     2.191     2.315
    63   1 H        0.924     0.035     2.522     2.484
    64   1 H        0.925     0.057     2.237     2.339
    65   1 H        0.924     0.038     2.477     2.461
    66   1 H        0.925     0.067     2.123     2.279
    67   1 H        0.925     0.034     2.524     2.485
    68   1 H        0.925     0.051     2.301     2.372
    69   1 H        0.925     0.066     2.127     2.281
    70   1 H        0.925     0.038     2.479     2.462
    71   1 H        0.925     0.054     2.269     2.356
    72   1 H        0.860     0.158     1.350     1.820

Wiberg/Mayer (AO) data.
largest (>0.10) Wiberg bond orders for each atom

     #   Z sym  total        # sym  WBO       # sym  WBO       # sym  WBO
 ---------------------------------------------------------------------------
     1   7 N    3.011 --     2 C    1.952    72 H    0.940
     2   6 C    3.938 --     1 N    1.952     3 C    0.992    47 H    0.920
     3   6 C    3.969 --     2 C    0.992     4 C    0.975    14 C    0.951
                            31 C    0.943
     4   6 C    3.935 --    13 C    1.402     5 C    1.372     3 C    0.975
     5   6 C    3.955 --     6 C    1.395     4 C    1.372    34 H    0.958
     6   6 C    3.891 --     5 C    1.395     9 C    1.215     7 O    1.104
     7   8 O    2.249 --     6 C    1.104     8 C    0.977
     8   6 C    3.930 --     7 O    0.977    36 H    0.977    35 H    0.973
                            37 H    0.973
     9   6 C    3.885 --    12 C    1.384     6 C    1.215    10 O    1.107
    10   8 O    2.247 --     9 C    1.107    11 C    0.977
    11   6 C    3.929 --    10 O    0.977    39 H    0.977    38 H    0.973
                            40 H    0.973
    12   6 C    3.955 --    13 C    1.413     9 C    1.384    41 H    0.963
    13   6 C    3.940 --    12 C    1.413     4 C    1.402    42 H    0.962
    14   6 C    3.984 --    15 C    0.992    44 H    0.971    43 H    0.966
                             3 C    0.951
    15   6 C    3.972 --    16 C    1.004    14 C    0.992    45 H    0.962
                            46 H    0.943
    16   6 C    3.950 --    17 N    1.885    15 C    1.004    48 H    0.948
    17   7 N    3.042 --    16 C    1.885    30 C    1.036
    18   6 C    3.860 --    19 C    1.030    49 H    0.975    50 H    0.975
                            20 C    0.820
    19   6 C    3.861 --    18 C    1.030    52 H    0.974    51 H    0.973
                            20 C    0.823
    20   6 C    3.937 --    21 C    1.124    29 C    1.105    19 C    0.823
                            18 C    0.820
    21   6 C    3.793 --    22 C    1.573    20 C    1.124    53 H    0.966
    22   6 C    3.979 --    21 C    1.573    23 C    1.286    54 H    0.960
    23   6 C    3.743 --    22 C    1.286    24 O    1.165    26 C    1.153
    24   8 O    2.284 --    23 C    1.165    25 C    0.967
    25   6 C    3.920 --    57 H    0.976    56 H    0.971    55 H    0.971
                            24 O    0.967
    26   6 C    3.934 --    29 C    1.528    23 C    1.153    27 O    1.102
    27   8 O    2.266 --    26 C    1.102    28 C    0.975
    28   6 C    3.929 --    58 H    0.976    27 O    0.975    60 H    0.974
                            59 H    0.974
    29   6 C    3.830 --    26 C    1.528    20 C    1.105    61 H    0.961
    30   6 C    3.974 --    17 N    1.036    64 H    0.973    63 H    0.962
                            62 H    0.958
    31   6 C    3.968 --    33 C    1.008    32 C    1.008    65 H    0.958
                             3 C    0.943
    32   6 C    3.975 --    31 C    1.008    67 H    0.981    68 H    0.981
                            66 H    0.973
    33   6 C    3.974 --    31 C    1.008    70 H    0.982    71 H    0.979
                            69 H    0.972
    34   1 H    0.995 --     5 C    0.958
    35   1 H    0.992 --     8 C    0.973
    36   1 H    0.992 --     8 C    0.977
    37   1 H    0.992 --     8 C    0.973
    38   1 H    0.991 --    11 C    0.973
    39   1 H    0.992 --    11 C    0.977
    40   1 H    0.991 --    11 C    0.973
    41   1 H    0.995 --    12 C    0.963
    42   1 H    0.997 --    13 C    0.962
    43   1 H    0.994 --    14 C    0.966
    44   1 H    0.996 --    14 C    0.971
    45   1 H    0.996 --    15 C    0.962
    46   1 H    0.994 --    15 C    0.943
    47   1 H    0.975 --     2 C    0.920
    48   1 H    0.990 --    16 C    0.948
    49   1 H    0.994 --    18 C    0.975
    50   1 H    0.993 --    18 C    0.975
    51   1 H    0.992 --    19 C    0.973
    52   1 H    0.993 --    19 C    0.974
    53   1 H    0.995 --    21 C    0.966
    54   1 H    0.994 --    22 C    0.960
    55   1 H    0.990 --    25 C    0.971
    56   1 H    0.990 --    25 C    0.971
    57   1 H    0.991 --    25 C    0.976
    58   1 H    0.992 --    28 C    0.976
    59   1 H    0.994 --    28 C    0.974
    60   1 H    0.995 --    28 C    0.974
    61   1 H    0.995 --    29 C    0.961
    62   1 H    0.994 --    30 C    0.958
    63   1 H    0.988 --    30 C    0.962
    64   1 H    0.992 --    30 C    0.973
    65   1 H    0.989 --    31 C    0.958
    66   1 H    0.990 --    32 C    0.973
    67   1 H    0.996 --    32 C    0.981
    68   1 H    0.993 --    32 C    0.981
    69   1 H    0.990 --    33 C    0.972
    70   1 H    0.996 --    33 C    0.982
    71   1 H    0.992 --    33 C    0.979
    72   1 H    0.967 --     1 N    0.940
 ---------------------------------------------------------------------------

molecular dipole:
                 x           y           z       tot (Debye)
 q only:        2.281      -0.073      -0.375
   full:        2.221      -0.185      -0.612       5.874

           -------------------------------------------------
          | TOTAL ENERGY              -99.347055635096 Eh   |
          | GRADIENT NORM               0.003901471547 Eh/α |
          | HOMO-LUMO GAP               1.424895262135 eV   |
           -------------------------------------------------

 * finished run on 2024/04/06 at 11:13:19.554
