   * xtb version 6.6.1 (8d0f1dd) compiled by 'conda@1efc2f54142f' on 2023-08-01
          program call               : xtb struc.xyz --opt loose --input .xc1 --gfn2

   ID    Z sym.   atoms
    1    6 C      1, 3, 5-7, 10, 11, 14
    2    7 N      2, 4, 9, 13
    3    8 O      8, 12
    4    1 H      15-25
constraining bond 6 25 to    5.1400000 Å, actual value:    3.1881491 Å

          :  Hamiltonian                  GFN2-xTB          :
 * total energy  :   -35.4429028 Eh     change       -0.6633627E-10 Eh
 * total energy  :   -38.4895061 Eh     change       -0.3046603E+01 Eh
 * total energy  :   -40.4917921 Eh     change       -0.2002286E+01 Eh
 * total energy  :   -41.5042144 Eh     change       -0.1012422E+01 Eh
 * total energy  :   -41.8302013 Eh     change       -0.3259869E+00 Eh
 * total energy  :   -41.8700785 Eh     change       -0.3987719E-01 Eh
 * total energy  :   -41.8917053 Eh     change       -0.2162673E-01 Eh
 * total energy  :   -41.9310670 Eh     change       -0.3936176E-01 Eh
 * total energy  :   -41.9553373 Eh     change       -0.2427026E-01 Eh
 * total energy  :   -42.0008149 Eh     change       -0.4547765E-01 Eh
 * total energy  :   -42.0978495 Eh     change       -0.1528095E-02 Eh
 * total energy  :   -42.0987520 Eh     change       -0.9024875E-03 Eh
 * total energy  :   -42.0996134 Eh     change       -0.8613994E-03 Eh
 * total energy  :   -42.1000934 Eh     change       -0.4800233E-03 Eh
 * total energy  :   -42.1004502 Eh     change       -0.3567539E-03 Eh
 * total energy  :   -42.1019356 Eh     change       -0.1485458E-02 Eh
 * total energy  :   -42.1024326 Eh     change       -0.4969592E-03 Eh
 * total energy  :   -42.1025138 Eh     change       -0.8120654E-04 Eh
 * total energy  :   -42.1025553 Eh     change       -0.4154466E-04 Eh
   *** GEOMETRY OPTIMIZATION CONVERGED AFTER 25 ITERATIONS ***

 final structure:
================
25
 xtb: 6.6.1 (8d0f1dd)
C            3.21856718508913        1.19926880200643        0.01870409087048
N            2.22687765956936        0.16208441923627        0.00125812421001
C            2.45508060833268       -1.18090411018480       -0.00498505362768
N            1.35693485372375       -1.89433361718070       -0.00488888463986
C            0.34824577779474       -0.98814313019557        0.00283315299166
C            0.88261536883507        0.31679390691954        0.00809393761882
C            0.03778482057141        1.49366551163449       -0.00183481353974
O            0.42619242181534        2.63735063430298       -0.01612663903105
N           -1.31324915970960        1.15056602835148        0.00244624662362
C           -2.28543703047053        2.23363740897603       -0.00276912069690
C           -1.86330050065248       -0.11975894499142        0.00552769020951
O           -3.04934382254856       -0.30277730504346        0.00828238979524
N           -0.97075171355782       -1.21538567852644        0.00395329980535
C           -1.50021816978182       -2.55415742059092       -0.00102223176007
H            3.72273527729718        1.22097281951938        0.98715082629637
H            3.96381673987574        1.01590795163467       -0.75561326766319
H            2.73529461002116        2.16109692252385       -0.15053277972195
H            3.44160877710355       -1.60236542041518       -0.01066387547603
H           -1.74671678484776        3.17771515589098        0.00544183783916
H           -2.91343624851173        2.16267761959428       -0.89141665466981
H           -2.92986280835863        2.15510568097935        0.87326104514712
H           -1.14300403110171       -3.09468826285517        0.87640026120706
H           -1.15973952480268       -3.08200635426253       -0.89278968764180
H           -2.58741026587756       -2.49602410305830        0.00898410099459
H            1.80714747429170       -4.73805997266536       -0.03852237724095

          :  Hamiltonian                  GFN2-xTB          :
         :: total energy             -42.102555334870 Eh    ::
         :: gradient norm              0.001321309681 Eh/a0 ::
         :: HOMO-LUMO gap              0.278226431512 eV    ::
         :: SCC energy               -42.614748583490 Eh    ::
         :: -> dispersion             -0.022482144749 Eh    ::
         :: repulsion energy           0.512097531504 Eh    ::

    * Orbital Energies and Occupations

         #    Occupation            Energy/Eh            Energy/eV
      -------------------------------------------------------------
         1        2.0000           -0.8925447             -24.2874
       ...           ...                  ...                  ...
        25        2.0000           -0.6645226             -18.0826
        26        2.0000           -0.6566321             -17.8679
        27        2.0000           -0.6398753             -17.4119
        28        2.0000           -0.6390941             -17.3906
        29        1.9999           -0.6279532             -17.0875
        30        1.9996           -0.6144169             -16.7191
        31        1.9993           -0.6094062             -16.5828
        32        1.9989           -0.6057179             -16.4824
        33        1.9954           -0.5944408             -16.1756
        34        1.9772           -0.5816782             -15.8283
        35        1.9436           -0.5743643             -15.6292
        36        1.9288           -0.5724636             -15.5775
        37        1.3886           -0.5528319             -15.0433 (HOMO)
        38        0.7686           -0.5426073             -14.7651 (LUMO)
        39        0.0000           -0.4288538             -11.6697
        40                         -0.3869644             -10.5298
        41                         -0.3733159             -10.1584
        42                         -0.2937541              -7.9935
        43                         -0.2039818              -5.5506
        44                         -0.1582705              -4.3068
        45                         -0.1347293              -3.6662
        46                         -0.0813758              -2.2143
        47                         -0.0552199              -1.5026
        48                         -0.0348803              -0.9491
       ...                                ...                  ...
        67                          0.5457851              14.8516
      -------------------------------------------------------------
                  HL-Gap            0.0102246 Eh            0.2782 eV

     #   Z          covCN         q      C6AA      α(0)
     1   6 C        3.689    -0.083    22.278     6.755
     2   7 N        2.830     0.053    20.311     6.693
     3   6 C        3.193     0.100    25.315     8.205
     4   7 N        1.889    -0.225    26.758     7.669
     5   6 C        3.178     0.136    24.664     8.109
     6   6 C        3.110    -0.002    27.920     8.657
     7   6 C        2.762     0.274    22.366     7.745
     8   8 O        0.858    -0.337    20.461     6.065
     9   7 N        2.745    -0.075    22.696     7.076
    10   6 C        3.710    -0.063    21.849     6.680
    11   6 C        2.727     0.317    21.609     7.610
    12   8 O        0.860    -0.334    20.398     6.055
    13   7 N        2.738    -0.013    21.512     6.889
    14   6 C        3.701    -0.074    22.090     6.721
    15   1 H        0.924     0.109     1.706     2.042
    16   1 H        0.924     0.106     1.735     2.060
    17   1 H        0.925     0.125     1.577     1.964
    18   1 H        0.926     0.107     1.723     2.053
    19   1 H        0.925     0.117     1.639     2.002
    20   1 H        0.924     0.107     1.722     2.052
    21   1 H        0.924     0.107     1.718     2.050
    22   1 H        0.924     0.112     1.680     2.027
    23   1 H        0.924     0.112     1.680     2.027
    24   1 H        0.925     0.128     1.547     1.945
    25   1 H        0.000     0.196     2.795     3.057

Wiberg/Mayer (AO) data.
largest (>0.10) Wiberg bond orders for each atom

     #   Z sym  total        # sym  WBO       # sym  WBO       # sym  WBO
 ---------------------------------------------------------------------------
     1   6 C    3.914 --     2 N    0.994    17 H    0.964    16 H    0.959
                            15 H    0.948
     2   7 N    3.639 --     6 C    1.255     3 C    1.234     1 C    0.994
     3   6 C    3.859 --     4 N    1.523     2 N    1.234    18 H    0.956
     4   7 N    3.015 --     3 C    1.523     5 C    1.250
     5   6 C    3.890 --     4 N    1.250    13 N    1.242     6 C    1.231
     6   6 C    3.796 --     2 N    1.255     5 C    1.231     7 C    1.062
     7   6 C    3.952 --     8 O    1.693     9 N    1.104     6 C    1.062
     8   8 O    1.992 --     7 C    1.693     9 N    0.137
     9   7 N    3.537 --    11 C    1.123     7 C    1.104    10 C    0.972
                             8 O    0.137    12 O    0.128
    10   6 C    3.893 --     9 N    0.972    19 H    0.967    21 H    0.954
                            20 H    0.954
    11   6 C    3.952 --    12 O    1.706     9 N    1.123    13 N    1.034
    12   8 O    2.005 --    11 C    1.706     9 N    0.128
    13   7 N    3.470 --     5 C    1.242    11 C    1.034    14 C    0.989
    14   6 C    3.896 --    13 N    0.989    24 H    0.965    22 H    0.946
                            23 H    0.946
    15   1 H    0.976 --     1 C    0.948
    16   1 H    0.981 --     1 C    0.959
    17   1 H    0.983 --     1 C    0.964
    18   1 H    0.987 --     3 C    0.956
    19   1 H    0.985 --    10 C    0.967
    20   1 H    0.972 --    10 C    0.954
    21   1 H    0.973 --    10 C    0.954
    22   1 H    0.964 --    14 C    0.946
    23   1 H    0.963 --    14 C    0.946
    24   1 H    0.983 --    14 C    0.965
    25   1 H    0.040
 ---------------------------------------------------------------------------

molecular dipole:
                 x           y           z       tot (Debye)
 q only:        1.820      -2.114       0.004
   full:        2.112      -1.989       0.011       7.373

           -------------------------------------------------
          | TOTAL ENERGY              -42.102555334870 Eh   |
          | GRADIENT NORM               0.001321309681 Eh/α |
          | HOMO-LUMO GAP               0.278226431512 eV   |
           -------------------------------------------------

 * finished run on 2024/06/05 at 19:58:00.773
