   * xtb version 6.6.1 (8d0f1dd) compiled by 'conda@1efc2f54142f' on 2023-08-01
          program call               : xtb xtbopt.xyz --opt crude --input .xc2 --gfn2

   ID    Z sym.   atoms
    1    6 C      1, 3, 5-7, 10, 11, 14
    2    7 N      2, 4, 9, 13
    3    8 O      8, 12
    4    1 H      15-25

          :  Hamiltonian                  GFN2-xTB          :
 * total energy  :   -42.1025574 Eh     change        0.4476419E-12 Eh
 * total energy  :   -42.1031782 Eh     change       -0.6207783E-03 Eh
 * total energy  :   -42.1047022 Eh     change       -0.1524019E-02 Eh
 * total energy  :   -42.1091967 Eh     change       -0.4494435E-02 Eh
 * total energy  :   -42.1235888 Eh     change       -0.1439213E-01 Eh
 * total energy  :   -42.1694877 Eh     change       -0.4589887E-01 Eh
 * total energy  :   -42.2390342 Eh     change       -0.6954654E-01 Eh
 * total energy  :   -42.2387557 Eh     change        0.2785203E-03 Eh
 * total energy  :   -42.2447472 Eh     change       -0.5991513E-02 Eh
 * total energy  :   -42.2448730 Eh     change       -0.1257730E-03 Eh
 * total energy  :   -42.2451131 Eh     change       -0.2401541E-03 Eh
 * total energy  :   -42.2452647 Eh     change       -0.1515691E-03 Eh
   *** GEOMETRY OPTIMIZATION CONVERGED AFTER 12 ITERATIONS ***

 final structure:
================
25
 xtb: 6.6.1 (8d0f1dd)
C            3.21915395233526        1.13354051651335        0.01790117157504
N            2.26929486347051        0.05257553830576        0.00086391971953
C            2.54193067158727       -1.23813541402803       -0.00714537368994
N            1.39470534974621       -1.94959761324995       -0.00757352476026
C            0.35209895313020       -1.06907792935618        0.00040202638754
C            0.90580703170758        0.19875878277502        0.00616923496790
C            0.07503701484255        1.39659369910083       -0.00244979426854
O            0.48956543716100        2.52849299729696       -0.01526846872441
N           -1.27347523651176        1.06768305793435        0.00113692480385
C           -2.23163391769867        2.16831491946563       -0.00269332423462
C           -1.84961652688195       -0.19123562638721        0.00391537132046
O           -3.03357762905806       -0.36136860135599        0.00690987204365
N           -0.96753984007054       -1.29929286634112        0.00125492833858
C           -1.52180809401965       -2.64048152200316       -0.00237208476938
H            3.72001376534277        1.17884741797944        0.98568213272406
H            3.96794826165862        0.99106477961557       -0.75988531307552
H            2.68530484415520        2.06944512800485       -0.14646954634024
H            3.52739652336656       -1.66389049730197       -0.01323541505553
H           -1.67422080100517        3.10111230598462        0.00599784477362
H           -2.85617644422009        2.10912183352508       -0.89276621185294
H           -2.87137262604151        2.10054016375496        0.87581740634914
H           -1.20593702308345       -3.18742543744120        0.88625264938201
H           -1.22224904249363       -3.17640930558407       -0.90333618894486
H           -2.60689220222992       -2.54418262530523        0.00787969801696
H            1.32667422891162       -2.95675516030365       -0.01581631678703

          :  Hamiltonian                  GFN2-xTB          :
         :: total energy             -42.245264697767 Eh    ::
         :: gradient norm              0.002958826618 Eh/a0 ::
         :: HOMO-LUMO gap              3.238253451128 eV    ::
         :: SCC energy               -42.777151136574 Eh    ::
         :: -> dispersion             -0.022661893039 Eh    ::
         :: repulsion energy           0.531772491636 Eh    ::

    * Orbital Energies and Occupations

         #    Occupation            Energy/Eh            Energy/eV
      -------------------------------------------------------------
         1        2.0000           -0.9221437             -25.0928
       ...           ...                  ...                  ...
        25        2.0000           -0.6685854             -18.1931
        26        2.0000           -0.6638614             -18.0646
        27        2.0000           -0.6555990             -17.8398
        28        2.0000           -0.6380937             -17.3634
        29        2.0000           -0.6307027             -17.1623
        30        2.0000           -0.6251310             -17.0107
        31        2.0000           -0.6246027             -16.9963
        32        2.0000           -0.6188596             -16.8400
        33        2.0000           -0.5946442             -16.1811
        34        1.9999           -0.5765059             -15.6875
        35        1.9996           -0.5615353             -15.2802
        36        1.9994           -0.5585616             -15.1992
        37        1.9993           -0.5575185             -15.1709 (HOMO)
        38        0.0017           -0.4385149             -11.9326 (LUMO)
        39        0.0000           -0.4059551             -11.0466
        40        0.0000           -0.3719880             -10.1223
        41                         -0.2881360              -7.8406
        42                         -0.2064870              -5.6188
        43                         -0.2013572              -5.4792
        44                         -0.1471332              -4.0037
        45                         -0.1316997              -3.5837
        46                         -0.0848114              -2.3078
        47                         -0.0489378              -1.3317
        48                         -0.0374402              -1.0188
       ...                                ...                  ...
        67                          0.5638822              15.3440
      -------------------------------------------------------------
                  HL-Gap            0.1190036 Eh            3.2383 eV

     #   Z          covCN         q      C6AA      α(0)
     1   6 C        3.692    -0.098    22.560     6.796
     2   7 N        2.840     0.096    19.587     6.573
     3   6 C        3.069     0.056    26.667     8.467
     4   7 N        2.805    -0.056    22.328     7.018
     5   6 C        3.046     0.117    25.382     8.263
     6   6 C        3.138    -0.026    28.419     8.725
     7   6 C        2.764     0.276    22.331     7.739
     8   8 O        0.858    -0.367    21.041     6.150
     9   7 N        2.745    -0.086    22.919     7.110
    10   6 C        3.711    -0.063    21.841     6.679
    11   6 C        2.727     0.319    21.583     7.606
    12   8 O        0.859    -0.355    20.806     6.116
    13   7 N        2.738    -0.061    22.414     7.031
    14   6 C        3.696    -0.072    22.062     6.719
    15   1 H        0.924     0.113     1.672     2.022
    16   1 H        0.925     0.108     1.710     2.045
    17   1 H        0.925     0.141     1.452     1.885
    18   1 H        0.926     0.130     1.536     1.938
    19   1 H        0.925     0.111     1.685     2.030
    20   1 H        0.925     0.096     1.819     2.109
    21   1 H        0.925     0.097     1.815     2.107
    22   1 H        0.924     0.081     1.970     2.195
    23   1 H        0.924     0.081     1.968     2.194
    24   1 H        0.925     0.129     1.545     1.944
    25   1 H        0.860     0.233     0.952     1.529

Wiberg/Mayer (AO) data.
largest (>0.10) Wiberg bond orders for each atom

     #   Z sym  total        # sym  WBO       # sym  WBO       # sym  WBO
 ---------------------------------------------------------------------------
     1   6 C    3.911 --     2 N    0.982    16 H    0.963    17 H    0.959
                            15 H    0.954
     2   7 N    3.736 --     3 C    1.429     6 C    1.174     1 C    0.982
     3   6 C    3.928 --     2 N    1.429     4 N    1.284    18 H    0.951
     4   7 N    3.610 --     3 C    1.284     5 C    1.188    25 H    0.917
     5   6 C    3.962 --     6 C    1.358    13 N    1.227     4 N    1.188
     6   6 C    3.934 --     5 C    1.358     2 N    1.174     7 C    1.049
     7   6 C    3.966 --     8 O    1.702     9 N    1.121     6 C    1.049
     8   8 O    2.072 --     7 C    1.702     9 N    0.161
     9   7 N    3.578 --     7 C    1.121    11 C    1.120    10 C    0.965
                             8 O    0.161    12 O    0.138
    10   6 C    3.920 --    19 H    0.970    21 H    0.968    20 H    0.968
                             9 N    0.965
    11   6 C    3.960 --    12 O    1.723     9 N    1.120    13 N    1.025
    12   8 O    2.084 --    11 C    1.723     9 N    0.138    13 N    0.124
    13   7 N    3.567 --     5 C    1.227    11 C    1.025    14 C    0.973
                            12 O    0.124
    14   6 C    3.926 --    13 N    0.973    22 H    0.972    23 H    0.972
                            24 H    0.964
    15   1 H    0.987 --     1 C    0.954
    16   1 H    0.988 --     1 C    0.963
    17   1 H    0.980 --     1 C    0.959
    18   1 H    0.982 --     3 C    0.951
    19   1 H    0.987 --    10 C    0.970
    20   1 H    0.990 --    10 C    0.968
    21   1 H    0.990 --    10 C    0.968
    22   1 H    0.992 --    14 C    0.972
    23   1 H    0.992 --    14 C    0.972
    24   1 H    0.983 --    14 C    0.964
    25   1 H    0.945 --     4 N    0.917
 ---------------------------------------------------------------------------

molecular dipole:
                 x           y           z       tot (Debye)
 q only:        2.753      -2.067       0.007
   full:        3.060      -2.606       0.011      10.217

           -------------------------------------------------
          | TOTAL ENERGY              -42.245264697767 Eh   |
          | GRADIENT NORM               0.002958826618 Eh/α |
          | HOMO-LUMO GAP               3.238253451128 eV   |
           -------------------------------------------------

 * finished run on 2024/06/05 at 19:58:01.273
