   * xtb version 6.6.1 (8d0f1dd) compiled by 'conda@1efc2f54142f' on 2023-08-01
          program call               : xtb struc.xyz --opt loose --input .xc1 --gfn2

   ID    Z sym.   atoms
    1    6 C      1, 3, 5-7, 10, 11, 14
    2    7 N      2, 4, 9, 13
    3    8 O      8, 12
    4    1 H      15-25
constraining bond 2 17 to    4.0600000 Å, actual value:    2.0658315 Å

          :  Hamiltonian                  GFN2-xTB          :
 * total energy  :   -28.0467785 Eh     change       -0.6650680E-10 Eh
 * total energy  :   -35.0454196 Eh     change       -0.6998641E+01 Eh
 * total energy  :   -39.0018910 Eh     change       -0.3956471E+01 Eh
 * total energy  :   -41.0309465 Eh     change       -0.2029055E+01 Eh
 * total energy  :   -41.5744769 Eh     change       -0.5435304E+00 Eh
 * total energy  :   -41.6849846 Eh     change       -0.1105077E+00 Eh
 * total energy  :   -41.7241940 Eh     change       -0.3920946E-01 Eh
 * total energy  :   -41.8523996 Eh     change       -0.1282056E+00 Eh
 * total energy  :   -41.8966504 Eh     change       -0.4425079E-01 Eh
 * total energy  :   -41.9216432 Eh     change       -0.2499276E-01 Eh
 * total energy  :   -42.1985614 Eh     change       -0.1842690E-03 Eh
 * total energy  :   -42.1986894 Eh     change       -0.1279705E-03 Eh
 * total energy  :   -42.1987664 Eh     change       -0.7705987E-04 Eh
 * total energy  :   -42.1988651 Eh     change       -0.9866708E-04 Eh
 * total energy  :   -42.1989296 Eh     change       -0.6453565E-04 Eh
 * total energy  :   -42.1989900 Eh     change       -0.6039034E-04 Eh
 * total energy  :   -42.1990456 Eh     change       -0.5562460E-04 Eh
 * total energy  :   -42.1990790 Eh     change       -0.3339040E-04 Eh
 * total energy  :   -42.1991067 Eh     change       -0.2770297E-04 Eh
   *** GEOMETRY OPTIMIZATION CONVERGED AFTER 91 ITERATIONS ***

 final structure:
================
25
 xtb: 6.6.1 (8d0f1dd)
C            3.41838332555545        0.71162551210879       -0.06384251955915
N            2.45532889767899       -0.19523420164443       -0.03326200531592
C            2.58083410525446       -1.54337944445633       -0.01549226303818
N            1.34148651465245       -2.13194708221347        0.01281374562084
C            0.41007357846739       -1.16695005033794        0.01358918249899
C            1.07425567849127        0.07603034041729       -0.01517464297317
C            0.31915481906267        1.24742535993387       -0.01899906651459
O            0.85752409577108        2.45914251774999       -0.04961293341313
N           -1.04846981270219        1.09708951302027        0.01107187615152
C           -1.88836418077059        2.28791543423263        0.02288729025466
C           -1.73115858735996       -0.13203590912556        0.02268297192599
O           -2.92949548628599       -0.18566593163007        0.02848268693584
N           -0.94326990323972       -1.27654680322064        0.02860511829280
C           -1.58789620495125       -2.57602509142508        0.04823515377013
H            3.16175646461966        1.74991820606387       -0.07776784108629
H            4.43916199246438        0.38672855116065       -0.07434572675768
H            0.19564243571928        3.17629692412551       -0.05630068749409
H            3.50700195901773       -2.07358663379533       -0.02011986073367
H           -1.67798767577505        2.90506241309391        0.89943957921043
H           -1.76903779956605        2.86256723941609       -0.89911536895226
H           -2.92443856593244        1.95273889323740        0.08227191220219
H           -1.32263325933613       -3.11747335316351        0.95706692840850
H           -1.30039305866447       -3.15420437414750       -0.83052213207094
H           -2.66410881832386       -2.41343685145367        0.03166972008431
H            1.18708100025186       -3.12781663634742        0.02691050045412

          :  Hamiltonian                  GFN2-xTB          :
         :: total energy             -42.199106736589 Eh    ::
         :: gradient norm              0.002844581294 Eh/a0 ::
         :: HOMO-LUMO gap              1.421569210942 eV    ::
         :: SCC energy               -42.719335450002 Eh    ::
         :: -> dispersion             -0.023001221498 Eh    ::
         :: repulsion energy           0.520106781027 Eh    ::

    * Orbital Energies and Occupations

         #    Occupation            Energy/Eh            Energy/eV
      -------------------------------------------------------------
         1        2.0000           -0.8974787             -24.4216
       ...           ...                  ...                  ...
        25        2.0000           -0.6645044             -18.0821
        26        2.0000           -0.6595644             -17.9477
        27        2.0000           -0.6564025             -17.8616
        28        2.0000           -0.6498468             -17.6832
        29        2.0000           -0.6456989             -17.5704
        30        2.0000           -0.6225282             -16.9399
        31        1.9999           -0.6185084             -16.8305
        32        1.9999           -0.6086780             -16.5630
        33        1.9998           -0.6034865             -16.4217
        34        1.9996           -0.5900391             -16.0558
        35        1.9991           -0.5748596             -15.6427
        36        1.9966           -0.5544263             -15.0867
        37        1.6668           -0.4788481             -13.0301 (HOMO)
        38        0.3117           -0.4266064             -11.6086 (LUMO)
        39        0.0235           -0.3831801             -10.4269
        40        0.0031           -0.3509222              -9.5491
        41        0.0001           -0.2885197              -7.8510
        42        0.0000           -0.2083542              -5.6696
        43                         -0.1668230              -4.5395
        44                         -0.1365185              -3.7149
        45                         -0.1229918              -3.3468
        46                         -0.1147678              -3.1230
        47                         -0.0646824              -1.7601
        48                         -0.0461143              -1.2548
       ...                                ...                  ...
        67                          0.5307631              14.4428
      -------------------------------------------------------------
                  HL-Gap            0.0522417 Eh            1.4216 eV

     #   Z          covCN         q      C6AA      α(0)
     1   6 C        2.790    -0.103    30.579     9.058
     2   7 N        2.795     0.117    19.243     6.515
     3   6 C        3.028    -0.009    28.217     8.713
     4   7 N        2.768    -0.061    22.423     7.033
     5   6 C        3.020     0.099    25.791     8.330
     6   6 C        3.084    -0.020    28.411     8.738
     7   6 C        2.773     0.200    23.741     7.980
     8   8 O        1.659    -0.328    19.508     5.962
     9   7 N        2.743    -0.085    22.894     7.106
    10   6 C        3.701    -0.072    22.035     6.712
    11   6 C        2.722     0.315    21.642     7.616
    12   8 O        0.859    -0.372    21.123     6.162
    13   7 N        2.737    -0.058    22.354     7.022
    14   6 C        3.698    -0.071    22.033     6.713
    15   1 H        0.927     0.099     1.792     2.094
    16   1 H        0.926     0.088     1.895     2.153
    17   1 H        0.804     0.353     0.582     1.198
    18   1 H        0.927     0.105     1.743     2.064
    19   1 H        0.924     0.082     1.957     2.188
    20   1 H        0.924     0.083     1.952     2.185
    21   1 H        0.924     0.130     1.534     1.937
    22   1 H        0.924     0.083     1.944     2.180
    23   1 H        0.924     0.083     1.952     2.185
    24   1 H        0.925     0.124     1.584     1.968
    25   1 H        0.860     0.218     1.018     1.581

Wiberg/Mayer (AO) data.
largest (>0.10) Wiberg bond orders for each atom

     #   Z sym  total        # sym  WBO       # sym  WBO       # sym  WBO
 ---------------------------------------------------------------------------
     1   6 C    3.581 --     2 N    1.348    16 H    0.970    15 H    0.968
                             3 C    0.162
     2   7 N    3.733 --     1 C    1.348     3 C    1.232     6 C    1.064
     3   6 C    3.681 --     2 N    1.232     4 N    1.176    18 H    0.960
                             1 C    0.162
     4   7 N    3.550 --     5 C    1.261     3 C    1.176    25 H    0.924
     5   6 C    3.849 --     4 N    1.261     6 C    1.234    13 N    1.162
     6   6 C    3.906 --     7 C    1.308     5 C    1.234     2 N    1.064
     7   6 C    3.749 --     6 C    1.308     9 N    1.163     8 O    1.161
     8   8 O    2.177 --     7 C    1.161    17 H    0.836
     9   7 N    3.498 --     7 C    1.163    11 C    1.064    10 C    0.977
                            12 O    0.127
    10   6 C    3.928 --     9 N    0.977    19 H    0.967    20 H    0.967
                            21 H    0.959
    11   6 C    3.944 --    12 O    1.698    13 N    1.091     9 N    1.064
    12   8 O    2.058 --    11 C    1.698    13 N    0.134     9 N    0.127
    13   7 N    3.510 --     5 C    1.162    11 C    1.091    14 C    0.974
                            12 O    0.134
    14   6 C    3.927 --    13 N    0.974    23 H    0.971    22 H    0.970
                            24 H    0.966
    15   1 H    0.990 --     1 C    0.968
    16   1 H    0.991 --     1 C    0.970
    17   1 H    0.875 --     8 O    0.836
    18   1 H    0.988 --     3 C    0.960
    19   1 H    0.989 --    10 C    0.967
    20   1 H    0.989 --    10 C    0.967
    21   1 H    0.983 --    10 C    0.959
    22   1 H    0.989 --    14 C    0.970
    23   1 H    0.989 --    14 C    0.971
    24   1 H    0.984 --    14 C    0.966
    25   1 H    0.952 --     4 N    0.924
 ---------------------------------------------------------------------------

molecular dipole:
                 x           y           z       tot (Debye)
 q only:        1.423      -0.490       0.000
   full:        1.506      -0.575      -0.000       4.097

           -------------------------------------------------
          | TOTAL ENERGY              -42.199106736589 Eh   |
          | GRADIENT NORM               0.002844581294 Eh/α |
          | HOMO-LUMO GAP               1.421569210942 eV   |
           -------------------------------------------------

 * finished run on 2024/06/05 at 19:59:09.611
