   * xtb version 6.6.1 (8d0f1dd) compiled by 'conda@1efc2f54142f' on 2023-08-01
          program call               : xtb xtbopt.xyz --opt crude --input .xc2 --gfn2

   ID    Z sym.   atoms
    1    6 C      1, 3, 5-7, 10, 11, 14
    2    7 N      2, 4, 9, 13
    3    8 O      8, 12
    4    1 H      15-25

          :  Hamiltonian                  GFN2-xTB          :
 * total energy  :   -42.1043521 Eh     change       -0.2865619E-10 Eh
   *** GEOMETRY OPTIMIZATION CONVERGED AFTER 1 ITERATIONS ***

 final structure:
================
25
 xtb: 6.6.1 (8d0f1dd)
C            3.21290602109626        1.12741834562029        0.06233582473445
N            2.28248042877759        0.03073282096882        0.02955334361025
C            2.58064537604032       -1.26512155046440        0.06353780540991
N            1.44381612547541       -1.99880550422873        0.02465992236680
C            0.38800614046404       -1.13911975670575       -0.03553415943617
C            0.91009209636263        0.14835681569780       -0.03155826717913
C            0.08367944495722        1.31534271424769       -0.10280266699961
O            0.43729514455699        2.47316508985034       -0.11571573115895
N           -1.30910552583509        0.96562679734164       -0.16784189181084
C           -2.18720246959570        1.97504925760192       -0.24450322098648
C           -1.84387908444278       -0.35587984495743       -0.17037178545352
O           -3.02721255217220       -0.54578080550620       -0.22981010556663
N           -0.93240135681601       -1.40696017713239       -0.09304562046633
C           -1.43317524828589       -2.76906753475823       -0.10852401327640
H            3.71467982428186        1.17040561497054        1.02989907153186
H            3.96429365593760        1.00875659028617       -0.71784449266808
H            2.66559664316262        2.05603544307354       -0.09441817668633
H            3.57058604508490       -1.67297558890896        0.11144137846114
H           -1.79798007219219        2.97644582694141       -0.25853337075194
H           -3.23585716902694        1.74992876551189       -0.29766571765702
H           -3.00562774341353        4.29523959771419        1.68312262720463
H           -1.10312210140948       -3.30393196315199        0.78111724947272
H           -1.09876434746020       -3.28727657160375       -1.00795111870059
H           -2.52100141002543       -2.72150052175264       -0.11202805771452
H            1.40168364857792       -3.00784531905568        0.03365279162090

          :  Hamiltonian                  GFN2-xTB          :
         :: total energy             -42.104352054521 Eh    ::
         :: gradient norm              0.002049246048 Eh/a0 ::
         :: HOMO-LUMO gap              0.219382563211 eV    ::
         :: SCC energy               -42.624966408749 Eh    ::
         :: -> dispersion             -0.022674890253 Eh    ::
         :: repulsion energy           0.520521768838 Eh    ::

    * Orbital Energies and Occupations

         #    Occupation            Energy/Eh            Energy/eV
      -------------------------------------------------------------
         1        2.0000           -0.9113281             -24.7985
       ...           ...                  ...                  ...
        25        2.0000           -0.6713623             -18.2687
        26        2.0000           -0.6692165             -18.2103
        27        2.0000           -0.6630890             -18.0436
        28        1.9999           -0.6327306             -17.2175
        29        1.9999           -0.6302275             -17.1494
        30        1.9999           -0.6278544             -17.0848
        31        1.9998           -0.6190854             -16.8462
        32        1.9997           -0.6144573             -16.7202
        33        1.9997           -0.6130822             -16.6828
        34        1.9982           -0.5854817             -15.9318
        35        1.9940           -0.5666829             -15.4202
        36        1.9901           -0.5586447             -15.2015
        37        1.0672           -0.4767845             -12.9740 (HOMO)
        38        0.8149           -0.4687223             -12.7546 (LUMO)
        39        0.1163           -0.4305555             -11.7160
        40        0.0173           -0.3995877             -10.8733
        41        0.0031           -0.3722747             -10.1301
        42        0.0000           -0.2876715              -7.8279
        43                         -0.2083938              -5.6707
        44                         -0.1971672              -5.3652
        45                         -0.1508480              -4.1048
        46                         -0.1454618              -3.9582
        47                         -0.0788557              -2.1458
        48                         -0.0544305              -1.4811
       ...                                ...                  ...
        67                          0.5479451              14.9103
      -------------------------------------------------------------
                  HL-Gap            0.0080622 Eh            0.2194 eV

     #   Z          covCN         q      C6AA      α(0)
     1   6 C        3.691    -0.094    22.493     6.787
     2   7 N        2.830     0.077    19.894     6.625
     3   6 C        3.049     0.047    26.899     8.506
     4   7 N        2.792    -0.058    22.354     7.022
     5   6 C        3.040     0.106    25.626     8.303
     6   6 C        3.109    -0.023    28.435     8.736
     7   6 C        2.776     0.254    22.729     7.808
     8   8 O        0.857    -0.363    20.952     6.137
     9   7 N        2.741    -0.031    21.838     6.940
    10   6 C        2.816    -0.022    28.536     8.752
    11   6 C        2.737     0.309    21.757     7.637
    12   8 O        0.859    -0.350    20.700     6.100
    13   7 N        2.737    -0.049    22.194     6.997
    14   6 C        3.699    -0.074    22.078     6.720
    15   1 H        0.924     0.107     1.721     2.052
    16   1 H        0.925     0.105     1.742     2.064
    17   1 H        0.925     0.135     1.500     1.916
    18   1 H        0.926     0.124     1.583     1.968
    19   1 H        0.926     0.135     1.499     1.915
    20   1 H        0.926     0.131     1.531     1.935
    21   1 H        0.000     0.010     7.209     4.909
    22   1 H        0.925     0.084     1.943     2.180
    23   1 H        0.924     0.085     1.933     2.174
    24   1 H        0.925     0.127     1.555     1.950
    25   1 H        0.860     0.229     0.970     1.543

Wiberg/Mayer (AO) data.
largest (>0.10) Wiberg bond orders for each atom

     #   Z sym  total        # sym  WBO       # sym  WBO       # sym  WBO
 ---------------------------------------------------------------------------
     1   6 C    3.916 --     2 N    0.986    16 H    0.963    17 H    0.962
                            15 H    0.957
     2   7 N    3.649 --     3 C    1.379     6 C    1.146     1 C    0.986
     3   6 C    3.821 --     2 N    1.379     4 N    1.267    18 H    0.953
     4   7 N    3.580 --     3 C    1.267     5 C    1.194    25 H    0.919
     5   6 C    3.900 --     6 C    1.328     4 N    1.194    13 N    1.190
     6   6 C    3.909 --     5 C    1.328     2 N    1.146     7 C    1.116
     7   6 C    3.869 --     8 O    1.674     6 C    1.116     9 N    0.987
     8   8 O    1.958 --     7 C    1.674     9 N    0.107
     9   7 N    3.615 --    10 C    1.346    11 C    1.014     7 C    0.987
                             8 O    0.107
    10   6 C    3.356 --     9 N    1.346    20 H    0.960    19 H    0.956
    11   6 C    3.905 --    12 O    1.709    13 N    1.087     9 N    1.014
    12   8 O    2.021 --    11 C    1.709    13 N    0.135
    13   7 N    3.565 --     5 C    1.190    11 C    1.087    14 C    0.971
                            12 O    0.135
    14   6 C    3.924 --    22 H    0.972    23 H    0.971    13 N    0.971
                            24 H    0.965
    15   1 H    0.984 --     1 C    0.957
    16   1 H    0.985 --     1 C    0.963
    17   1 H    0.982 --     1 C    0.962
    18   1 H    0.984 --     3 C    0.953
    19   1 H    0.981 --    10 C    0.956
    20   1 H    0.982 --    10 C    0.960
    21   1 H    0.017
    22   1 H    0.991 --    14 C    0.972
    23   1 H    0.990 --    14 C    0.971
    24   1 H    0.983 --    14 C    0.965
    25   1 H    0.947 --     4 N    0.919
 ---------------------------------------------------------------------------

molecular dipole:
                 x           y           z       tot (Debye)
 q only:        2.378      -2.022       0.027
   full:        2.616      -2.469       0.050       9.143

           -------------------------------------------------
          | TOTAL ENERGY              -42.104352054521 Eh   |
          | GRADIENT NORM               0.002049246048 Eh/α |
          | HOMO-LUMO GAP               0.219382563211 eV   |
           -------------------------------------------------

 * finished run on 2024/06/05 at 19:59:19.288
