   * xtb version 6.6.1 (8d0f1dd) compiled by 'conda@1efc2f54142f' on 2023-08-01
          program call               : xtb xtbopt.xyz --opt crude --input .xc2 --gfn2

   ID    Z sym.   atoms
    1    6 C      1, 3, 5-7, 10, 11, 14
    2    7 N      2, 4, 9, 13
    3    8 O      8, 12
    4    1 H      15-25
########################################################################
[WARNING] Please study the warnings concerning your input carefully
-1- readin_getIntValue: could not parse ''
########################################################################

          :  Hamiltonian                  GFN2-xTB          :
 * total energy  :   -42.1884176 Eh     change       -0.7744916E-12 Eh
   *** GEOMETRY OPTIMIZATION CONVERGED AFTER 1 ITERATIONS ***

 final structure:
================
25
 xtb: 6.6.1 (8d0f1dd)
C            3.10374743405171        1.21870459696388       -0.05334453911370
N            2.17676062165481        0.12010498642021       -0.06575146294919
C            2.50027894242008       -1.18711859213810       -0.06572676045402
N            1.37199705580680       -1.93411927979845       -0.03233362607118
C            0.30534951593395       -1.09277912803678       -0.00560613418102
C            0.80147264864650        0.21627164845164       -0.02623972589717
C           -0.08245152655383        1.28902828640596       -0.02049094115840
O            0.32053586419099        2.57342088413996        0.00150748522438
N           -1.43156344447221        1.00515599211516       -0.02163796584542
C           -2.35331761552018        1.98092544100101       -0.06338163903930
C           -1.94681540706534       -0.33689241861298        0.06009601516466
O           -3.13000882324114       -0.53128156741763        0.11456631457747
N           -1.02279679019704       -1.36510245420126        0.05780594139098
C           -1.50150072130533       -2.73484367444376        0.09526732289466
H            3.51148700657958        1.36494738300061        0.94906649885252
H            3.92459914097462        1.02099402938652       -0.74089379546209
H            2.58399020184170        2.12480332803364       -0.35489948224948
H            3.49529352400272       -1.57713742555390       -0.09280149301799
H           -0.42563427612962        3.13269557221885        0.27622156657337
H           -2.10730707179338        2.98613638108417       -0.34261168845643
H           -3.37264903604762        1.70487827312047        0.07696545400079
H           -1.14308330265778       -3.23544778828463        0.99497605676409
H           -1.17196363673094       -3.27503057246364       -0.79252135722060
H           -2.58972962014953       -2.70763492310866        0.11232311111290
H            1.34374082986070       -2.94244043668196       -0.02938353754015

          :  Hamiltonian                  GFN2-xTB          :
         :: total energy             -42.188417596234 Eh    ::
         :: gradient norm              0.006432597839 Eh/a0 ::
         :: HOMO-LUMO gap              1.468507338611 eV    ::
         :: SCC energy               -42.710647364997 Eh    ::
         :: -> dispersion             -0.022964389225 Eh    ::
         :: repulsion energy           0.522113134690 Eh    ::

    * Orbital Energies and Occupations

         #    Occupation            Energy/Eh            Energy/eV
      -------------------------------------------------------------
         1        2.0000           -0.8908010             -24.2399
       ...           ...                  ...                  ...
        25        2.0000           -0.6675184             -18.1641
        26        2.0000           -0.6610621             -17.9884
        27        2.0000           -0.6581655             -17.9096
        28        2.0000           -0.6446032             -17.5405
        29        2.0000           -0.6258067             -17.0291
        30        2.0000           -0.6221711             -16.9301
        31        2.0000           -0.6173563             -16.7991
        32        1.9999           -0.6110632             -16.6279
        33        1.9999           -0.6049850             -16.4625
        34        1.9999           -0.6023575             -16.3910
        35        1.9992           -0.5713942             -15.5484
        36        1.9972           -0.5521301             -15.0242
        37        1.6653           -0.4737643             -12.8918 (HOMO)
        38        0.2828           -0.4197977             -11.4233 (LUMO)
        39        0.0446           -0.3885054             -10.5718
        40        0.0113           -0.3664697              -9.9721
        41        0.0001           -0.2818397              -7.6692
        42        0.0000           -0.1972710              -5.3680
        43        0.0000           -0.1824754              -4.9654
        44                         -0.1441384              -3.9222
        45                         -0.1239645              -3.3732
        46                         -0.1025038              -2.7893
        47                         -0.0639879              -1.7412
        48                         -0.0427601              -1.1636
       ...                                ...                  ...
        67                          0.5347677              14.5518
      -------------------------------------------------------------
                  HL-Gap            0.0539667 Eh            1.4685 eV

     #   Z          covCN         q      C6AA      α(0)
     1   6 C        3.690    -0.087    22.360     6.767
     2   7 N        2.822     0.050    20.363     6.702
     3   6 C        3.033     0.031    27.285     8.568
     4   7 N        2.779    -0.057    22.349     7.021
     5   6 C        3.045     0.084    26.098     8.379
     6   6 C        3.085     0.001    27.900     8.659
     7   6 C        2.787     0.150    24.733     8.146
     8   8 O        1.659    -0.365    20.186     6.065
     9   7 N        2.741    -0.011    21.474     6.882
    10   6 C        2.815    -0.086    30.144     8.996
    11   6 C        2.740     0.303    21.850     7.653
    12   8 O        0.859    -0.360    20.893     6.128
    13   7 N        2.736    -0.050    22.217     7.001
    14   6 C        3.700    -0.072    22.046     6.715
    15   1 H        0.924     0.098     1.801     2.099
    16   1 H        0.925     0.097     1.811     2.105
    17   1 H        0.925     0.118     1.629     1.996
    18   1 H        0.927     0.113     1.672     2.022
    19   1 H        0.804     0.342     0.608     1.225
    20   1 H        0.926     0.079     1.988     2.205
    21   1 H        0.927     0.112     1.683     2.029
    22   1 H        0.925     0.083     1.949     2.183
    23   1 H        0.924     0.082     1.961     2.190
    24   1 H        0.925     0.124     1.578     1.964
    25   1 H        0.860     0.223     0.998     1.565

Wiberg/Mayer (AO) data.
largest (>0.10) Wiberg bond orders for each atom

     #   Z sym  total        # sym  WBO       # sym  WBO       # sym  WBO
 ---------------------------------------------------------------------------
     1   6 C    3.930 --     2 N    0.991    16 H    0.969    17 H    0.967
                            15 H    0.960
     2   7 N    3.591 --     3 C    1.300     6 C    1.133     1 C    0.991
     3   6 C    3.721 --     2 N    1.300     4 N    1.260    18 H    0.957
     4   7 N    3.565 --     3 C    1.260     5 C    1.199    25 H    0.922
     5   6 C    3.867 --     6 C    1.266     4 N    1.199    13 N    1.160
     6   6 C    3.939 --     7 C    1.279     5 C    1.266     2 N    1.133
     7   6 C    3.752 --     6 C    1.279     9 N    1.132     8 O    1.098
                            10 C    0.131
     8   8 O    2.101 --     7 C    1.098    19 H    0.837
     9   7 N    3.636 --    10 C    1.303     7 C    1.132    11 C    0.983
    10   6 C    3.537 --     9 N    1.303    21 H    0.963    20 H    0.958
                             7 C    0.131
    11   6 C    3.908 --    12 O    1.700    13 N    1.117     9 N    0.983
    12   8 O    2.032 --    11 C    1.700    13 N    0.146
    13   7 N    3.542 --     5 C    1.160    11 C    1.117    14 C    0.972
                            12 O    0.146
    14   6 C    3.927 --    13 N    0.972    23 H    0.972    22 H    0.971
                            24 H    0.966
    15   1 H    0.983 --     1 C    0.960
    16   1 H    0.987 --     1 C    0.969
    17   1 H    0.985 --     1 C    0.967
    18   1 H    0.986 --     3 C    0.957
    19   1 H    0.882 --     8 O    0.837
    20   1 H    0.992 --    10 C    0.958
    21   1 H    0.987 --    10 C    0.963
    22   1 H    0.990 --    14 C    0.971
    23   1 H    0.990 --    14 C    0.972
    24   1 H    0.984 --    14 C    0.966
    25   1 H    0.950 --     4 N    0.922
 ---------------------------------------------------------------------------

molecular dipole:
                 x           y           z       tot (Debye)
 q only:        2.213      -0.785       0.075
   full:        2.333      -0.934       0.093       6.391

           -------------------------------------------------
          | TOTAL ENERGY              -42.188417596234 Eh   |
          | GRADIENT NORM               0.006432597839 Eh/α |
          | HOMO-LUMO GAP               1.468507338611 eV   |
           -------------------------------------------------

 * finished run on 2024/06/05 at 20:00:20.382
