   * xtb version 6.6.1 (8d0f1dd) compiled by 'conda@1efc2f54142f' on 2023-08-01
          program call               : xtb struc.xyz --opt loose --input .xc1 --gfn2

   ID    Z sym.   atoms
    1    6 C      1, 3, 5-7, 10, 11, 14
    2    7 N      2, 4, 9, 13
    3    8 O      8, 12
    4    1 H      15-25
constraining bond 1 7 to    6.0000000 Å, actual value:    3.1529964 Å

          :  Hamiltonian                  GFN2-xTB          :
 * total energy  :   -27.7753539 Eh     change       -0.6650680E-10 Eh
 * total energy  :   -32.8011981 Eh     change       -0.5025844E+01 Eh
 * total energy  :   -36.5401046 Eh     change       -0.3738906E+01 Eh
 * total energy  :   -39.1818409 Eh     change       -0.2641736E+01 Eh
 * total energy  :   -40.7858894 Eh     change       -0.1604048E+01 Eh
 * total energy  :   -41.4046581 Eh     change       -0.6187687E+00 Eh
 * total energy  :   -41.5346941 Eh     change       -0.1300360E+00 Eh
 * total energy  :   -41.5994992 Eh     change       -0.6480514E-01 Eh
 * total energy  :   -41.6388834 Eh     change       -0.3938418E-01 Eh
 * total energy  :   -41.6538099 Eh     change       -0.1492653E-01 Eh
 * total energy  :   -42.0583531 Eh     change       -0.4036147E-03 Eh
 * total energy  :   -42.0599975 Eh     change       -0.1644348E-02 Eh
 * total energy  :   -42.0591838 Eh     change        0.8136319E-03 Eh
 * total energy  :   -42.0610889 Eh     change       -0.1905013E-02 Eh
 * total energy  :   -42.0613637 Eh     change       -0.2748234E-03 Eh
 * total energy  :   -42.0617682 Eh     change       -0.4045413E-03 Eh
 * total energy  :   -42.0618795 Eh     change       -0.1112803E-03 Eh
 * total energy  :   -42.0619312 Eh     change       -0.5172492E-04 Eh
 * total energy  :   -42.0619702 Eh     change       -0.3893272E-04 Eh
   *** GEOMETRY OPTIMIZATION CONVERGED AFTER 47 ITERATIONS ***

 final structure:
================
25
 xtb: 6.6.1 (8d0f1dd)
C            5.61687499896348        1.09025841911682        0.09817455328736
N            1.90923333961184        0.26584981977640       -0.02913924213217
C            2.27988233341597       -1.00805541326329       -0.02508959227321
N            1.17774508801200       -1.78941108716728       -0.01810437218572
C            0.07708257941424       -0.97783505514246       -0.01494353364742
C            0.53979992820688        0.32736137201214       -0.02217025905362
C           -0.36933707988908        1.46474562076224       -0.02340768444882
O           -0.03089671659324        2.62151287394511       -0.02326111044099
N           -1.69580142533780        1.04158529203082       -0.02167207255951
C           -2.72507122536414        2.07496259787886       -0.02651413961306
C           -2.18079356046266       -0.25312489766854       -0.01271195807175
O           -3.35166630155436       -0.50445090979243       -0.00889110386032
N           -1.22458753469806       -1.29984165516210       -0.00815363578716
C           -1.69153383184723       -2.67254718758008        0.00680313704623
H            6.02656478217639        1.35033605915279        1.06269242409345
H            6.22459244197625        1.23139685279846       -0.78554257404981
H            2.52551018246132        1.07080044854799       -0.02037336502243
H            3.29024163904403       -1.36656859865830       -0.02994990272813
H           -2.23029584354125        3.04288543635827       -0.03661914387869
H           -3.35572616446129        1.96209675505277       -0.90746495444609
H           -3.34975942836733        1.97793149545110        0.86054181756650
H           -1.34358126016003       -3.18604996095801        0.90329990138447
H           -1.35715810590469       -3.20158155209229       -0.88579111134344
H           -2.78074765238516       -2.64393160947193        0.01460982491519
H            1.17986033138263       -2.80008657432522       -0.01515028483560

          :  Hamiltonian                  GFN2-xTB          :
         :: total energy             -42.061970161932 Eh    ::
         :: gradient norm              0.002465860792 Eh/a0 ::
         :: HOMO-LUMO gap              0.920567454513 eV    ::
         :: SCC energy               -42.581527556686 Eh    ::
         :: -> dispersion             -0.020771368417 Eh    ::
         :: repulsion energy           0.519514122071 Eh    ::

    * Orbital Energies and Occupations

         #    Occupation            Energy/Eh            Energy/eV
      -------------------------------------------------------------
         1        2.0000           -0.9189239             -25.0052
       ...           ...                  ...                  ...
        25        2.0000           -0.6637708             -18.0621
        26        2.0000           -0.6627074             -18.0332
        27        1.9999           -0.6530014             -17.7691
        28        1.9998           -0.6298864             -17.1401
        29        1.9997           -0.6240991             -16.9826
        30        1.9995           -0.6183764             -16.8269
        31        1.9982           -0.5967759             -16.2391
        32        1.9979           -0.5948835             -16.1876
        33        1.9935           -0.5766250             -15.6908
        34        1.9826           -0.5609040             -15.2630
        35        1.9790           -0.5579001             -15.1812
        36        1.9776           -0.5569053             -15.1542
        37        1.4687           -0.5020348             -13.6611 (HOMO)
        38        0.4921           -0.4682045             -12.7405 (LUMO)
        39        0.0984           -0.4390355             -11.9468
        40        0.0117           -0.4045535             -11.0085
        41        0.0014           -0.3714436             -10.1075
        42        0.0000           -0.2869500              -7.8083
        43                         -0.2064713              -5.6184
        44                         -0.1960086              -5.3337
        45                         -0.1461801              -3.9778
        46                         -0.1257420              -3.4216
        47                         -0.0786911              -2.1413
        48                         -0.0393717              -1.0714
       ...                                ...                  ...
        67                          0.5626407              15.3102
      -------------------------------------------------------------
                  HL-Gap            0.0338302 Eh            0.9206 eV

     #   Z          covCN         q      C6AA      α(0)
     1   6 C        1.851    -0.157    35.624     9.641
     2   7 N        2.798    -0.004    21.333     6.860
     3   6 C        3.034     0.067    26.465     8.438
     4   7 N        2.801    -0.048    22.157     6.991
     5   6 C        3.042     0.117    25.386     8.264
     6   6 C        3.107    -0.012    28.158     8.694
     7   6 C        2.764     0.272    22.411     7.753
     8   8 O        0.858    -0.354    20.781     6.112
     9   7 N        2.745    -0.082    22.843     7.098
    10   6 C        3.710    -0.063    21.857     6.681
    11   6 C        2.727     0.317    21.607     7.610
    12   8 O        0.859    -0.353    20.763     6.109
    13   7 N        2.738    -0.057    22.341     7.020
    14   6 C        3.696    -0.074    22.089     6.723
    15   1 H        0.926     0.099     1.793     2.094
    16   1 H        0.925     0.100     1.785     2.089
    17   1 H        0.860     0.253     0.873     1.463
    18   1 H        0.926     0.136     1.487     1.907
    19   1 H        0.925     0.114     1.662     2.016
    20   1 H        0.925     0.100     1.788     2.091
    21   1 H        0.925     0.100     1.788     2.091
    22   1 H        0.925     0.083     1.952     2.185
    23   1 H        0.925     0.083     1.951     2.184
    24   1 H        0.925     0.130     1.539     1.940
    25   1 H        0.860     0.233     0.952     1.528

Wiberg/Mayer (AO) data.
largest (>0.10) Wiberg bond orders for each atom

     #   Z sym  total        # sym  WBO       # sym  WBO       # sym  WBO
 ---------------------------------------------------------------------------
     1   6 C    1.909 --    16 H    0.954    15 H    0.954
     2   7 N    3.627 --     3 C    1.398     6 C    1.177    17 H    0.908
     3   6 C    3.844 --     2 N    1.398     4 N    1.291    18 H    0.950
     4   7 N    3.595 --     3 C    1.291     5 C    1.183    25 H    0.918
     5   6 C    3.952 --     6 C    1.359    13 N    1.225     4 N    1.183
     6   6 C    3.909 --     5 C    1.359     2 N    1.177     7 C    1.052
     7   6 C    3.951 --     8 O    1.704     9 N    1.105     6 C    1.052
     8   8 O    2.044 --     7 C    1.704     9 N    0.153
     9   7 N    3.558 --    11 C    1.126     7 C    1.105    10 C    0.967
                             8 O    0.153    12 O    0.137
    10   6 C    3.910 --    19 H    0.968     9 N    0.967    20 H    0.964
                            21 H    0.964
    11   6 C    3.957 --    12 O    1.715     9 N    1.126    13 N    1.025
    12   8 O    2.066 --    11 C    1.715     9 N    0.137    13 N    0.121
    13   7 N    3.554 --     5 C    1.225    11 C    1.025    14 C    0.974
                            12 O    0.121
    14   6 C    3.923 --    13 N    0.974    22 H    0.971    23 H    0.971
                            24 H    0.963
    15   1 H    0.956 --     1 C    0.954
    16   1 H    0.956 --     1 C    0.954
    17   1 H    0.935 --     2 N    0.908
    18   1 H    0.980 --     3 C    0.950
    19   1 H    0.985 --    10 C    0.968
    20   1 H    0.984 --    10 C    0.964
    21   1 H    0.984 --    10 C    0.964
    22   1 H    0.990 --    14 C    0.971
    23   1 H    0.990 --    14 C    0.971
    24   1 H    0.983 --    14 C    0.963
    25   1 H    0.945 --     4 N    0.918
 ---------------------------------------------------------------------------

molecular dipole:
                 x           y           z       tot (Debye)
 q only:        2.258      -2.067      -0.009
   full:        3.031      -2.270       0.019       9.625

           -------------------------------------------------
          | TOTAL ENERGY              -42.061970161932 Eh   |
          | GRADIENT NORM               0.002465860792 Eh/α |
          | HOMO-LUMO GAP               0.920567454513 eV   |
           -------------------------------------------------

 * finished run on 2024/06/05 at 19:57:52.587
