   * xtb version 6.6.1 (8d0f1dd) compiled by 'conda@1efc2f54142f' on 2023-08-01
          program call               : xtb struc.xyz --opt loose --input .xc1 --gfn2

   ID    Z sym.   atoms
    1    7 N      1, 17
    2    6 C      2-6, 8, 9, 11-16, 18-23, 25, 26, 28-33
    3    8 O      7, 10, 24, 27
    4    1 H      34-72
constraining bond 33 66 to    5.1400000 Å, actual value:    2.7492226 Å

          :  Hamiltonian                  GFN2-xTB          :
 * total energy  :   -98.3835536 Eh     change       -0.4035485E-08 Eh
 * total energy  :   -98.7375965 Eh     change       -0.3540429E+00 Eh
 * total energy  :   -98.9663951 Eh     change       -0.2287986E+00 Eh
 * total energy  :   -99.0926020 Eh     change       -0.1262069E+00 Eh
 * total energy  :   -99.1554237 Eh     change       -0.6282173E-01 Eh
 * total energy  :   -99.1830061 Eh     change       -0.2758234E-01 Eh
 * total energy  :   -99.1962686 Eh     change       -0.1326259E-01 Eh
 * total energy  :   -99.2051743 Eh     change       -0.8905637E-02 Eh
 * total energy  :   -99.2112478 Eh     change       -0.6073495E-02 Eh
 * total energy  :   -99.2174896 Eh     change       -0.6241840E-02 Eh
 * total energy  :   -99.3413598 Eh     change       -0.1981401E-03 Eh
 * total energy  :   -99.3420906 Eh     change       -0.7307664E-03 Eh
 * total energy  :   -99.3422410 Eh     change       -0.1504436E-03 Eh
 * total energy  :   -99.3425828 Eh     change       -0.3417764E-03 Eh
 * total energy  :   -99.3427170 Eh     change       -0.1342558E-03 Eh
 * total energy  :   -99.3428376 Eh     change       -0.1205929E-03 Eh
 * total energy  :   -99.3428918 Eh     change       -0.5414167E-04 Eh
 * total energy  :   -99.3429436 Eh     change       -0.5182126E-04 Eh
 * total energy  :   -99.3429793 Eh     change       -0.3566149E-04 Eh
   *** GEOMETRY OPTIMIZATION CONVERGED AFTER 43 ITERATIONS ***

 final structure:
================
72
 xtb: 6.6.1 (8d0f1dd)
N           -2.59703374147215        2.72827995266624        2.27763172127878
C           -1.96406237711671        2.22271445354553        1.23268669015493
C           -2.92640949246835        1.92788568343708        0.12841737705775
C           -3.41426106073699        0.48071626240899        0.22583570355302
C           -4.42008430453847        0.04082614692324       -0.63465043542557
C           -4.92004648431022       -1.24803232249359       -0.55643162412787
O           -5.88761217631646       -1.75678154695609       -1.34680790232309
C           -6.50869734418902       -0.92325440576164       -2.29604887559929
C           -4.40305611902618       -2.14069568802110        0.42080662069774
O           -4.95597113840413       -3.36908189971563        0.43517598792102
C           -4.57855197964199       -4.27469383521634        1.44638139189528
C           -3.39335229262001       -1.69910809787271        1.25902977799490
C           -2.90520060620258       -0.40233292792879        1.16224725847366
C           -2.36253848039892        2.21123330196981       -1.27573982784804
C           -1.41696872819417        1.11760683075109       -1.80161397146026
C           -0.10573274707780        1.10278606445071       -1.12037797451096
N            0.50434126580424        0.02542937730793       -0.63217674925550
C            1.88329263936604        0.10410321779535       -0.21290758321427
C            2.84555675981907       -0.34412028464302       -1.33136499735513
C            4.26948865706430       -0.13873818750254       -0.89849578589750
C            4.90778515160136        1.06884202192606       -1.12538230046936
C            6.21324538237632        1.27164060088626       -0.70451215955288
C            6.90502450654069        0.26896045444258       -0.04157780085365
O            8.17218540828254        0.35477060139784        0.40880049952425
C            8.89822449515317        1.54162106841104        0.18809247028583
C            6.25680753779097       -0.97277148958726        0.19972042296151
O            7.00181274898328       -1.89326207389299        0.84668858112642
C            6.45600055866779       -3.16589411652373        1.09736437229689
C            4.95167870133135       -1.15217763110144       -0.22900223053416
C           -0.08099162406281       -1.29076968755545       -0.71763200025710
C           -4.11277525624790        2.86415662170494        0.53396799248209
C           -4.01096622110438        2.81736608432621        2.06491184500030
C           -3.97004170879954        4.29921353717985        0.01807815299821
H           -4.82450042733261        0.72183234839245       -1.36582236394000
H           -6.99784991549841       -0.06798190065653       -1.81976294352514
H           -7.26060962532797       -1.54231482290663       -2.78132501587685
H           -5.79560790578174       -0.56777337619551       -3.04726046560965
H           -4.76418699668090       -3.86150978571739        2.44202437115869
H           -5.20124904575930       -5.15471892998765        1.29799545164287
H           -3.52481625329223       -4.55868139935578        1.35775158727752
H           -2.98921172458658       -2.35042780786764        2.01635796186181
H           -2.13147392481146       -0.08876289925740        1.84642138983416
H           -3.19762756783083        2.28923963318570       -1.97095863354217
H           -1.83791781769292        3.16663492614095       -1.27002648997128
H           -1.91171573934029        0.15019750555253       -1.74512340574965
H           -1.24078470769139        1.33999627067895       -2.86233749422926
H           -0.90531858944870        2.04701317667934        1.22748000280123
H            0.43534248727042        2.03394210324595       -1.05312538176269
H            2.02817806393131       -0.52744540197219        0.66723152509944
H            2.11959987373825        1.13423839468150        0.06160338780624
H            2.63924792309194        0.24802444897003       -2.22478011317595
H            2.67034693539320       -1.39488585499623       -1.56454796213764
H            4.39441147266123        1.86196897163910       -1.64775505750410
H            6.68659937550363        2.21882542795498       -0.90436235072522
H            8.42819702218988        2.39725487398374        0.68279633171342
H            9.00756787598537        1.75159299088562       -0.88019734715950
H            9.88023699037333        1.36837535016897        0.62389614105539
H            7.24150594270951       -3.72681689158961        1.59997043258650
H            5.58034496860476       -3.10591837260932        1.75196896411513
H            6.18483164986441       -3.67687837505787        0.16821491187359
H            4.45311873619697       -2.09357545815423       -0.05870673380709
H           -0.15000617375959       -1.63050241904950       -1.75382597804029
H           -1.08197479924866       -1.28986739893434       -0.28077672090564
H            0.53690044598609       -1.99254886829308       -0.16307634051516
H           -5.06467315493895        2.45557316856935        0.19798244678450
H           -4.88436538592821        0.39006828567732        3.19215405324752
H           -4.50119049744856        1.89051876799924        2.48204092485060
H           -4.43203093206332        3.68997326661615        2.56396437924260
H           -3.02716338372189        4.73787208242489        0.33715170177804
H           -4.02580546984329        4.33343713311901       -1.06507919558188
H           -4.78320408539475        4.90419193138798        0.41170083502029
H           -2.17771997293309        2.88754034039783        3.18029338959820

          :  Hamiltonian                  GFN2-xTB          :
         :: total energy             -99.342979253521 Eh    ::
         :: gradient norm              0.002520379052 Eh/a0 ::
         :: HOMO-LUMO gap              0.826140198136 eV    ::
         :: SCC energy              -100.699672262409 Eh    ::
         :: -> dispersion             -0.077778150696 Eh    ::
         :: repulsion energy           1.355337174054 Eh    ::

    * Orbital Energies and Occupations

         #    Occupation            Energy/Eh            Energy/eV
      -------------------------------------------------------------
         1        2.0000           -0.8028203             -21.8459
       ...           ...                  ...                  ...
        78        1.9994           -0.5354304             -14.5698
        79        1.9993           -0.5349662             -14.5572
        80        1.9990           -0.5289791             -14.3943
        81        1.9989           -0.5273770             -14.3507
        82        1.9986           -0.5233219             -14.2403
        83        1.9986           -0.5231848             -14.2366
        84        1.9978           -0.5158469             -14.0369
        85        1.9977           -0.5147716             -14.0076
        86        1.9859           -0.4861225             -13.2281
        87        1.9825           -0.4827361             -13.1359
        88        1.9012           -0.4546425             -12.3715
        89        1.8732           -0.4504636             -12.2577
        90        1.3757           -0.4203348             -11.4379 (HOMO)
        91        0.4893           -0.3899747             -10.6118 (LUMO)
        92        0.3919           -0.3854686             -10.4891
        93        0.0046           -0.3116617              -8.4807
        94        0.0039           -0.3088574              -8.4044
        95        0.0033           -0.3065747              -8.3423
        96        0.0029           -0.3041308              -8.2758
        97        0.0000           -0.1860558              -5.0628
        98        0.0000           -0.1814273              -4.9369
        99                         -0.1280480              -3.4844
       100                         -0.1043913              -2.8406
       101                         -0.0784798              -2.1355
       ...                                ...                  ...
       171                          0.5828399              15.8599
      -------------------------------------------------------------
                  HL-Gap            0.0303601 Eh            0.8261 eV

     #   Z          covCN         q      C6AA      α(0)
     1   7 N        2.719    -0.050    22.201     6.998
     2   6 C        2.915     0.011    27.763     8.640
     3   6 C        3.941     0.013    20.297     6.402
     4   6 C        2.973    -0.005    28.137     8.701
     5   6 C        2.920    -0.080    30.001     8.982
     6   6 C        2.863     0.132    25.113     8.214
     7   8 O        1.706    -0.230    17.806     5.697
     8   6 C        3.645     0.028    20.438     6.498
     9   6 C        2.865     0.133    25.094     8.211
    10   8 O        1.706    -0.228    17.777     5.693
    11   6 C        3.646     0.027    20.451     6.499
    12   6 C        2.915    -0.068    29.682     8.934
    13   6 C        2.921    -0.047    29.169     8.857
    14   6 C        3.805    -0.068    21.799     6.647
    15   6 C        3.802    -0.070    21.835     6.653
    16   6 C        2.844    -0.008    28.219     8.706
    17   7 N        2.729     0.010    21.089     6.820
    18   6 C        3.757    -0.017    20.933     6.523
    19   6 C        3.808    -0.070    21.837     6.652
    20   6 C        2.969    -0.002    28.072     8.691
    21   6 C        2.922    -0.050    29.253     8.869
    22   6 C        2.914    -0.069    29.711     8.938
    23   6 C        2.865     0.132    25.113     8.214
    24   8 O        1.706    -0.226    17.752     5.689
    25   6 C        3.645     0.026    20.463     6.501
    26   6 C        2.863     0.132    25.116     8.215
    27   8 O        1.706    -0.229    17.790     5.695
    28   6 C        3.645     0.028    20.433     6.497
    29   6 C        2.920    -0.080    30.008     8.983
    30   6 C        3.700    -0.073    22.062     6.717
    31   6 C        3.900    -0.021    20.898     6.498
    32   6 C        3.808    -0.021    20.939     6.514
    33   6 C        3.753    -0.118    22.821     6.812
    34   1 H        0.926     0.049     2.329     2.386
    35   1 H        0.924     0.052     2.299     2.371
    36   1 H        0.925     0.081     1.971     2.196
    37   1 H        0.924     0.046     2.370     2.408
    38   1 H        0.924     0.057     2.231     2.336
    39   1 H        0.925     0.080     1.977     2.199
    40   1 H        0.924     0.047     2.361     2.403
    41   1 H        0.926     0.054     2.268     2.355
    42   1 H        0.926     0.034     2.537     2.491
    43   1 H        0.925     0.063     2.168     2.302
    44   1 H        0.925     0.056     2.242     2.341
    45   1 H        0.925     0.067     2.122     2.278
    46   1 H        0.923     0.078     1.999     2.211
    47   1 H        0.926     0.057     2.230     2.335
    48   1 H        0.926     0.062     2.180     2.309
    49   1 H        0.924     0.066     2.131     2.283
    50   1 H        0.924     0.065     2.144     2.290
    51   1 H        0.924     0.053     2.278     2.360
    52   1 H        0.924     0.055     2.262     2.352
    53   1 H        0.926     0.042     2.421     2.433
    54   1 H        0.926     0.056     2.248     2.345
    55   1 H        0.924     0.052     2.299     2.371
    56   1 H        0.924     0.054     2.272     2.357
    57   1 H        0.925     0.080     1.975     2.198
    58   1 H        0.925     0.080     1.978     2.199
    59   1 H        0.924     0.047     2.360     2.403
    60   1 H        0.924     0.051     2.309     2.376
    61   1 H        0.926     0.046     2.376     2.410
    62   1 H        0.924     0.075     2.036     2.231
    63   1 H        0.924     0.081     1.967     2.194
    64   1 H        0.925     0.078     1.998     2.211
    65   1 H        0.925     0.062     2.171     2.304
    66   1 H        0.000    -0.297    54.996    13.560
    67   1 H        0.918     0.110     1.698     2.038
    68   1 H        0.925     0.075     2.032     2.229
    69   1 H        0.925     0.043     2.404     2.425
    70   1 H        0.925     0.054     2.277     2.359
    71   1 H        0.925     0.058     2.218     2.329
    72   1 H        0.860     0.189     1.161     1.688

Wiberg/Mayer (AO) data.
largest (>0.10) Wiberg bond orders for each atom

     #   Z sym  total        # sym  WBO       # sym  WBO       # sym  WBO
 ---------------------------------------------------------------------------
     1   7 N    3.442 --     2 C    1.427    32 C    1.006    72 H    0.934
     2   6 C    3.549 --     1 N    1.427     3 C    1.022    47 H    0.962
     3   6 C    3.984 --     2 C    1.022    14 C    0.972     4 C    0.948
                            31 C    0.942
     4   6 C    3.929 --    13 C    1.419     5 C    1.370     3 C    0.948
     5   6 C    3.964 --     6 C    1.401     4 C    1.370    34 H    0.959
     6   6 C    3.910 --     5 C    1.401     9 C    1.224     7 O    1.099
     7   8 O    2.258 --     6 C    1.099     8 C    0.979
     8   6 C    3.934 --     7 O    0.979    36 H    0.977    37 H    0.974
                            35 H    0.974
     9   6 C    3.911 --    12 C    1.395     6 C    1.224    10 O    1.104
    10   8 O    2.259 --     9 C    1.104    11 C    0.977
    11   6 C    3.931 --    39 H    0.977    10 O    0.977    40 H    0.974
                            38 H    0.974
    12   6 C    3.964 --    13 C    1.397     9 C    1.395    41 H    0.963
    13   6 C    3.958 --     4 C    1.419    12 C    1.397    42 H    0.962
    14   6 C    3.965 --    15 C    0.981    44 H    0.973     3 C    0.972
                            43 H    0.969
    15   6 C    3.988 --    16 C    1.060    14 C    0.981    45 H    0.962
                            46 H    0.930
    16   6 C    3.517 --    17 N    1.386    15 C    1.060    48 H    0.959
    17   7 N    3.443 --    16 C    1.386    30 C    0.999    18 C    0.990
    18   6 C    3.957 --    17 N    0.990    50 H    0.968    49 H    0.965
                            19 C    0.965
    19   6 C    3.975 --    20 C    1.008    52 H    0.972    51 H    0.972
                            18 C    0.965
    20   6 C    3.950 --    21 C    1.414    29 C    1.378    19 C    1.008
    21   6 C    3.955 --    22 C    1.414    20 C    1.414    53 H    0.968
    22   6 C    3.963 --    21 C    1.414    23 C    1.388    54 H    0.963
    23   6 C    3.901 --    22 C    1.388    26 C    1.225    24 O    1.105
    24   8 O    2.255 --    23 C    1.105    25 C    0.977
    25   6 C    3.931 --    24 O    0.977    57 H    0.977    55 H    0.973
                            56 H    0.973
    26   6 C    3.905 --    29 C    1.399    23 C    1.225    27 O    1.099
    27   8 O    2.254 --    26 C    1.099    28 C    0.980
    28   6 C    3.934 --    27 O    0.980    58 H    0.977    59 H    0.974
                            60 H    0.974
    29   6 C    3.962 --    26 C    1.399    20 C    1.378    61 H    0.963
    30   6 C    3.957 --    17 N    0.999    64 H    0.978    62 H    0.966
                            63 H    0.958
    31   6 C    3.975 --    33 C    1.009    32 C    0.989    65 H    0.965
                             3 C    0.942
    32   6 C    3.894 --     1 N    1.006    31 C    0.989    68 H    0.963
                            67 H    0.861
    33   6 C    3.987 --    31 C    1.009    69 H    0.986    70 H    0.981
                            71 H    0.981
    34   1 H    0.996 --     5 C    0.959
    35   1 H    0.994 --     8 C    0.974
    36   1 H    0.993 --     8 C    0.977
    37   1 H    0.995 --     8 C    0.974
    38   1 H    0.993 --    11 C    0.974
    39   1 H    0.993 --    11 C    0.977
    40   1 H    0.994 --    11 C    0.974
    41   1 H    0.995 --    12 C    0.963
    42   1 H    0.998 --    13 C    0.962
    43   1 H    0.994 --    14 C    0.969
    44   1 H    0.996 --    14 C    0.973
    45   1 H    0.995 --    15 C    0.962
    46   1 H    0.967 --    15 C    0.930
    47   1 H    0.997 --     2 C    0.962
    48   1 H    0.996 --    16 C    0.959
    49   1 H    0.991 --    18 C    0.965
    50   1 H    0.995 --    18 C    0.968
    51   1 H    0.996 --    19 C    0.972
    52   1 H    0.996 --    19 C    0.972
    53   1 H    0.998 --    21 C    0.968
    54   1 H    0.995 --    22 C    0.963
    55   1 H    0.993 --    25 C    0.973
    56   1 H    0.993 --    25 C    0.973
    57   1 H    0.993 --    25 C    0.977
    58   1 H    0.993 --    28 C    0.977
    59   1 H    0.994 --    28 C    0.974
    60   1 H    0.994 --    28 C    0.974
    61   1 H    0.997 --    29 C    0.963
    62   1 H    0.983 --    30 C    0.966
    63   1 H    0.986 --    30 C    0.958
    64   1 H    0.994 --    30 C    0.978
    65   1 H    0.995 --    31 C    0.965
    66   1 H    0.142
    67   1 H    0.976 --    32 C    0.861
    68   1 H    0.990 --    32 C    0.963
    69   1 H    0.998 --    33 C    0.986
    70   1 H    0.996 --    33 C    0.981
    71   1 H    0.995 --    33 C    0.981
    72   1 H    0.963 --     1 N    0.934
 ---------------------------------------------------------------------------

molecular dipole:
                 x           y           z       tot (Debye)
 q only:        0.671       1.532      -0.885
   full:        0.742       1.703      -0.664       5.012

           -------------------------------------------------
          | TOTAL ENERGY              -99.342979253521 Eh   |
          | GRADIENT NORM               0.002520379052 Eh/α |
          | HOMO-LUMO GAP               0.826140198136 eV   |
           -------------------------------------------------

 * finished run on 2024/04/06 at 11:15:00.086
