   * xtb version 6.6.1 (8d0f1dd) compiled by 'conda@1efc2f54142f' on 2023-08-01
          program call               : xtb struc.xyz --opt loose --input .xc1 --gfn2

   ID    Z sym.   atoms
    1    7 N      1, 17
    2    6 C      2-6, 8, 9, 11-16, 18-23, 25, 26, 28-33
    3    8 O      7, 10, 24, 27
    4    1 H      34-72
constraining bond 65 71 to    4.2800000 Å, actual value:    2.4703978 Å

          :  Hamiltonian                  GFN2-xTB          :
 * total energy  :   -98.8194299 Eh     change       -0.4035485E-08 Eh
 * total energy  :   -99.0824944 Eh     change       -0.2630645E+00 Eh
 * total energy  :   -99.2226597 Eh     change       -0.1401653E+00 Eh
 * total energy  :   -99.2612647 Eh     change       -0.3860504E-01 Eh
 * total energy  :   -99.2674442 Eh     change       -0.6179496E-02 Eh
 * total energy  :   -99.2700895 Eh     change       -0.2645322E-02 Eh
 * total energy  :   -99.2732736 Eh     change       -0.3184096E-02 Eh
 * total energy  :   -99.2754998 Eh     change       -0.2226208E-02 Eh
 * total energy  :   -99.2769776 Eh     change       -0.1477791E-02 Eh
 * total energy  :   -99.2783856 Eh     change       -0.1407936E-02 Eh
 * total energy  :   -99.3066967 Eh     change       -0.1373116E-03 Eh
 * total energy  :   -99.3068098 Eh     change       -0.1131623E-03 Eh
 * total energy  :   -99.3069069 Eh     change       -0.9706092E-04 Eh
 * total energy  :   -99.3070513 Eh     change       -0.1443914E-03 Eh
 * total energy  :   -99.3071246 Eh     change       -0.7328642E-04 Eh
 * total energy  :   -99.3071876 Eh     change       -0.6300321E-04 Eh
 * total energy  :   -99.3072722 Eh     change       -0.8459367E-04 Eh
 * total energy  :   -99.3073323 Eh     change       -0.6010801E-04 Eh
 * total energy  :   -99.3073792 Eh     change       -0.4694974E-04 Eh
   *** GEOMETRY OPTIMIZATION CONVERGED AFTER 38 ITERATIONS ***

 final structure:
================
72
 xtb: 6.6.1 (8d0f1dd)
N           -1.98216140141299        2.68276530004846        2.30525210069671
C           -1.89815451079008        2.11405296729672        1.19846476112495
C           -3.02975666226106        1.91178537784801        0.22702295567628
C           -3.49490882564071        0.46317622130210        0.30690086173498
C           -4.37070650569685       -0.04813703147463       -0.65372254776379
C           -4.84565536019430       -1.34844884060593       -0.58462637841355
O           -5.71309001365267       -1.90783248285684       -1.45444511553240
C           -6.29793911997866       -1.11097912940830       -2.45768017002962
C           -4.40971124947199       -2.19981154927381        0.46442348105196
O           -4.90895245825235       -3.45181183893561        0.44513361941333
C           -4.55612868833420       -4.34360026472011        1.47666456971619
C           -3.52672644048739       -1.69288085539174        1.40521727562527
C           -3.08350042948477       -0.37908359408605        1.32970825235426
C           -2.44027810691556        2.21005195262266       -1.17564612457007
C           -1.47395909217324        1.13412010477194       -1.70575862235411
C           -0.15784371298868        1.12391371970402       -1.02633963935232
N            0.49199173606598        0.03754844741801       -0.61949390175272
C            1.87536184946728        0.12128039917690       -0.21433924683499
C            2.82600880871520       -0.33185397446410       -1.33984920707712
C            4.25489300196277       -0.13657822268843       -0.91642649732410
C            4.89627402843313        1.07148025488288       -1.13836945020534
C            6.20415707892118        1.26813554047312       -0.72335154233765
C            6.89703951275964        0.25872217400326       -0.07066494478455
O            8.16283577635595        0.33787170753395        0.37904537499660
C            8.88747716701714        1.53116479409420        0.18830772785716
C            6.24756675228369       -0.98547467894282        0.16124226195955
O            6.99502335329791       -1.91040135555550        0.79538264645145
C            6.45334783726440       -3.18586672605011        1.04156688906904
C            4.93900942164636       -1.15805932133827       -0.26184699515344
C           -0.11746668136824       -1.27015907982131       -0.63448543671029
C           -4.24044162164503        2.85660603313900        0.49018746244852
C           -4.91130356542585        2.57333234663426        1.82825187723640
C           -3.70604299302613        4.43080175532244        0.57082614094008
H           -4.69320523439931        0.58056195519104       -1.46791629891915
H           -6.84352017291969       -0.26464437949152       -2.02880012931722
H           -6.99698209628090       -1.76343392100496       -2.97668171402265
H           -5.55082810530054       -0.74501409523356       -3.16859646542354
H           -4.85897808130141       -3.96375911761361        2.45681742982655
H           -5.09546013789887       -5.26484806220807        1.26470276081141
H           -3.48029559544396       -4.54676982905199        1.47931249348252
H           -3.18568334126060       -2.30972442821843        2.22066072000409
H           -2.42378130255273       -0.01460036466690        2.10139829628279
H           -3.25917012738328        2.31448239749873       -1.88597724864201
H           -1.91913800735654        3.16697443506199       -1.13544687769846
H           -1.95400547027904        0.15788771397532       -1.66488599601598
H           -1.29091694049538        1.37446661571089       -2.76179479977889
H           -0.95115602874682        1.70198628840136        0.78960740896173
H            0.40637417610163        2.04566981174193       -1.02222819077725
H            2.03082636422168       -0.50452358554570        0.66863319921316
H            2.11278703304373        1.15288049001540        0.05363425992289
H            2.61874106695841        0.26267285742818       -2.23141533954666
H            2.64190214453334       -1.38108658600437       -1.57357611668261
H            4.38128667194616        1.86974364516532       -1.65103425283378
H            6.67887652850123        2.21560935729639       -0.91874111271118
H            8.40847455077623        2.37545673249091        0.69352546723452
H            9.00808269042406        1.76121448948638       -0.87445030774138
H            9.86495337879194        1.35279102388258        0.63213377243447
H            7.24140207704985       -3.74601493072720        1.54110408630761
H            5.57846804267197       -3.13117103017205        1.69748420528499
H            6.18296111727626       -3.69366260179761        0.11056198100372
H            4.44019194231414       -2.10032641796174       -0.09682347284534
H           -0.28009746999919       -1.62139941912730       -1.65596893224160
H           -1.07796845765895       -1.24901828115673       -0.11328951788785
H            0.53599915979120       -1.97581900493512       -0.12788789292286
H           -5.13823362305449        2.33676307932948       -0.36816325341871
H           -4.22237072832790        2.78091313756675        2.64301630106879
H           -5.24104995184860        1.53823804010891        1.89818753835783
H           -5.77967830693042        3.21724313664189        1.93917150658362
H           -3.38624312159920        4.72641847253629       -0.42739328380210
H           -4.59731578292836        5.01211951359538        0.80065272827751
H           -2.82492650719393        4.95693963937272        1.33113932648544
H           -1.14006564122835        2.77309259426463        2.86404012612461

          :  Hamiltonian                  GFN2-xTB          :
         :: total energy             -99.307379242924 Eh    ::
         :: gradient norm              0.003867913881 Eh/a0 ::
         :: HOMO-LUMO gap              1.677701186946 eV    ::
         :: SCC energy              -100.676597647150 Eh    ::
         :: -> dispersion             -0.075023927664 Eh    ::
         :: repulsion energy           1.340317866124 Eh    ::

    * Orbital Energies and Occupations

         #    Occupation            Energy/Eh            Energy/eV
      -------------------------------------------------------------
         1        2.0000           -0.8086194             -22.0037
       ...           ...                  ...                  ...
        78        1.9984           -0.5287781             -14.3888
        79        1.9983           -0.5282042             -14.3732
        80        1.9979           -0.5247874             -14.2802
        81        1.9972           -0.5202220             -14.1560
        82        1.9971           -0.5194852             -14.1359
        83        1.9967           -0.5175079             -14.0821
        84        1.9952           -0.5113408             -13.9143
        85        1.9881           -0.4970087             -13.5243
        86        1.9817           -0.4902166             -13.3395
        87        1.9789           -0.4878719             -13.2757
        88        1.9380           -0.4704972             -12.8029
        89        1.8765           -0.4590815             -12.4922
        90        1.8453           -0.4552508             -12.3880 (HOMO)
        91        0.3910           -0.3935964             -10.7103 (LUMO)
        92        0.0158           -0.3394981              -9.2382
        93        0.0038           -0.3167477              -8.6191
        94        0.0031           -0.3136034              -8.5336
        95        0.0028           -0.3117602              -8.4834
        96        0.0024           -0.3094871              -8.4216
        97        0.0000           -0.2251066              -6.1255
        98        0.0000           -0.1909993              -5.1974
        99        0.0000           -0.1869416              -5.0869
       100                         -0.1354726              -3.6864
       101                         -0.1139822              -3.1016
       ...                                ...                  ...
       171                          0.5771104              15.7040
      -------------------------------------------------------------
                  HL-Gap            0.0616544 Eh            1.6777 eV

     #   Z          covCN         q      C6AA      α(0)
     1   7 N        1.773    -0.265    27.703     7.794
     2   6 C        2.827     0.101    25.760     8.317
     3   6 C        3.905     0.006    20.416     6.423
     4   6 C        2.972     0.001    28.002     8.680
     5   6 C        2.920    -0.079    29.971     8.978
     6   6 C        2.862     0.129    25.168     8.223
     7   8 O        1.706    -0.231    17.830     5.701
     8   6 C        3.644     0.028    20.437     6.498
     9   6 C        2.864     0.129    25.178     8.225
    10   8 O        1.706    -0.228    17.787     5.694
    11   6 C        3.646     0.027    20.455     6.500
    12   6 C        2.914    -0.074    29.856     8.960
    13   6 C        2.922    -0.054    29.333     8.882
    14   6 C        3.812    -0.066    21.760     6.640
    15   6 C        3.802    -0.069    21.814     6.650
    16   6 C        2.843     0.007    27.862     8.651
    17   7 N        2.729     0.008    21.114     6.825
    18   6 C        3.755    -0.016    20.919     6.522
    19   6 C        3.808    -0.070    21.840     6.653
    20   6 C        2.969    -0.000    28.035     8.685
    21   6 C        2.922    -0.049    29.215     8.864
    22   6 C        2.914    -0.068    29.682     8.934
    23   6 C        2.865     0.133    25.081     8.209
    24   8 O        1.706    -0.222    17.683     5.677
    25   6 C        3.645     0.025    20.488     6.505
    26   6 C        2.863     0.133    25.089     8.210
    27   8 O        1.706    -0.225    17.728     5.685
    28   6 C        3.645     0.027    20.453     6.500
    29   6 C        2.919    -0.079    29.986     8.980
    30   6 C        3.699    -0.070    22.008     6.709
    31   6 C        3.572     0.010    21.199     6.697
    32   6 C        3.753    -0.119    22.840     6.815
    33   6 C        3.602    -0.096    22.956     6.928
    34   1 H        0.926     0.054     2.276     2.359
    35   1 H        0.924     0.053     2.279     2.361
    36   1 H        0.925     0.081     1.968     2.194
    37   1 H        0.924     0.047     2.358     2.401
    38   1 H        0.924     0.055     2.257     2.349
    39   1 H        0.925     0.081     1.967     2.193
    40   1 H        0.924     0.048     2.348     2.396
    41   1 H        0.926     0.052     2.289     2.366
    42   1 H        0.926     0.039     2.459     2.452
    43   1 H        0.925     0.060     2.199     2.319
    44   1 H        0.924     0.054     2.274     2.358
    45   1 H        0.925     0.065     2.137     2.286
    46   1 H        0.923     0.079     1.988     2.205
    47   1 H        0.921     0.011     2.875     2.652
    48   1 H        0.926     0.069     2.101     2.267
    49   1 H        0.924     0.067     2.120     2.277
    50   1 H        0.924     0.067     2.121     2.277
    51   1 H        0.924     0.055     2.261     2.352
    52   1 H        0.924     0.056     2.252     2.347
    53   1 H        0.926     0.045     2.386     2.416
    54   1 H        0.926     0.058     2.219     2.329
    55   1 H        0.924     0.054     2.271     2.357
    56   1 H        0.924     0.056     2.247     2.344
    57   1 H        0.925     0.082     1.955     2.187
    58   1 H        0.925     0.082     1.961     2.190
    59   1 H        0.924     0.048     2.340     2.392
    60   1 H        0.924     0.053     2.289     2.366
    61   1 H        0.926     0.047     2.357     2.401
    62   1 H        0.924     0.075     2.027     2.226
    63   1 H        0.924     0.079     1.991     2.206
    64   1 H        0.925     0.079     1.986     2.204
    65   1 H        0.674     0.015     3.072     2.801
    66   1 H        0.925     0.075     2.035     2.231
    67   1 H        0.925     0.036     2.505     2.475
    68   1 H        0.925     0.053     2.277     2.360
    69   1 H        0.925     0.034     2.532     2.488
    70   1 H        0.925     0.054     2.272     2.357
    71   1 H        0.806     0.040     2.495     2.481
    72   1 H        0.860     0.159     1.342     1.815

Wiberg/Mayer (AO) data.
largest (>0.10) Wiberg bond orders for each atom

     #   Z sym  total        # sym  WBO       # sym  WBO       # sym  WBO
 ---------------------------------------------------------------------------
     1   7 N    3.048 --     2 C    1.961    72 H    0.940
     2   6 C    3.923 --     1 N    1.961     3 C    0.991    47 H    0.887
     3   6 C    3.975 --     2 C    0.991     4 C    0.966    14 C    0.960
                            31 C    0.948
     4   6 C    3.950 --    13 C    1.412     5 C    1.369     3 C    0.966
     5   6 C    3.963 --     6 C    1.398     4 C    1.369    34 H    0.953
     6   6 C    3.906 --     5 C    1.398     9 C    1.225     7 O    1.098
     7   8 O    2.253 --     6 C    1.098     8 C    0.978
     8   6 C    3.932 --     7 O    0.978    36 H    0.977    35 H    0.974
                            37 H    0.973
     9   6 C    3.903 --    12 C    1.390     6 C    1.225    10 O    1.102
    10   8 O    2.254 --     9 C    1.102    11 C    0.978
    11   6 C    3.931 --    10 O    0.978    39 H    0.977    40 H    0.974
                            38 H    0.973
    12   6 C    3.963 --    13 C    1.406     9 C    1.390    41 H    0.964
    13   6 C    3.956 --     4 C    1.412    12 C    1.406    42 H    0.963
    14   6 C    3.972 --    15 C    0.981    44 H    0.972    43 H    0.969
                             3 C    0.960
    15   6 C    3.986 --    16 C    1.057    14 C    0.981    45 H    0.962
                            46 H    0.928
    16   6 C    3.600 --    17 N    1.393    15 C    1.057    48 H    0.957
    17   7 N    3.477 --    16 C    1.393    30 C    0.999    18 C    0.988
    18   6 C    3.956 --    17 N    0.988    50 H    0.968    19 C    0.966
                            49 H    0.964
    19   6 C    3.976 --    20 C    1.008    52 H    0.972    51 H    0.972
                            18 C    0.966
    20   6 C    3.945 --    21 C    1.409    29 C    1.380    19 C    1.008
    21   6 C    3.950 --    22 C    1.417    20 C    1.409    53 H    0.968
    22   6 C    3.960 --    21 C    1.417    23 C    1.383    54 H    0.963
    23   6 C    3.895 --    22 C    1.383    26 C    1.220    24 O    1.110
    24   8 O    2.255 --    23 C    1.110    25 C    0.976
    25   6 C    3.928 --    57 H    0.977    24 O    0.976    55 H    0.973
                            56 H    0.973
    26   6 C    3.899 --    29 C    1.395    23 C    1.220    27 O    1.104
    27   8 O    2.255 --    26 C    1.104    28 C    0.979
    28   6 C    3.932 --    27 O    0.979    58 H    0.977    59 H    0.973
                            60 H    0.973
    29   6 C    3.959 --    26 C    1.395    20 C    1.380    61 H    0.963
    30   6 C    3.958 --    17 N    0.999    64 H    0.978    62 H    0.966
                            63 H    0.962
    31   6 C    3.945 --    32 C    1.021    33 C    0.979     3 C    0.948
                            65 H    0.927
    32   6 C    3.976 --    31 C    1.021    67 H    0.980    68 H    0.979
                            66 H    0.967
    33   6 C    3.968 --    69 H    0.987    70 H    0.986    31 C    0.979
                            71 H    0.972
    34   1 H    0.996 --     5 C    0.953
    35   1 H    0.994 --     8 C    0.974
    36   1 H    0.993 --     8 C    0.977
    37   1 H    0.994 --     8 C    0.973
    38   1 H    0.993 --    11 C    0.973
    39   1 H    0.993 --    11 C    0.977
    40   1 H    0.994 --    11 C    0.974
    41   1 H    0.996 --    12 C    0.964
    42   1 H    0.998 --    13 C    0.963
    43   1 H    0.995 --    14 C    0.969
    44   1 H    0.996 --    14 C    0.972
    45   1 H    0.995 --    15 C    0.962
    46   1 H    0.971 --    15 C    0.928
    47   1 H    0.987 --     2 C    0.887
    48   1 H    0.995 --    16 C    0.957
    49   1 H    0.991 --    18 C    0.964
    50   1 H    0.994 --    18 C    0.968
    51   1 H    0.996 --    19 C    0.972
    52   1 H    0.996 --    19 C    0.972
    53   1 H    0.997 --    21 C    0.968
    54   1 H    0.995 --    22 C    0.963
    55   1 H    0.992 --    25 C    0.973
    56   1 H    0.992 --    25 C    0.973
    57   1 H    0.992 --    25 C    0.977
    58   1 H    0.993 --    28 C    0.977
    59   1 H    0.993 --    28 C    0.973
    60   1 H    0.993 --    28 C    0.973
    61   1 H    0.997 --    29 C    0.963
    62   1 H    0.985 --    30 C    0.966
    63   1 H    0.987 --    30 C    0.962
    64   1 H    0.993 --    30 C    0.978
    65   1 H    0.989 --    31 C    0.927
    66   1 H    0.989 --    32 C    0.967
    67   1 H    0.996 --    32 C    0.980
    68   1 H    0.993 --    32 C    0.979
    69   1 H    0.997 --    33 C    0.987
    70   1 H    0.994 --    33 C    0.986
    71   1 H    0.995 --    33 C    0.972
    72   1 H    0.970 --     1 N    0.940
 ---------------------------------------------------------------------------

molecular dipole:
                 x           y           z       tot (Debye)
 q only:        0.629       0.044      -0.707
   full:        0.924       0.060      -0.884       3.255

           -------------------------------------------------
          | TOTAL ENERGY              -99.307379242924 Eh   |
          | GRADIENT NORM               0.003867913881 Eh/α |
          | HOMO-LUMO GAP               1.677701186946 eV   |
           -------------------------------------------------

 * finished run on 2024/04/06 at 11:15:20.921
