   * xtb version 6.6.1 (8d0f1dd) compiled by 'conda@1efc2f54142f' on 2023-08-01
          program call               : xtb xtbopt.xyz --opt crude --input .xc2 --gfn2

   ID    Z sym.   atoms
    1    7 N      1, 17
    2    6 C      2-6, 8, 9, 11-16, 18-23, 25, 26, 28-33
    3    8 O      7, 10, 24, 27
    4    1 H      34-72
########################################################################
[WARNING] Please study the warnings concerning your input carefully
-1- readin_getIntValue: could not parse ''
########################################################################

          :  Hamiltonian                  GFN2-xTB          :
 * total energy  :   -99.3350365 Eh     change        0.1421085E-13 Eh
 * total energy  :   -99.3850625 Eh     change       -0.5002603E-01 Eh
 * total energy  :   -99.3983509 Eh     change       -0.1328838E-01 Eh
 * total energy  :   -99.4048418 Eh     change       -0.6490906E-02 Eh
 * total energy  :   -99.4063129 Eh     change       -0.1471116E-02 Eh
 * total energy  :   -99.4064615 Eh     change       -0.1485287E-03 Eh
   *** GEOMETRY OPTIMIZATION CONVERGED AFTER 6 ITERATIONS ***

 final structure:
================
72
 xtb: 6.6.1 (8d0f1dd)
N           -1.95701794369103        2.71046042305925        2.30484082459760
C           -1.87155550976186        2.11579703306303        1.21042952310365
C           -3.00766446687558        1.92364793763570        0.24365260857813
C           -3.49213957413151        0.48121809770842        0.32489371805726
C           -4.37917598699053       -0.01855003244487       -0.63131957951138
C           -4.84254939062091       -1.32367253487414       -0.57657775895257
O           -5.70169252322723       -1.88657476967262       -1.45161190547852
C           -6.28824860693198       -1.09538752769341       -2.45768625153469
C           -4.40205419351005       -2.18276721119884        0.46661998623332
O           -4.89866679677113       -3.43567168993112        0.43799230817577
C           -4.55696028613975       -4.33179221501214        1.46997434385283
C           -3.52329007010539       -1.68004130156330        1.41223073450788
C           -3.07832858158044       -0.36622798481919        1.34172249832707
C           -2.43203395934193        2.21123307068160       -1.16656404049623
C           -1.47523267881890        1.12969922873440       -1.69873178091134
C           -0.15429957323924        1.12098372419867       -1.02922994723465
N            0.49431288835215        0.03533314111574       -0.62258604794568
C            1.87756744410307        0.11943887723847       -0.21714107062024
C            2.82771842912975       -0.33448552961398       -1.34234934645298
C            4.25574411865519       -0.13804672765477       -0.91697149371787
C            4.89592424385628        1.07082024698208       -1.13676390839963
C            6.20313956908580        1.26848961006926       -0.72007763049369
C            6.89650838146710        0.25878380038095       -0.06831142653260
O            8.16285053999746        0.33795617656997        0.37989322248337
C            8.88773654193286        1.53079082820805        0.18678781004474
C            6.24748340008076       -0.98589399415106        0.16262585154214
O            6.99486479089455       -1.91168359303508        0.79562383249336
C            6.45218461054649       -3.18700909506256        1.04079113765083
C            4.93939449769166       -1.15918687867150       -0.26139826429248
C           -0.11752299526680       -1.27158754210138       -0.63734780949731
C           -4.21031524731678        2.87685464996320        0.51732792038851
C           -4.89310323498980        2.56086602572854        1.84586802187502
C           -3.81120262313905        4.34755910689302        0.48850937428797
H           -4.72404898019160        0.62450599365621       -1.42465642280157
H           -6.83580771482263       -0.24863584528217       -2.03340046881078
H           -6.98556151419846       -1.75233336768261       -2.97423703443642
H           -5.54217659111705       -0.73103943550108       -3.17140050416824
H           -4.86633597924865       -3.95383045674078        2.44888064727076
H           -5.09843280926713       -5.25002853454179        1.25098336754513
H           -3.48215196199409       -4.53973520160251        1.48130580491856
H           -3.18353394013058       -2.30141544489636        2.22481900840560
H           -2.41895571556732       -0.00555921825349        2.11543562138047
H           -3.25805203075536        2.30652578868707       -1.87024041196953
H           -1.90838013066160        3.16765828117684       -1.14354408011067
H           -1.95926883884320        0.15611956061545       -1.64798427243900
H           -1.29836871177485        1.36228086049414       -2.75702664084536
H           -0.92954342399635        1.68199143486928        0.81526562875010
H            0.40646083650930        2.04464562250330       -1.02583328531960
H            2.03294527774561       -0.50532683409794        0.66625766953176
H            2.11460016963194        1.15162640371376        0.04917888612977
H            2.62097776486547        0.25927235260483       -2.23449616208442
H            2.64387322399169       -1.38394415970036       -1.57501819409136
H            4.38145382178474        1.86945097745998       -1.64939808198463
H            6.67727243578099        2.21660040124556       -0.91355076946840
H            8.41042810287738        2.37579707105898        0.69229786773847
H            9.00626992363371        1.75981753905855       -0.87647629592367
H            9.86612615220346        1.35217849457134        0.62855709486111
H            7.24037999942434       -3.74881874623873        1.53817080402548
H            5.57836323303345       -3.13226191396839        1.69803167327731
H            6.17982143572470       -3.69305408952547        0.10937475133296
H            4.44078163411936       -2.10163512858138       -0.09707048204866
H           -0.27865435115456       -1.62211831115808       -1.65909738747918
H           -1.07906442016016       -1.24801743870949       -0.11824747650831
H            0.53380662725898       -1.97732560193264       -0.12832548245086
H           -4.92966768690499        2.71143025668409       -0.28864376179006
H           -4.21566945205427        2.75511916500597        2.67083440588229
H           -5.21111425675894        1.52218440761269        1.88760042440182
H           -5.77004975648108        3.19305887504830        1.96055222308527
H           -3.45275866138660        4.65214226043813       -0.49113763104155
H           -4.67694136551239        4.95903161424733        0.72760877169336
H           -3.04646129215785        4.55366450117647        1.21997098808724
H           -1.11842066978606        2.79276403825843        2.87080859592248

          :  Hamiltonian                  GFN2-xTB          :
         :: total energy             -99.406461459617 Eh    ::
         :: gradient norm              0.007815713158 Eh/a0 ::
         :: HOMO-LUMO gap              1.673758667948 eV    ::
         :: SCC energy              -100.786281019705 Eh    ::
         :: -> dispersion             -0.075001900457 Eh    ::
         :: repulsion energy           1.378567454293 Eh    ::

    * Orbital Energies and Occupations

         #    Occupation            Energy/Eh            Energy/eV
      -------------------------------------------------------------
         1        2.0000           -0.8087647             -22.0076
       ...           ...                  ...                  ...
        78        1.9984           -0.5294327             -14.4066
        79        1.9983           -0.5288263             -14.3901
        80        1.9982           -0.5281736             -14.3723
        81        1.9974           -0.5221202             -14.2076
        82        1.9971           -0.5200643             -14.1517
        83        1.9960           -0.5153016             -14.0221
        84        1.9953           -0.5127839             -13.9536
        85        1.9943           -0.5095425             -13.8654
        86        1.9811           -0.4905273             -13.3479
        87        1.9786           -0.4884973             -13.2927
        88        1.9421           -0.4724663             -12.8565
        89        1.8713           -0.4592179             -12.4960
        90        1.8433           -0.4558682             -12.4048 (HOMO)
        91        0.3895           -0.3943587             -10.7310 (LUMO)
        92        0.0159           -0.3403646              -9.2618
        93        0.0035           -0.3163866              -8.6093
        94        0.0029           -0.3134832              -8.5303
        95        0.0027           -0.3123789              -8.5003
        96        0.0024           -0.3100942              -8.4381
        97        0.0000           -0.1908009              -5.1920
        98        0.0000           -0.1875436              -5.1033
        99                         -0.1361683              -3.7053
       100                         -0.0677137              -1.8426
       101                         -0.0643981              -1.7524
       ...                                ...                  ...
       171                          0.5765624              15.6891
      -------------------------------------------------------------
                  HL-Gap            0.0615095 Eh            1.6738 eV

     #   Z          covCN         q      C6AA      α(0)
     1   7 N        1.773    -0.267    27.750     7.801
     2   6 C        2.826     0.101    25.752     8.315
     3   6 C        3.907     0.006    20.412     6.422
     4   6 C        2.973     0.003    27.953     8.672
     5   6 C        2.920    -0.079    29.986     8.980
     6   6 C        2.861     0.129    25.166     8.223
     7   8 O        1.706    -0.230    17.816     5.699
     8   6 C        3.643     0.028    20.451     6.501
     9   6 C        2.864     0.129    25.178     8.225
    10   8 O        1.706    -0.228    17.785     5.694
    11   6 C        3.645     0.027    20.458     6.501
    12   6 C        2.913    -0.075    29.861     8.961
    13   6 C        2.922    -0.054    29.330     8.881
    14   6 C        3.812    -0.066    21.750     6.638
    15   6 C        3.802    -0.069    21.819     6.650
    16   6 C        2.843     0.007    27.847     8.648
    17   7 N        2.729     0.009    21.097     6.822
    18   6 C        3.756    -0.016    20.920     6.521
    19   6 C        3.808    -0.070    21.840     6.653
    20   6 C        2.969    -0.000    28.032     8.685
    21   6 C        2.922    -0.049    29.212     8.863
    22   6 C        2.914    -0.067    29.680     8.934
    23   6 C        2.865     0.134    25.078     8.209
    24   8 O        1.706    -0.222    17.678     5.677
    25   6 C        3.645     0.025    20.490     6.506
    26   6 C        2.863     0.133    25.086     8.210
    27   8 O        1.706    -0.224    17.723     5.684
    28   6 C        3.645     0.027    20.454     6.500
    29   6 C        2.919    -0.079    29.986     8.980
    30   6 C        3.699    -0.070    22.010     6.710
    31   6 C        3.853    -0.007    20.665     6.466
    32   6 C        3.756    -0.120    22.848     6.815
    33   6 C        3.757    -0.118    22.806     6.809
    34   1 H        0.926     0.052     2.298     2.371
    35   1 H        0.924     0.054     2.272     2.357
    36   1 H        0.925     0.081     1.966     2.193
    37   1 H        0.924     0.047     2.354     2.400
    38   1 H        0.924     0.055     2.254     2.348
    39   1 H        0.925     0.081     1.966     2.193
    40   1 H        0.924     0.048     2.346     2.395
    41   1 H        0.926     0.052     2.292     2.368
    42   1 H        0.926     0.040     2.453     2.449
    43   1 H        0.925     0.059     2.206     2.323
    44   1 H        0.924     0.053     2.277     2.360
    45   1 H        0.925     0.066     2.135     2.285
    46   1 H        0.924     0.079     1.987     2.204
    47   1 H        0.922     0.009     2.910     2.668
    48   1 H        0.926     0.069     2.094     2.263
    49   1 H        0.924     0.067     2.117     2.275
    50   1 H        0.924     0.067     2.117     2.275
    51   1 H        0.924     0.055     2.259     2.351
    52   1 H        0.924     0.056     2.251     2.346
    53   1 H        0.926     0.045     2.384     2.414
    54   1 H        0.926     0.059     2.216     2.328
    55   1 H        0.924     0.054     2.268     2.355
    56   1 H        0.924     0.056     2.245     2.343
    57   1 H        0.925     0.082     1.954     2.186
    58   1 H        0.925     0.082     1.959     2.189
    59   1 H        0.924     0.049     2.337     2.391
    60   1 H        0.924     0.053     2.287     2.365
    61   1 H        0.926     0.047     2.354     2.400
    62   1 H        0.924     0.076     2.022     2.224
    63   1 H        0.924     0.079     1.986     2.204
    64   1 H        0.925     0.080     1.984     2.203
    65   1 H        0.924     0.038     2.473     2.459
    66   1 H        0.925     0.072     2.066     2.248
    67   1 H        0.925     0.036     2.497     2.471
    68   1 H        0.925     0.051     2.309     2.376
    69   1 H        0.925     0.034     2.533     2.489
    70   1 H        0.925     0.055     2.259     2.350
    71   1 H        0.926     0.056     2.245     2.343
    72   1 H        0.860     0.157     1.351     1.821

Wiberg/Mayer (AO) data.
largest (>0.10) Wiberg bond orders for each atom

     #   Z sym  total        # sym  WBO       # sym  WBO       # sym  WBO
 ---------------------------------------------------------------------------
     1   7 N    3.046 --     2 C    1.958    72 H    0.941
     2   6 C    3.924 --     1 N    1.958     3 C    0.995    47 H    0.891
     3   6 C    3.976 --     2 C    0.995     4 C    0.967    14 C    0.961
                            31 C    0.940
     4   6 C    3.949 --    13 C    1.413     5 C    1.369     3 C    0.967
     5   6 C    3.962 --     6 C    1.400     4 C    1.369    34 H    0.958
     6   6 C    3.905 --     5 C    1.400     9 C    1.222     7 O    1.099
     7   8 O    2.254 --     6 C    1.099     8 C    0.978
     8   6 C    3.932 --     7 O    0.978    36 H    0.977    35 H    0.974
                            37 H    0.973
     9   6 C    3.902 --    12 C    1.392     6 C    1.222    10 O    1.102
    10   8 O    2.253 --     9 C    1.102    11 C    0.977
    11   6 C    3.931 --    10 O    0.977    39 H    0.977    40 H    0.974
                            38 H    0.973
    12   6 C    3.963 --    13 C    1.404     9 C    1.392    41 H    0.964
    13   6 C    3.954 --     4 C    1.413    12 C    1.404    42 H    0.962
    14   6 C    3.973 --    15 C    0.981    44 H    0.972    43 H    0.969
                             3 C    0.961
    15   6 C    3.986 --    16 C    1.058    14 C    0.981    45 H    0.962
                            46 H    0.928
    16   6 C    3.600 --    17 N    1.396    15 C    1.058    48 H    0.957
    17   7 N    3.479 --    16 C    1.396    30 C    0.998    18 C    0.988
    18   6 C    3.955 --    17 N    0.988    50 H    0.968    19 C    0.966
                            49 H    0.964
    19   6 C    3.976 --    20 C    1.008    52 H    0.972    51 H    0.972
                            18 C    0.966
    20   6 C    3.944 --    21 C    1.409    29 C    1.380    19 C    1.008
    21   6 C    3.950 --    22 C    1.417    20 C    1.409    53 H    0.968
    22   6 C    3.959 --    21 C    1.417    23 C    1.383    54 H    0.963
    23   6 C    3.895 --    22 C    1.383    26 C    1.219    24 O    1.111
    24   8 O    2.255 --    23 C    1.111    25 C    0.976
    25   6 C    3.928 --    57 H    0.977    24 O    0.976    55 H    0.973
                            56 H    0.972
    26   6 C    3.898 --    29 C    1.395    23 C    1.219    27 O    1.104
    27   8 O    2.255 --    26 C    1.104    28 C    0.978
    28   6 C    3.932 --    27 O    0.978    58 H    0.977    59 H    0.973
                            60 H    0.973
    29   6 C    3.959 --    26 C    1.395    20 C    1.380    61 H    0.962
    30   6 C    3.958 --    17 N    0.998    64 H    0.978    62 H    0.966
                            63 H    0.961
    31   6 C    3.972 --    33 C    1.009    32 C    1.009    65 H    0.961
                             3 C    0.940
    32   6 C    3.978 --    31 C    1.009    67 H    0.982    68 H    0.981
                            66 H    0.973
    33   6 C    3.985 --    31 C    1.009    69 H    0.983    70 H    0.980
                            71 H    0.979
    34   1 H    0.996 --     5 C    0.958
    35   1 H    0.993 --     8 C    0.974
    36   1 H    0.993 --     8 C    0.977
    37   1 H    0.994 --     8 C    0.973
    38   1 H    0.993 --    11 C    0.973
    39   1 H    0.993 --    11 C    0.977
    40   1 H    0.993 --    11 C    0.974
    41   1 H    0.996 --    12 C    0.964
    42   1 H    0.998 --    13 C    0.962
    43   1 H    0.995 --    14 C    0.969
    44   1 H    0.996 --    14 C    0.972
    45   1 H    0.995 --    15 C    0.962
    46   1 H    0.971 --    15 C    0.928
    47   1 H    0.988 --     2 C    0.891
    48   1 H    0.995 --    16 C    0.957
    49   1 H    0.991 --    18 C    0.964
    50   1 H    0.994 --    18 C    0.968
    51   1 H    0.996 --    19 C    0.972
    52   1 H    0.996 --    19 C    0.972
    53   1 H    0.997 --    21 C    0.968
    54   1 H    0.995 --    22 C    0.963
    55   1 H    0.992 --    25 C    0.973
    56   1 H    0.991 --    25 C    0.972
    57   1 H    0.992 --    25 C    0.977
    58   1 H    0.993 --    28 C    0.977
    59   1 H    0.993 --    28 C    0.973
    60   1 H    0.993 --    28 C    0.973
    61   1 H    0.997 --    29 C    0.962
    62   1 H    0.985 --    30 C    0.966
    63   1 H    0.987 --    30 C    0.961
    64   1 H    0.993 --    30 C    0.978
    65   1 H    0.993 --    31 C    0.961
    66   1 H    0.990 --    32 C    0.973
    67   1 H    0.997 --    32 C    0.982
    68   1 H    0.994 --    32 C    0.981
    69   1 H    0.997 --    33 C    0.983
    70   1 H    0.994 --    33 C    0.980
    71   1 H    0.994 --    33 C    0.979
    72   1 H    0.970 --     1 N    0.941
 ---------------------------------------------------------------------------

molecular dipole:
                 x           y           z       tot (Debye)
 q only:        0.675      -0.041      -0.754
   full:        0.975      -0.057      -0.940       3.445

           -------------------------------------------------
          | TOTAL ENERGY              -99.406461459617 Eh   |
          | GRADIENT NORM               0.007815713158 Eh/α |
          | HOMO-LUMO GAP               1.673758667948 eV   |
           -------------------------------------------------

 * finished run on 2024/04/06 at 11:15:22.216
