   * xtb version 6.6.1 (8d0f1dd) compiled by 'conda@1efc2f54142f' on 2023-08-01
          program call               : xtb struc.xyz --opt loose --input .xc1 --gfn2

   ID    Z sym.   atoms
    1    6 C      1, 3, 5-7, 10, 11, 14
    2    7 N      2, 4, 9, 13
    3    8 O      8, 12
    4    1 H      15-25
constraining bond 2 25 to    5.0600000 Å, actual value:    3.1552271 Å

          :  Hamiltonian                  GFN2-xTB          :
 * total energy  :   -35.7670879 Eh     change       -0.6633627E-10 Eh
 * total energy  :   -38.7006400 Eh     change       -0.2933552E+01 Eh
 * total energy  :   -40.5983811 Eh     change       -0.1897741E+01 Eh
 * total energy  :   -41.5446167 Eh     change       -0.9462356E+00 Eh
 * total energy  :   -41.8490198 Eh     change       -0.3044031E+00 Eh
 * total energy  :   -41.9019366 Eh     change       -0.5291679E-01 Eh
 * total energy  :   -41.9411496 Eh     change       -0.3921300E-01 Eh
 * total energy  :   -41.9890913 Eh     change       -0.4794171E-01 Eh
 * total energy  :   -42.0218407 Eh     change       -0.3274940E-01 Eh
 * total energy  :   -42.0461764 Eh     change       -0.2433566E-01 Eh
 * total energy  :   -42.0978794 Eh     change       -0.3009677E-02 Eh
 * total energy  :   -42.0989743 Eh     change       -0.1094887E-02 Eh
 * total energy  :   -42.0995208 Eh     change       -0.5465327E-03 Eh
 * total energy  :   -42.0998444 Eh     change       -0.3236087E-03 Eh
 * total energy  :   -42.1002883 Eh     change       -0.4438040E-03 Eh
 * total energy  :   -42.1013288 Eh     change       -0.1040539E-02 Eh
 * total energy  :   -42.1017608 Eh     change       -0.4319827E-03 Eh
 * total energy  :   -42.1018181 Eh     change       -0.5733645E-04 Eh
 * total energy  :   -42.1018637 Eh     change       -0.4559243E-04 Eh
   *** GEOMETRY OPTIMIZATION CONVERGED AFTER 25 ITERATIONS ***

 final structure:
================
25
 xtb: 6.6.1 (8d0f1dd)
C            3.24541066195581        1.24307481911485        0.01902767252752
N            2.27272649727823        0.18875155796052        0.00122051233252
C            2.51766952255684       -1.15312323216754       -0.00547834421488
N            1.42712171264919       -1.87971908705555       -0.00651125947351
C            0.40781579509577       -0.98893962134174        0.00044605870826
C            0.92581121840476        0.32184018063878        0.00634178973436
C            0.06457755992516        1.48692928581963       -0.00146543550592
O            0.43578719044185        2.63631820502788       -0.01205435716649
N           -1.28183392508515        1.12508927414993        0.00014448337231
C           -2.26736472556894        2.19625928848227       -0.00353993819311
C           -1.81569574725784       -0.15179231128362        0.00315058417313
O           -2.99915438626802       -0.35154471090179        0.00615067385246
N           -0.90874881786642       -1.23516033624719        0.00131225732494
C           -1.42063551467248       -2.58149336234827       -0.00125856075119
H            3.75522302237071        1.26861345146330        0.98462784372325
H            3.98978061585393        1.07881618015723       -0.76048874911513
H            2.74284877442040        2.19596654448010       -0.14179084061643
H            3.50780160029665       -1.56525879979468       -0.01035801949807
H           -1.73952514274500        3.14662468112113        0.00361349095066
H           -2.89572779743582        2.11800405845271       -0.89111515273060
H           -2.90900042199633        2.11082139891684        0.87372807104009
H           -1.06188010310607       -3.11371503735648        0.88170393329214
H           -1.07598205459450       -3.10560276314676       -0.89477601130356
H           -2.50909903951825       -2.53629729418483        0.00705416891527
H            0.75250501896532       -4.63622382835662       -0.02851325347800

          :  Hamiltonian                  GFN2-xTB          :
         :: total energy             -42.101863706723 Eh    ::
         :: gradient norm              0.001522564213 Eh/a0 ::
         :: HOMO-LUMO gap              0.288478803834 eV    ::
         :: SCC energy               -42.613592145690 Eh    ::
         :: -> dispersion             -0.022593760836 Eh    ::
         :: repulsion energy           0.511630830334 Eh    ::

    * Orbital Energies and Occupations

         #    Occupation            Energy/Eh            Energy/eV
      -------------------------------------------------------------
         1        2.0000           -0.8937245             -24.3195
       ...           ...                  ...                  ...
        25        2.0000           -0.6655841             -18.1115
        26        2.0000           -0.6591552             -17.9365
        27        2.0000           -0.6415999             -17.4588
        28        2.0000           -0.6399837             -17.4148
        29        2.0000           -0.6334317             -17.2366
        30        1.9997           -0.6173054             -16.7977
        31        1.9993           -0.6107374             -16.6190
        32        1.9988           -0.6065992             -16.5064
        33        1.9954           -0.5961096             -16.2210
        34        1.9759           -0.5829249             -15.8622
        35        1.9400           -0.5755580             -15.6617
        36        1.9269           -0.5739437             -15.6178
        37        1.4024           -0.5547903             -15.0966 (HOMO)
        38        0.7617           -0.5441889             -14.8081 (LUMO)
        39        0.0000           -0.4303095             -11.7093
        40                         -0.3884071             -10.5691
        41                         -0.3746211             -10.1940
        42                         -0.2951796              -8.0322
        43                         -0.2061749              -5.6103
        44                         -0.1599386              -4.3521
        45                         -0.1369119              -3.7256
        46                         -0.0823828              -2.2418
        47                         -0.0575039              -1.5648
        48                         -0.0367221              -0.9993
       ...                                ...                  ...
        67                          0.5440596              14.8046
      -------------------------------------------------------------
                  HL-Gap            0.0106014 Eh            0.2885 eV

     #   Z          covCN         q      C6AA      α(0)
     1   6 C        3.689    -0.083    22.283     6.756
     2   7 N        2.828     0.054    20.296     6.691
     3   6 C        3.194     0.101    25.279     8.198
     4   7 N        1.890    -0.222    26.679     7.657
     5   6 C        3.174     0.135    24.691     8.115
     6   6 C        3.114    -0.002    27.909     8.654
     7   6 C        2.763     0.274    22.367     7.745
     8   8 O        0.858    -0.336    20.440     6.062
     9   7 N        2.745    -0.075    22.689     7.074
    10   6 C        3.710    -0.063    21.854     6.681
    11   6 C        2.727     0.317    21.608     7.610
    12   8 O        0.860    -0.335    20.423     6.059
    13   7 N        2.738    -0.016    21.569     6.898
    14   6 C        3.700    -0.075    22.094     6.722
    15   1 H        0.924     0.110     1.698     2.038
    16   1 H        0.924     0.107     1.725     2.054
    17   1 H        0.925     0.125     1.573     1.961
    18   1 H        0.926     0.111     1.692     2.034
    19   1 H        0.925     0.117     1.635     1.999
    20   1 H        0.924     0.108     1.717     2.049
    21   1 H        0.924     0.108     1.715     2.048
    22   1 H        0.924     0.110     1.699     2.038
    23   1 H        0.924     0.110     1.698     2.038
    24   1 H        0.925     0.133     1.516     1.925
    25   1 H        0.000     0.186     2.917     3.123

Wiberg/Mayer (AO) data.
largest (>0.10) Wiberg bond orders for each atom

     #   Z sym  total        # sym  WBO       # sym  WBO       # sym  WBO
 ---------------------------------------------------------------------------
     1   6 C    3.912 --     2 N    0.995    17 H    0.964    16 H    0.958
                            15 H    0.948
     2   7 N    3.639 --     6 C    1.255     3 C    1.233     1 C    0.995
     3   6 C    3.854 --     4 N    1.519     2 N    1.233    18 H    0.955
     4   7 N    3.019 --     3 C    1.519     5 C    1.254
     5   6 C    3.887 --     4 N    1.254    13 N    1.238     6 C    1.230
     6   6 C    3.796 --     2 N    1.255     5 C    1.230     7 C    1.062
     7   6 C    3.952 --     8 O    1.693     9 N    1.103     6 C    1.062
     8   8 O    1.992 --     7 C    1.693     9 N    0.137
     9   7 N    3.536 --    11 C    1.123     7 C    1.103    10 C    0.972
                             8 O    0.137    12 O    0.128
    10   6 C    3.892 --     9 N    0.972    19 H    0.967    21 H    0.954
                            20 H    0.953
    11   6 C    3.952 --    12 O    1.705     9 N    1.123    13 N    1.035
    12   8 O    2.006 --    11 C    1.705     9 N    0.128
    13   7 N    3.470 --     5 C    1.238    11 C    1.035    14 C    0.989
    14   6 C    3.894 --    13 N    0.989    24 H    0.959    22 H    0.945
                            23 H    0.944
    15   1 H    0.975 --     1 C    0.948
    16   1 H    0.980 --     1 C    0.958
    17   1 H    0.982 --     1 C    0.964
    18   1 H    0.986 --     3 C    0.955
    19   1 H    0.985 --    10 C    0.967
    20   1 H    0.972 --    10 C    0.953
    21   1 H    0.972 --    10 C    0.954
    22   1 H    0.966 --    14 C    0.945
    23   1 H    0.966 --    14 C    0.944
    24   1 H    0.980 --    14 C    0.959
    25   1 H    0.062
 ---------------------------------------------------------------------------

molecular dipole:
                 x           y           z       tot (Debye)
 q only:        1.547      -1.978       0.006
   full:        1.835      -1.858       0.013       6.638

           -------------------------------------------------
          | TOTAL ENERGY              -42.101863706723 Eh   |
          | GRADIENT NORM               0.001522564213 Eh/α |
          | HOMO-LUMO GAP               0.288478803834 eV   |
           -------------------------------------------------

 * finished run on 2024/06/05 at 19:57:54.648
