   * xtb version 6.6.1 (8d0f1dd) compiled by 'conda@1efc2f54142f' on 2023-08-01
          program call               : xtb xtbopt.xyz --opt crude --input .xc2 --gfn2

   ID    Z sym.   atoms
    1    6 C      1, 3, 5-7, 10, 11, 14
    2    7 N      2, 4, 9, 13
    3    8 O      8, 12
    4    1 H      15-25
########################################################################
[WARNING] Please study the warnings concerning your input carefully
-1- readin_getIntValue: could not parse ''
########################################################################

          :  Hamiltonian                  GFN2-xTB          :
 * total energy  :   -42.1695513 Eh     change        0.4263256E-13 Eh
 * total energy  :   -42.1734299 Eh     change       -0.3878588E-02 Eh
 * total energy  :   -42.1743345 Eh     change       -0.9046542E-03 Eh
 * total energy  :   -42.1746358 Eh     change       -0.3012648E-03 Eh
   *** GEOMETRY OPTIMIZATION CONVERGED AFTER 4 ITERATIONS ***

 final structure:
================
25
 xtb: 6.6.1 (8d0f1dd)
C            3.23768590866319        0.97011191441091        0.38038428241438
N            2.18255274160485       -0.00554283662599        0.31909185868331
C            2.30122142390060       -1.32482769575604        0.45601091692355
N            1.09688773683866       -1.91227697342576        0.30077039297787
C            0.18288201247629       -0.93286162900336        0.05495687776172
C            0.85970580404324        0.27572556192636        0.06824039990983
C            0.16770177221992        1.52620593873391       -0.15261898834404
O            0.64472491632991        2.63554719164822       -0.15436813679069
N           -1.21210822091622        1.28963018522543       -0.37872731373046
C           -1.98907270272787        2.49302569223758       -0.62866942113288
C           -1.85578735456600        0.12837096025094       -0.38831821122141
O           -1.24591523101767       -3.23952138319330        0.54723689066705
N           -1.15240508863835       -1.00461952981298       -0.16135100670333
C           -1.82246354111890       -2.30163235827171       -0.29973279570597
H            3.90400519534905        0.75462363405133        1.21403867181565
H            3.81529415305243        0.95921109121483       -0.54584457977204
H            2.79618208497976        1.95874521142217        0.50112407874565
H            3.21362421964574       -1.84709231557751        0.66348795298114
H           -1.46176561069238        3.11502191465242       -1.35167096692445
H           -2.96679613055204        2.21026987215818       -1.00565366325998
H           -2.09586529252622        3.06343987740234        0.29440322758066
H           -1.68331325931576       -2.65227170157884       -1.33185921376241
H           -2.88813947029765       -2.13516999667701       -0.11937858862707
H           -1.72708356491754       -3.30919624212922        1.38140844906779
H            0.85867901227877       -2.89667784168458        0.36821050435021

          :  Hamiltonian                  GFN2-xTB          :
         :: total energy             -42.174635788042 Eh    ::
         :: gradient norm              0.004594194738 Eh/a0 ::
         :: HOMO-LUMO gap              2.240486574385 eV    ::
         :: SCC energy               -42.680325698129 Eh    ::
         :: -> dispersion             -0.022475915528 Eh    ::
         :: repulsion energy           0.505576524983 Eh    ::

    * Orbital Energies and Occupations

         #    Occupation            Energy/Eh            Energy/eV
      -------------------------------------------------------------
         1        2.0000           -0.9035300             -24.5863
       ...           ...                  ...                  ...
        25        2.0000           -0.6623539             -18.0236
        26        2.0000           -0.6521813             -17.7468
        27        2.0000           -0.6430800             -17.4991
        28        1.9999           -0.6364945             -17.3199
        29        1.9999           -0.6302545             -17.1501
        30        1.9997           -0.6110689             -16.6280
        31        1.9997           -0.6108550             -16.6222
        32        1.9994           -0.5994848             -16.3128
        33        1.9991           -0.5913173             -16.0906
        34        1.9978           -0.5780263             -15.7289
        35        1.9955           -0.5664875             -15.4149
        36        1.9885           -0.5517194             -15.0130
        37        1.8563           -0.5105802             -13.8936 (HOMO)
        38        0.1331           -0.4282439             -11.6531 (LUMO)
        39        0.0236           -0.3999849             -10.8841
        40        0.0073           -0.3813036             -10.3758
        41        0.0000           -0.2812131              -7.6522
        42                         -0.1908744              -5.1940
        43                         -0.1776742              -4.8348
        44                         -0.1349632              -3.6725
        45                         -0.1240117              -3.3745
        46                         -0.0927713              -2.5244
        47                         -0.0627633              -1.7079
        48                         -0.0245568              -0.6682
       ...                                ...                  ...
        67                          0.5450157              14.8306
      -------------------------------------------------------------
                  HL-Gap            0.0823364 Eh            2.2405 eV

     #   Z          covCN         q      C6AA      α(0)
     1   6 C        3.691    -0.088    22.383     6.770
     2   7 N        2.835     0.070    20.013     6.644
     3   6 C        3.060     0.054    26.741     8.480
     4   7 N        2.792    -0.061    22.419     7.032
     5   6 C        3.063     0.115    25.415     8.267
     6   6 C        3.116    -0.013    28.170     8.694
     7   6 C        2.771     0.260    22.618     7.789
     8   8 O        0.857    -0.368    21.054     6.152
     9   7 N        2.750     0.002    21.219     6.842
    10   6 C        3.717    -0.070    21.961     6.695
    11   6 C        1.893    -0.090    33.591     9.360
    12   8 O        1.657    -0.423    21.295     6.230
    13   7 N        2.744    -0.016    21.558     6.896
    14   6 C        3.624     0.122    18.995     6.281
    15   1 H        0.925     0.101     1.778     2.085
    16   1 H        0.924     0.106     1.728     2.056
    17   1 H        0.925     0.131     1.529     1.934
    18   1 H        0.926     0.121     1.607     1.982
    19   1 H        0.925     0.100     1.782     2.088
    20   1 H        0.925     0.100     1.787     2.091
    21   1 H        0.924     0.095     1.831     2.116
    22   1 H        0.923     0.087     1.906     2.159
    23   1 H        0.924     0.090     1.877     2.142
    24   1 H        0.805     0.325     0.651     1.267
    25   1 H        0.860     0.249     0.886     1.474

Wiberg/Mayer (AO) data.
largest (>0.10) Wiberg bond orders for each atom

     #   Z sym  total        # sym  WBO       # sym  WBO       # sym  WBO
 ---------------------------------------------------------------------------
     1   6 C    3.920 --     2 N    0.987    15 H    0.967    17 H    0.963
                            16 H    0.955
     2   7 N    3.663 --     3 C    1.376     6 C    1.157     1 C    0.987
     3   6 C    3.841 --     2 N    1.376     4 N    1.287    18 H    0.953
     4   7 N    3.588 --     3 C    1.287     5 C    1.196    25 H    0.899
     5   6 C    3.940 --     6 C    1.363     4 N    1.196    13 N    1.177
     6   6 C    3.919 --     5 C    1.363     2 N    1.157     7 C    1.085
     7   6 C    3.928 --     8 O    1.700     6 C    1.085     9 N    1.041
     8   8 O    2.024 --     7 C    1.700     9 N    0.126
     9   7 N    3.650 --    11 C    1.407     7 C    1.041    10 C    0.980
                             8 O    0.126
    10   6 C    3.929 --     9 N    0.980    20 H    0.976    19 H    0.966
                            21 H    0.962
    11   6 C    2.867 --     9 N    1.407    13 N    1.251
    12   8 O    2.004 --    14 C    1.032    24 H    0.881
    13   7 N    3.604 --    11 C    1.251     5 C    1.177    14 C    0.942
    14   6 C    3.925 --    12 O    1.032    23 H    0.962    22 H    0.952
                            13 N    0.942
    15   1 H    0.987 --     1 C    0.967
    16   1 H    0.985 --     1 C    0.955
    17   1 H    0.982 --     1 C    0.963
    18   1 H    0.984 --     3 C    0.953
    19   1 H    0.988 --    10 C    0.966
    20   1 H    0.989 --    10 C    0.976
    21   1 H    0.988 --    10 C    0.962
    22   1 H    0.989 --    14 C    0.952
    23   1 H    0.991 --    14 C    0.962
    24   1 H    0.894 --    12 O    0.881
    25   1 H    0.937 --     4 N    0.899
 ---------------------------------------------------------------------------

molecular dipole:
                 x           y           z       tot (Debye)
 q only:        0.988      -1.866       0.464
   full:        1.316      -2.283       0.679       6.915

           -------------------------------------------------
          | TOTAL ENERGY              -42.174635788042 Eh   |
          | GRADIENT NORM               0.004594194738 Eh/α |
          | HOMO-LUMO GAP               2.240486574385 eV   |
           -------------------------------------------------

 * finished run on 2024/06/05 at 19:58:06.691
