   * xtb version 6.6.1 (8d0f1dd) compiled by 'conda@1efc2f54142f' on 2023-08-01
          program call               : xtb struc.xyz --opt loose --input .xc1 --gfn2

   ID    Z sym.   atoms
    1    6 C      1, 3, 5-7, 10, 11, 14
    2    7 N      2, 4, 9, 13
    3    8 O      8, 12
    4    1 H      15-25
constraining bond 5 22 to    3.7133300 Å, actual value:    2.7765911 Å

          :  Hamiltonian                  GFN2-xTB          :
 * total energy  :   -43.8268186 Eh     change       -0.2401990E-09 Eh
 * total energy  :   -47.1100414 Eh     change       -0.3283223E+01 Eh
 * total energy  :   -52.1803226 Eh     change       -0.5070281E+01 Eh
 * total energy  :   -58.7421287 Eh     change       -0.6561806E+01 Eh
 * total energy  :   -44.9737867 Eh     change        0.1376834E+02 Eh
 * total energy  :   -56.3445003 Eh     change       -0.1137071E+02 Eh
 * total energy  :   -56.6835796 Eh     change       -0.3390793E+00 Eh
 * total energy  :   -58.9354944 Eh     change       -0.2251915E+01 Eh
 * total energy  :   -56.2227533 Eh     change        0.2712741E+01 Eh
 * total energy  :   -59.3824326 Eh     change       -0.3159679E+01 Eh
 * total energy  :   -59.7382929 Eh     change       -0.1491264E-03 Eh
 * total energy  :   -59.7383942 Eh     change       -0.1013467E-03 Eh
 * total energy  :   -59.7384804 Eh     change       -0.8619524E-04 Eh
 * total energy  :   -59.7385491 Eh     change       -0.6862224E-04 Eh
 * total energy  :   -59.7385738 Eh     change       -0.2472049E-04 Eh
 * total energy  :   -59.7385950 Eh     change       -0.2121292E-04 Eh
 * total energy  :   -59.7378797 Eh     change        0.7152621E-03 Eh
 * total energy  :   -59.7386171 Eh     change       -0.7373595E-03 Eh
 * total energy  :   -59.7386233 Eh     change       -0.6247919E-05 Eh
   *** GEOMETRY OPTIMIZATION CONVERGED AFTER 70 ITERATIONS ***

 final structure:
================
25
 xtb: 6.6.1 (8d0f1dd)
C            2.81790461264755        0.81821077623822       -0.04610233316149
N            1.91055605713241       -0.30806754324189        0.04691569216048
C            2.52201726576872       -1.53872925708019        0.05553466809383
N            1.88227297592182       -2.62765191812055        0.12028764540653
C           -0.21498875792079       -1.39248525369351        0.63590782137746
C            0.55464831382983       -0.18475021745317        0.14598633032767
C           -0.12966212816568        1.07638186046946       -0.04319030401479
O            0.41534109135292        2.12787925216135       -0.36126779156856
N           -1.51696471432158        1.09059575581719        0.14785283811169
C           -2.19586474081749        2.36104716625172        0.01058313338050
C           -2.32771446455152       -0.04026591740857        0.18006340439040
O           -3.51050650599119        0.01351167271558       -0.00786415503565
N           -1.66773169374866       -1.21396359789904        0.49519571808206
C           -1.07670207110862       -2.12348681740312       -0.42001352285874
H            3.37416117849904        0.92095912800558        0.88936882295408
H            3.52570366210128        0.66462406188295       -0.86158631060285
H            2.26770512417290        1.74098598606373       -0.23008341293176
H            3.61102981320694       -1.46666892333526       -0.01253186441693
H           -1.50175237100693        3.16272797452993        0.26196698023399
H           -2.54634126111024        2.50703144359102       -1.01560452815505
H           -3.06296809238400        2.37019936517119        0.67117586937095
H           -0.06265459165971       -1.61947557361300        0.96044114404528
H           -1.03376730011324       -1.84823799749244       -1.46715252588103
H           -1.26617240998204       -3.17301206201826       -0.22963711037189
H            2.39288252234939       -3.49912082253724        0.10492540895905

          :  Hamiltonian                  GFN2-xTB          :
         :: total energy             -59.738623332186 Eh    ::
         :: gradient norm              0.001429788526 Eh/a0 ::
         :: HOMO-LUMO gap              1.511329785758 eV    ::
         :: SCC energy               -42.669604438945 Eh    ::
         :: -> dispersion             -0.022399608365 Eh    ::
         :: repulsion energy           2.245921262115 Eh    ::

    * Orbital Energies and Occupations

         #    Occupation            Energy/Eh            Energy/eV
      -------------------------------------------------------------
         1        2.0000           -0.8969491             -24.4072
       ...           ...                  ...                  ...
        25        1.9961           -0.6686838             -18.1958
        26        1.9953           -0.6643285             -18.0773
        27        1.9927           -0.6539315             -17.7944
        28        1.9916           -0.6506290             -17.7045
        29        1.9911           -0.6492394             -17.6667
        30        1.9872           -0.6405169             -17.4294
        31        1.9736           -0.6231464             -16.9567
        32        1.9637           -0.6154655             -16.7477
        33        1.9240           -0.5974340             -16.2570
        34        1.8807           -0.5861830             -15.9509
        35        1.8448           -0.5794823             -15.7685
        36        1.8265           -0.5765957             -15.6900
        37        1.7654           -0.5686187             -15.4729 (HOMO)
        38        0.8411           -0.5130783             -13.9616 (LUMO)
        39        0.0247           -0.4165903             -11.3360
        40        0.0087           -0.3917035             -10.6588
        41        0.0019           -0.3557726              -9.6811
        42        0.0001           -0.2791562              -7.5962
        43        0.0000           -0.2021662              -5.5012
        44        0.0000           -0.1768846              -4.8133
        45        0.0000           -0.1503239              -4.0905
        46                         -0.1088300              -2.9614
        47                         -0.0755155              -2.0549
        48                         -0.0547468              -1.4897
       ...                                ...                  ...
        67                         10.6604477             290.0855
      -------------------------------------------------------------
                  HL-Gap            0.0555403 Eh            1.5113 eV

     #   Z          covCN         q      C6AA      α(0)
     1   6 C        3.708    -0.096    22.481     6.777
     2   7 N        2.740     0.052    20.344     6.699
     3   6 C        2.785     0.121    25.317     8.242
     4   7 N        1.780    -0.255    27.453     7.760
     5   6 C        3.792    -0.008    20.736     6.485
     6   6 C        2.902     0.007    27.853     8.653
     7   6 C        2.764     0.258    22.660     7.796
     8   8 O        0.859    -0.350    20.700     6.100
     9   7 N        2.741    -0.067    22.539     7.051
    10   6 C        3.706    -0.058    21.777     6.671
    11   6 C        2.700     0.333    21.343     7.561
    12   8 O        0.859    -0.291    19.627     5.940
    13   7 N        2.738    -0.112    23.435     7.190
    14   6 C        3.740     0.010    20.482     6.457
    15   1 H        0.924     0.111     1.686     2.031
    16   1 H        0.924     0.109     1.708     2.044
    17   1 H        0.925     0.150     1.388     1.843
    18   1 H        0.924     0.090     1.876     2.142
    19   1 H        0.925     0.127     1.558     1.952
    20   1 H        0.924     0.120     1.614     1.987
    21   1 H        0.925     0.121     1.607     1.983
    22   1 H        0.943     0.194     1.130     1.662
    23   1 H        0.925     0.091     1.871     2.139
    24   1 H        0.925     0.130     1.531     1.935
    25   1 H        0.860     0.213     1.044     1.600

Wiberg/Mayer (AO) data.
largest (>0.10) Wiberg bond orders for each atom

     #   Z sym  total        # sym  WBO       # sym  WBO       # sym  WBO
 ---------------------------------------------------------------------------
     1   6 C    3.857 --     2 N    0.986    16 H    0.952    15 H    0.941
                            17 H    0.922
     2   7 N    3.521 --     6 C    1.239     3 C    1.158     1 C    0.986
     3   6 C    3.883 --     4 N    1.761     2 N    1.158    18 H    0.910
     4   7 N    2.808 --     3 C    1.761    25 H    0.918
     5   6 C    3.837 --     6 C    1.027    22 H    0.932    13 N    0.921
                            14 C    0.867
     6   6 C    3.581 --     2 N    1.239     7 C    1.128     5 C    1.027
     7   6 C    3.883 --     8 O    1.585     6 C    1.128     9 N    1.083
     8   8 O    1.844 --     7 C    1.585     9 N    0.102
     9   7 N    3.417 --     7 C    1.083    11 C    1.077    10 C    0.988
                            12 O    0.109     8 O    0.102
    10   6 C    3.846 --     9 N    0.988    19 H    0.945    21 H    0.945
                            20 H    0.927
    11   6 C    3.934 --    12 O    1.717     9 N    1.077    13 N    1.069
    12   8 O    2.001 --    11 C    1.717     9 N    0.109
    13   7 N    3.130 --    11 C    1.069    14 C    0.962     5 C    0.921
    14   6 C    3.811 --    23 H    0.962    13 N    0.962    24 H    0.946
                             5 C    0.867
    15   1 H    0.961 --     1 C    0.941
    16   1 H    0.970 --     1 C    0.952
    17   1 H    0.962 --     1 C    0.922
    18   1 H    0.946 --     3 C    0.910
    19   1 H    0.963 --    10 C    0.945
    20   1 H    0.944 --    10 C    0.927
    21   1 H    0.961 --    10 C    0.945
    22   1 H    0.954 --     5 C    0.932
    23   1 H    0.979 --    14 C    0.962
    24   1 H    0.964 --    14 C    0.946
    25   1 H    0.942 --     4 N    0.918
 ---------------------------------------------------------------------------

molecular dipole:
                 x           y           z       tot (Debye)
 q only:        1.763      -1.000       0.176
   full:        2.230      -1.073       0.066       6.293

           -------------------------------------------------
          | TOTAL ENERGY              -59.738623332186 Eh   |
          | GRADIENT NORM               0.001429788526 Eh/α |
          | HOMO-LUMO GAP               1.511329785758 eV   |
           -------------------------------------------------

 * finished run on 2024/06/05 at 19:58:58.904
