   * xtb version 6.6.1 (8d0f1dd) compiled by 'conda@1efc2f54142f' on 2023-08-01
          program call               : xtb xtbopt.xyz --opt crude --input .xc2 --gfn2

   ID    Z sym.   atoms
    1    6 C      1, 3, 5-7, 10, 11, 14
    2    7 N      2, 4, 9, 13
    3    8 O      8, 12
    4    1 H      15-25
########################################################################
[WARNING] Please study the warnings concerning your input carefully
-1- readin_getIntValue: could not parse ''
########################################################################

          :  Hamiltonian                  GFN2-xTB          :
 * total energy  :   -40.4235409 Eh     change       -0.1350031E-12 Eh
 * total energy  :   -42.1322342 Eh     change       -0.1708693E+01 Eh
 * total energy  :   -42.1491717 Eh     change       -0.1693746E-01 Eh
 * total energy  :   -42.1534467 Eh     change       -0.4275036E-02 Eh
 * total energy  :   -42.1542639 Eh     change       -0.8171303E-03 Eh
 * total energy  :   -42.1548115 Eh     change       -0.5476511E-03 Eh
 * total energy  :   -42.1552665 Eh     change       -0.4549926E-03 Eh
 * total energy  :   -42.1556284 Eh     change       -0.3619201E-03 Eh
 * total energy  :   -42.1558838 Eh     change       -0.2553446E-03 Eh
   *** GEOMETRY OPTIMIZATION CONVERGED AFTER 9 ITERATIONS ***

 final structure:
================
25
 xtb: 6.6.1 (8d0f1dd)
C            2.81258345375541        0.82283808985867       -0.05850934751594
N            1.90347031924476       -0.30244069543449        0.04218511895105
C            2.51937322264935       -1.52941377910270        0.03252422372550
N            1.89431674494299       -2.62856649669410        0.06575240057680
C           -0.26352598527978       -1.33562067705989        0.53753871783807
C            0.54806763913848       -0.17532209288513        0.14841324851409
C           -0.13116177693368        1.09557350318301       -0.00910838487698
O            0.42538029532284        2.15995617089918       -0.26228120695530
N           -1.52265369302802        1.10811609603946        0.12891488362568
C           -2.19711494294080        2.37986815786174       -0.01640701200526
C           -2.33309049254123       -0.02499873195548        0.14780115490408
O           -3.51270474274739        0.03134241203363       -0.06632467641544
N           -1.68253261933342       -1.19555697913134        0.48433653584917
C           -1.10395639114346       -2.12857888524277       -0.42757780171777
H            3.37112071912749        0.92995543086270        0.87477051146851
H            3.51601885190405        0.66433228505954       -0.87628829216644
H            2.26233530010916        1.74607073012885       -0.24172334005355
H            3.60914417065395       -1.44801015827508       -0.02236082330276
H           -1.51449176480704        3.17778352081476        0.27631076654939
H           -2.50289623247388        2.54106145334936       -1.05479435949480
H           -3.09168788128662        2.37878116576855        0.60664355181947
H            0.10909745952529       -1.90765225278091        1.37689287726227
H           -1.08607890605745       -1.87941939550786       -1.48257622687981
H           -1.29165817777671       -3.17258938335086       -0.20849078244594
H            2.42307694407675       -3.48927094683714        0.03552988064116

          :  Hamiltonian                  GFN2-xTB          :
         :: total energy             -42.155883764419 Eh    ::
         :: gradient norm              0.009167570390 Eh/a0 ::
         :: HOMO-LUMO gap              1.541098689304 eV    ::
         :: SCC energy               -42.661972984245 Eh    ::
         :: -> dispersion             -0.022314318614 Eh    ::
         :: repulsion energy           0.505939098323 Eh    ::

    * Orbital Energies and Occupations

         #    Occupation            Energy/Eh            Energy/eV
      -------------------------------------------------------------
         1        2.0000           -0.8905476             -24.2330
       ...           ...                  ...                  ...
        25        1.9959           -0.6654543             -18.1079
        26        1.9950           -0.6606369             -17.9768
        27        1.9930           -0.6527186             -17.7614
        28        1.9917           -0.6487001             -17.6520
        29        1.9904           -0.6454153             -17.5626
        30        1.9877           -0.6394554             -17.4005
        31        1.9740           -0.6214185             -16.9097
        32        1.9655           -0.6146348             -16.7251
        33        1.9221           -0.5947605             -16.1843
        34        1.8832           -0.5846570             -15.9093
        35        1.8488           -0.5780966             -15.7308
        36        1.8236           -0.5741093             -15.6223
        37        1.7709           -0.5672039             -15.4344 (HOMO)
        38        0.8320           -0.5105696             -13.8933 (LUMO)
        39        0.0250           -0.4148565             -11.2888
        40        0.0087           -0.3895096             -10.5991
        41        0.0017           -0.3512316              -9.5575
        42        0.0000           -0.2553437              -6.9483
        43        0.0000           -0.1999720              -5.4415
        44        0.0000           -0.1666541              -4.5349
        45        0.0000           -0.1314448              -3.5768
        46                         -0.0967796              -2.6335
        47                         -0.0647815              -1.7628
        48                         -0.0529657              -1.4413
       ...                                ...                  ...
        67                          0.5005135              13.6197
      -------------------------------------------------------------
                  HL-Gap            0.0566343 Eh            1.5411 eV

     #   Z          covCN         q      C6AA      α(0)
     1   6 C        3.709    -0.097    22.494     6.778
     2   7 N        2.739     0.052    20.331     6.697
     3   6 C        2.786     0.121    25.331     8.244
     4   7 N        1.778    -0.257    27.515     7.768
     5   6 C        3.802     0.037    19.945     6.358
     6   6 C        2.897     0.019    27.578     8.610
     7   6 C        2.766     0.259    22.643     7.793
     8   8 O        0.859    -0.351    20.732     6.105
     9   7 N        2.741    -0.065    22.507     7.046
    10   6 C        3.705    -0.058    21.774     6.671
    11   6 C        2.703     0.332    21.355     7.564
    12   8 O        0.859    -0.295    19.697     5.950
    13   7 N        2.736    -0.096    23.115     7.141
    14   6 C        3.740     0.009    20.507     6.461
    15   1 H        0.924     0.111     1.686     2.031
    16   1 H        0.924     0.108     1.713     2.047
    17   1 H        0.924     0.152     1.377     1.835
    18   1 H        0.924     0.090     1.876     2.142
    19   1 H        0.925     0.127     1.559     1.952
    20   1 H        0.924     0.119     1.623     1.992
    21   1 H        0.925     0.120     1.611     1.985
    22   1 H        0.925     0.129     1.542     1.942
    23   1 H        0.925     0.092     1.856     2.131
    24   1 H        0.925     0.128     1.548     1.946
    25   1 H        0.860     0.213     1.041     1.598

Wiberg/Mayer (AO) data.
largest (>0.10) Wiberg bond orders for each atom

     #   Z sym  total        # sym  WBO       # sym  WBO       # sym  WBO
 ---------------------------------------------------------------------------
     1   6 C    3.857 --     2 N    0.986    16 H    0.953    15 H    0.942
                            17 H    0.919
     2   7 N    3.525 --     6 C    1.239     3 C    1.161     1 C    0.986
     3   6 C    3.884 --     4 N    1.758     2 N    1.161    18 H    0.910
     4   7 N    2.803 --     3 C    1.758    25 H    0.918
     5   6 C    3.879 --     6 C    1.054    13 N    0.941    22 H    0.917
                            14 C    0.893
     6   6 C    3.593 --     2 N    1.239     7 C    1.121     5 C    1.054
     7   6 C    3.882 --     8 O    1.583     6 C    1.121     9 N    1.090
     8   8 O    1.843 --     7 C    1.583     9 N    0.103
     9   7 N    3.421 --     7 C    1.090    11 C    1.075    10 C    0.988
                            12 O    0.107     8 O    0.103
    10   6 C    3.848 --     9 N    0.988    21 H    0.946    19 H    0.945
                            20 H    0.928
    11   6 C    3.934 --    12 O    1.712     9 N    1.075    13 N    1.075
    12   8 O    1.993 --    11 C    1.712     9 N    0.107
    13   7 N    3.137 --    11 C    1.075     5 C    0.941    14 C    0.940
    14   6 C    3.813 --    23 H    0.960    24 H    0.948    13 N    0.940
                             5 C    0.893
    15   1 H    0.962 --     1 C    0.942
    16   1 H    0.971 --     1 C    0.953
    17   1 H    0.962 --     1 C    0.919
    18   1 H    0.946 --     3 C    0.910
    19   1 H    0.963 --    10 C    0.945
    20   1 H    0.945 --    10 C    0.928
    21   1 H    0.962 --    10 C    0.946
    22   1 H    0.955 --     5 C    0.917
    23   1 H    0.978 --    14 C    0.960
    24   1 H    0.965 --    14 C    0.948
    25   1 H    0.942 --     4 N    0.918
 ---------------------------------------------------------------------------

molecular dipole:
                 x           y           z       tot (Debye)
 q only:        1.760      -1.009       0.164
   full:        2.229      -1.132       0.106       6.359

           -------------------------------------------------
          | TOTAL ENERGY              -42.155883764419 Eh   |
          | GRADIENT NORM               0.009167570390 Eh/α |
          | HOMO-LUMO GAP               1.541098689304 eV   |
           -------------------------------------------------

 * finished run on 2024/06/05 at 19:58:59.265
