   * xtb version 6.6.1 (8d0f1dd) compiled by 'conda@1efc2f54142f' on 2023-08-01
          program call               : xtb struc.xyz --opt loose --input .xc1 --gfn2

   ID    Z sym.   atoms
    1    6 C      1, 3, 5-7, 10, 11, 14
    2    7 N      2, 4, 9, 13
    3    8 O      8, 12
    4    1 H      15-25
constraining bond 13 25 to    5.0600000 Å, actual value:    2.8316178 Å

          :  Hamiltonian                  GFN2-xTB          :
 * total energy  :   -33.3936567 Eh     change       -0.2401990E-09 Eh
 * total energy  :   -37.0649427 Eh     change       -0.3671286E+01 Eh
 * total energy  :   -39.6162036 Eh     change       -0.2551261E+01 Eh
 * total energy  :   -41.0830110 Eh     change       -0.1466807E+01 Eh
 * total energy  :   -41.7326986 Eh     change       -0.6496877E+00 Eh
 * total energy  :   -41.8813045 Eh     change       -0.1486058E+00 Eh
 * total energy  :   -41.9117560 Eh     change       -0.3045152E-01 Eh
 * total energy  :   -41.9612306 Eh     change       -0.4947458E-01 Eh
 * total energy  :   -42.0097623 Eh     change       -0.4853175E-01 Eh
 * total energy  :   -42.0437747 Eh     change       -0.3401238E-01 Eh
 * total energy  :   -42.1562086 Eh     change       -0.3626850E-02 Eh
 * total energy  :   -42.1602537 Eh     change       -0.4045100E-02 Eh
 * total energy  :   -42.1638310 Eh     change       -0.3577239E-02 Eh
 * total energy  :   -42.1647839 Eh     change       -0.9529292E-03 Eh
 * total energy  :   -42.1677454 Eh     change       -0.2961497E-02 Eh
 * total energy  :   -42.1685722 Eh     change       -0.8267843E-03 Eh
 * total energy  :   -42.1687119 Eh     change       -0.1396702E-03 Eh
 * total energy  :   -42.1688056 Eh     change       -0.9373942E-04 Eh
 * total energy  :   -42.1688466 Eh     change       -0.4099814E-04 Eh
   *** GEOMETRY OPTIMIZATION CONVERGED AFTER 26 ITERATIONS ***

 final structure:
================
25
 xtb: 6.6.1 (8d0f1dd)
C            3.19069354111555        1.14124158819686        0.01853571477859
N            2.19354697687500        0.10981967981301        0.00109976529232
C            2.39688432054556       -1.22697896457157       -0.00351861868085
N            1.27449822575401       -1.91622606825159       -0.00323177057770
C            0.28304268360059       -1.00421909100317        0.00301661741412
C            0.83808769825907        0.28552664616234        0.00669849447399
C            0.01833750600664        1.46621441655540       -0.00221753098696
O            0.41769352426017        2.61235094930217       -0.01429200626722
N           -1.34258357057747        1.14844677796348        0.00150081021646
C           -2.28865059220425        2.24829469588750       -0.00274903690081
C           -1.91166602167453       -0.12097936510213        0.00357088646888
O           -3.10910072676814       -0.26302235262485        0.00527829876114
N           -1.04955303397334       -1.21621978640345        0.00258553752633
C           -1.59846217013524       -2.55132726117956       -0.00040594734651
H            3.70213437928347        1.16064100767598        0.98433628841674
H            3.93268688147642        0.96273013419793       -0.76130612316022
H            2.71055478288539        2.10658909089098       -0.14494522519297
H            3.36818400904787       -1.68247326451427       -0.00834204801279
H           -1.72897595770365        3.18294181450518        0.00417766816018
H           -2.92244329900408        2.19488102776650       -0.89051338571661
H           -2.93627666816364        2.18869988203555        0.87445773723279
H           -1.25180122674796       -3.09828135158462        0.87816829486180
H           -1.26947830779584       -3.08779877554822       -0.89239231534519
H           -2.68468988933885       -2.47733781724087        0.01021729900263
H            2.92776844907719       -4.34527507132850       -0.03855778651802

          :  Hamiltonian                  GFN2-xTB          :
         :: total energy             -42.168846594147 Eh    ::
         :: gradient norm              0.002966632889 Eh/a0 ::
         :: HOMO-LUMO gap              1.154600057482 eV    ::
         :: SCC energy               -42.677574465934 Eh    ::
         :: -> dispersion             -0.022408606770 Eh    ::
         :: repulsion energy           0.508635015757 Eh    ::

    * Orbital Energies and Occupations

         #    Occupation            Energy/Eh            Energy/eV
      -------------------------------------------------------------
         1        2.0000           -0.8948848             -24.3511
       ...           ...                  ...                  ...
        25        1.9964           -0.6693578             -18.2142
        26        1.9944           -0.6592079             -17.9380
        27        1.9917           -0.6498709             -17.6839
        28        1.9893           -0.6437147             -17.5164
        29        1.9806           -0.6294776             -17.1290
        30        1.9733           -0.6217628             -16.9190
        31        1.9654           -0.6155583             -16.7502
        32        1.9498           -0.6065149             -16.5041
        33        1.9373           -0.6010527             -16.3555
        34        1.8869           -0.5864341             -15.9577
        35        1.8673           -0.5823881             -15.8476
        36        1.8504           -0.5793316             -15.7644
        37        1.6605           -0.5572878             -15.1646 (HOMO)
        38        0.9007           -0.5148571             -14.0100 (LUMO)
        39        0.0525           -0.4337830             -11.8038
        40        0.0093           -0.3922174             -10.6728
        41        0.0046           -0.3755003             -10.2179
        42        0.0002           -0.2967682              -8.0755
        43        0.0000           -0.2092291              -5.6934
        44        0.0000           -0.1605479              -4.3687
        45        0.0000           -0.1412532              -3.8437
        46                         -0.0799279              -2.1749
        47                         -0.0618928              -1.6842
        48                         -0.0420185              -1.1434
       ...                                ...                  ...
        67                          0.5251848              14.2910
      -------------------------------------------------------------
                  HL-Gap            0.0424308 Eh            1.1546 eV

     #   Z          covCN         q      C6AA      α(0)
     1   6 C        3.689    -0.081    22.247     6.751
     2   7 N        2.827     0.051    20.350     6.700
     3   6 C        3.176     0.094    25.544     8.254
     4   7 N        1.900    -0.194    26.036     7.565
     5   6 C        3.157     0.132    24.837     8.149
     6   6 C        3.118    -0.008    28.048     8.674
     7   6 C        2.764     0.270    22.438     7.757
     8   8 O        0.858    -0.331    20.341     6.047
     9   7 N        2.746    -0.066    22.512     7.047
    10   6 C        3.708    -0.061    21.821     6.677
    11   6 C        2.729     0.315    21.639     7.616
    12   8 O        0.860    -0.328    20.292     6.040
    13   7 N        2.738    -0.020    21.629     6.907
    14   6 C        3.700    -0.071    22.032     6.713
    15   1 H        0.924     0.113     1.668     2.020
    16   1 H        0.924     0.111     1.688     2.032
    17   1 H        0.924     0.130     1.537     1.939
    18   1 H        0.926     0.111     1.690     2.033
    19   1 H        0.925     0.129     1.541     1.941
    20   1 H        0.924     0.121     1.609     1.984
    21   1 H        0.924     0.121     1.607     1.982
    22   1 H        0.924     0.117     1.635     2.000
    23   1 H        0.924     0.117     1.635     2.000
    24   1 H        0.925     0.132     1.522     1.929
    25   1 H        0.000     0.095     4.556     3.903

Wiberg/Mayer (AO) data.
largest (>0.10) Wiberg bond orders for each atom

     #   Z sym  total        # sym  WBO       # sym  WBO       # sym  WBO
 ---------------------------------------------------------------------------
     1   6 C    3.886 --     2 N    0.997    17 H    0.953    16 H    0.951
                            15 H    0.943
     2   7 N    3.616 --     3 C    1.275     6 C    1.193     1 C    0.997
     3   6 C    3.842 --     4 N    1.461     2 N    1.275    18 H    0.951
     4   7 N    2.936 --     3 C    1.461     5 C    1.276
     5   6 C    3.885 --     4 N    1.276     6 C    1.257    13 N    1.188
     6   6 C    3.784 --     5 C    1.257     2 N    1.193     7 C    1.089
     7   6 C    3.921 --     8 O    1.648     9 N    1.090     6 C    1.089
     8   8 O    1.920 --     7 C    1.648     9 N    0.118
     9   7 N    3.473 --    11 C    1.103     7 C    1.090    10 C    0.982
                             8 O    0.118    12 O    0.111
    10   6 C    3.845 --     9 N    0.982    19 H    0.949    21 H    0.937
                            20 H    0.936
    11   6 C    3.941 --    12 O    1.664     9 N    1.103    13 N    1.084
    12   8 O    1.946 --    11 C    1.664     9 N    0.111    13 N    0.103
    13   7 N    3.481 --     5 C    1.188    11 C    1.084    14 C    0.982
                            12 O    0.103
    14   6 C    3.863 --    13 N    0.982    24 H    0.953    22 H    0.943
                            23 H    0.942
    15   1 H    0.967 --     1 C    0.943
    16   1 H    0.972 --     1 C    0.951
    17   1 H    0.971 --     1 C    0.953
    18   1 H    0.983 --     3 C    0.951
    19   1 H    0.967 --    10 C    0.949
    20   1 H    0.953 --    10 C    0.936
    21   1 H    0.953 --    10 C    0.937
    22   1 H    0.958 --    14 C    0.943
    23   1 H    0.958 --    14 C    0.942
    24   1 H    0.971 --    14 C    0.953
    25   1 H    0.005
 ---------------------------------------------------------------------------

molecular dipole:
                 x           y           z       tot (Debye)
 q only:        1.487      -1.118       0.009
   full:        1.746      -1.010       0.016       5.127

           -------------------------------------------------
          | TOTAL ENERGY              -42.168846594147 Eh   |
          | GRADIENT NORM               0.002966632889 Eh/α |
          | HOMO-LUMO GAP               1.154600057482 eV   |
           -------------------------------------------------

 * finished run on 2024/06/05 at 19:58:54.717
