   * xtb version 6.6.1 (8d0f1dd) compiled by 'conda@1efc2f54142f' on 2023-08-01
          program call               : xtb xtbopt.xyz --opt crude --input .xc2 --gfn2

   ID    Z sym.   atoms
    1    6 C      1, 3, 5-7, 10, 11, 14
    2    7 N      2, 4, 9, 13
    3    8 O      8, 12
    4    1 H      15-25

          :  Hamiltonian                  GFN2-xTB          :
 * total energy  :   -42.0793984 Eh     change       -0.9883649E-11 Eh
   *** GEOMETRY OPTIMIZATION CONVERGED AFTER 1 ITERATIONS ***

 final structure:
================
25
 xtb: 6.6.1 (8d0f1dd)
C            3.31004188014141        1.23059980504541        0.01133329885246
N            2.36229253884854        0.14732461844547       -0.00020602705208
C            2.63574061348052       -1.14864464890241       -0.00456946744485
N            1.48825178487433       -1.86130388423578        0.00343359630538
C            0.44811702792259       -0.97931018154983        0.01340588020657
C            0.99694273363722        0.29261562037102        0.01227001424761
C            0.16079192742185        1.48185625039978       -0.00156425336914
O            0.55979075208999        2.62077496661918       -0.02058716623569
N           -1.19034310052382        1.14497379700115        0.00474647923253
C           -2.15029466655132        2.24247920814891        0.00019774417451
C           -1.76380260664401       -0.11467533684940        0.00656304336920
O           -2.94591023396357       -0.29361186797118        0.00638816956850
N           -0.87077892575767       -1.22696051763692        0.01361722977788
C           -1.38362394192815       -2.53923646691665        0.01069390875152
H            3.80970374779615        1.28502756968984        0.97961814462624
H            4.06167157132288        1.08440637335530       -0.76320744332617
H            2.77713814837857        2.16501405741555       -0.16181241794615
H            3.61941474002343       -1.57637410979188       -0.01581470630212
H           -1.59280158542345        3.17572305330841        0.00585012865182
H           -2.77745747881932        2.18146430646926       -0.88831803285576
H           -2.78937538021719        2.17735210060587        0.87959210390485
H           -1.72662125076718       -2.94103226949520        0.94424704092943
H           -1.79793920389529       -2.90557274120376       -0.91336642652524
H           -3.48976429226538       -4.95525812206605       -0.08786881569099
H            1.40924671491882       -2.86939303865607       -0.00347040795028

          :  Hamiltonian                  GFN2-xTB          :
         :: total energy             -42.079398404658 Eh    ::
         :: gradient norm              0.003729286258 Eh/a0 ::
         :: HOMO-LUMO gap              0.169291305703 eV    ::
         :: SCC energy               -42.598622443227 Eh    ::
         :: -> dispersion             -0.022612915109 Eh    ::
         :: repulsion energy           0.519145708591 Eh    ::

    * Orbital Energies and Occupations

         #    Occupation            Energy/Eh            Energy/eV
      -------------------------------------------------------------
         1        2.0000           -0.9186191             -24.9969
       ...           ...                  ...                  ...
        25        2.0000           -0.6667922             -18.1443
        26        2.0000           -0.6648857             -18.0925
        27        1.9999           -0.6572448             -17.8845
        28        1.9998           -0.6368829             -17.3305
        29        1.9996           -0.6293360             -17.1251
        30        1.9994           -0.6219624             -16.9245
        31        1.9992           -0.6184346             -16.8285
        32        1.9973           -0.5992468             -16.3063
        33        1.9910           -0.5800389             -15.7837
        34        1.9767           -0.5647794             -15.3684
        35        1.9712           -0.5614038             -15.2766
        36        1.9611           -0.5565482             -15.1444
        37        1.1196           -0.4982932             -13.5592 (HOMO)
        38        0.9238           -0.4920719             -13.3900 (LUMO)
        39        0.0533           -0.4375178             -11.9055
        40        0.0073           -0.4056316             -11.0378
        41        0.0010           -0.3746392             -10.1945
        42        0.0000           -0.2903386              -7.9005
        43                         -0.2018252              -5.4919
        44                         -0.1989361              -5.4133
        45                         -0.1341482              -3.6504
        46                         -0.1308886              -3.5617
        47                         -0.0737977              -2.0081
        48                         -0.0418046              -1.1376
       ...                                ...                  ...
        67                          0.5599698              15.2376
      -------------------------------------------------------------
                  HL-Gap            0.0062213 Eh            0.1693 eV

     #   Z          covCN         q      C6AA      α(0)
     1   6 C        3.692    -0.096    22.533     6.792
     2   7 N        2.836     0.090    19.675     6.588
     3   6 C        3.064     0.055    26.704     8.474
     4   7 N        2.797    -0.055    22.297     7.013
     5   6 C        3.054     0.120    25.317     8.252
     6   6 C        3.126    -0.024    28.417     8.729
     7   6 C        2.764     0.275    22.346     7.742
     8   8 O        0.858    -0.361    20.912     6.131
     9   7 N        2.745    -0.083    22.850     7.100
    10   6 C        3.711    -0.062    21.838     6.678
    11   6 C        2.727     0.319    21.578     7.605
    12   8 O        0.859    -0.343    20.581     6.082
    13   7 N        2.738    -0.044    22.084     6.980
    14   6 C        2.784    -0.073    29.802     8.942
    15   1 H        0.924     0.112     1.679     2.026
    16   1 H        0.925     0.108     1.714     2.048
    17   1 H        0.925     0.139     1.470     1.896
    18   1 H        0.926     0.130     1.538     1.940
    19   1 H        0.925     0.115     1.651     2.010
    20   1 H        0.925     0.100     1.781     2.087
    21   1 H        0.925     0.101     1.779     2.086
    22   1 H        0.926     0.095     1.830     2.115
    23   1 H        0.926     0.095     1.831     2.116
    24   1 H        0.000     0.053     5.694     4.363
    25   1 H        0.860     0.234     0.948     1.525

Wiberg/Mayer (AO) data.
largest (>0.10) Wiberg bond orders for each atom

     #   Z sym  total        # sym  WBO       # sym  WBO       # sym  WBO
 ---------------------------------------------------------------------------
     1   6 C    3.911 --     2 N    0.983    16 H    0.963    17 H    0.960
                            15 H    0.954
     2   7 N    3.703 --     3 C    1.408     6 C    1.167     1 C    0.983
     3   6 C    3.880 --     2 N    1.408     4 N    1.280    18 H    0.951
     4   7 N    3.599 --     3 C    1.280     5 C    1.190    25 H    0.916
     5   6 C    3.936 --     6 C    1.349    13 N    1.213     4 N    1.190
     6   6 C    3.909 --     5 C    1.349     2 N    1.167     7 C    1.060
     7   6 C    3.954 --     8 O    1.692     9 N    1.109     6 C    1.060
     8   8 O    2.039 --     7 C    1.692     9 N    0.150
     9   7 N    3.547 --    11 C    1.119     7 C    1.109    10 C    0.966
                             8 O    0.150    12 O    0.136
    10   6 C    3.904 --     9 N    0.966    19 H    0.966    21 H    0.962
                            20 H    0.962
    11   6 C    3.927 --    12 O    1.730     9 N    1.119    13 N    0.993
    12   8 O    2.067 --    11 C    1.730     9 N    0.136    13 N    0.119
    13   7 N    3.550 --     5 C    1.213    14 C    1.018    11 C    0.993
                            12 O    0.119
    14   6 C    2.983 --    13 N    1.018    23 H    0.958    22 H    0.958
    15   1 H    0.985 --     1 C    0.954
    16   1 H    0.986 --     1 C    0.963
    17   1 H    0.980 --     1 C    0.960
    18   1 H    0.982 --     3 C    0.951
    19   1 H    0.984 --    10 C    0.966
    20   1 H    0.982 --    10 C    0.962
    21   1 H    0.982 --    10 C    0.962
    22   1 H    0.981 --    14 C    0.958
    23   1 H    0.982 --    14 C    0.958
    24   1 H    0.006
    25   1 H    0.944 --     4 N    0.916
 ---------------------------------------------------------------------------

molecular dipole:
                 x           y           z       tot (Debye)
 q only:        2.716      -1.865       0.010
   full:        2.881      -2.329       0.020       9.417

           -------------------------------------------------
          | TOTAL ENERGY              -42.079398404658 Eh   |
          | GRADIENT NORM               0.003729286258 Eh/α |
          | HOMO-LUMO GAP               0.169291305703 eV   |
           -------------------------------------------------

 * finished run on 2024/06/05 at 19:59:19.430
