   * xtb version 6.6.1 (8d0f1dd) compiled by 'conda@1efc2f54142f' on 2023-08-01
          program call               : xtb struc.xyz --opt loose --input .xc1 --gfn2

   ID    Z sym.   atoms
    1    7 N      1, 17
    2    6 C      2-6, 8, 9, 11-16, 18-23, 25, 26, 28-33
    3    8 O      7, 10, 24, 27
    4    1 H      34-72
constraining bond 6 12 to    5.0000000 Å, actual value:    2.4108829 Å

          :  Hamiltonian                  GFN2-xTB          :
 * total energy  :   -98.2071946 Eh     change       -0.4035485E-08 Eh
 * total energy  :   -98.4610031 Eh     change       -0.2538085E+00 Eh
 * total energy  :   -98.6267846 Eh     change       -0.1657815E+00 Eh
 * total energy  :   -98.7258817 Eh     change       -0.9909707E-01 Eh
 * total energy  :   -98.7959179 Eh     change       -0.7003618E-01 Eh
 * total energy  :   -98.8491748 Eh     change       -0.5325696E-01 Eh
 * total energy  :   -98.8843588 Eh     change       -0.3518402E-01 Eh
 * total energy  :   -98.9047936 Eh     change       -0.2043476E-01 Eh
 * total energy  :   -98.9237760 Eh     change       -0.1898244E-01 Eh
 * total energy  :   -98.9370760 Eh     change       -0.1329993E-01 Eh
 * total energy  :   -99.2180041 Eh     change       -0.2174636E-03 Eh
 * total energy  :   -99.2181483 Eh     change       -0.1441827E-03 Eh
 * total energy  :   -99.2183607 Eh     change       -0.2123530E-03 Eh
 * total energy  :   -99.2184892 Eh     change       -0.1285415E-03 Eh
 * total energy  :   -99.2186087 Eh     change       -0.1194555E-03 Eh
 * total energy  :   -99.2186935 Eh     change       -0.8484857E-04 Eh
 * total energy  :   -99.2187673 Eh     change       -0.7377892E-04 Eh
 * total energy  :   -99.2188185 Eh     change       -0.5122836E-04 Eh
 * total energy  :   -99.2188639 Eh     change       -0.4533001E-04 Eh
   *** GEOMETRY OPTIMIZATION CONVERGED AFTER 109 ITERATIONS ***

 final structure:
================
72
 xtb: 6.6.1 (8d0f1dd)
N           -2.15925436935974        2.58587179489017        2.24808291105199
C           -1.99157343112435        1.96179059550976        1.17458115507745
C           -3.12153942513788        1.66554655878296        0.19241969675324
C           -3.59730975347948        0.19551594192044        0.27841702692505
C           -4.69942016606566       -0.10706623873295       -0.61061696664600
C           -5.50577515197494        0.75412335837450       -1.32322865401801
O           -6.44088813779225        0.26454360875764       -2.14701009136563
C           -7.35959133169515        1.17832507023506       -2.69803568999569
C           -3.31797225959133       -3.01889841135585        0.84009195732849
O           -3.47220636314309       -4.28335663904511        1.03597770915820
C           -3.31125740491140       -4.86008268699577        2.34398202662522
C           -2.73426903052431       -2.01197422949199        1.51760298835589
C           -2.86658152601428       -0.61588759698032        1.14260070617334
C           -2.51648029529423        1.90760274627069       -1.21979533822838
C           -1.53913718828948        0.81431791553859       -1.68156124702361
C           -0.20101850008124        0.90515978322127       -1.05231838889055
N            0.52876192342230       -0.13798324843528       -0.66057227835416
C            1.89766278360678        0.04048151229718       -0.24065849663085
C            2.89509718995397       -0.34068010245685       -1.35164571392828
C            4.30259620591587       -0.12524481287239       -0.87151174195952
C            4.92262610463919        1.10246578271597       -1.02665687536016
C            6.21108389020373        1.31105023168968       -0.55794737133715
C            6.90267852307098        0.29368287959442        0.08175271820599
O            8.15429015617980        0.38404703541066        0.57531992433088
C            8.85856482177407        1.59539018651678        0.43331786810513
C            6.27371805617897       -0.96939011947369        0.24824792259749
O            7.01933743943233       -1.90411900423713        0.87611500304639
C            6.49021459064754       -3.19526543874650        1.05724401850534
C            4.98580943245032       -1.15429621968452       -0.22663410791648
C            0.04336503838948       -1.49296112737882       -0.76260691923064
C           -4.23216288492561        2.62315176800444        0.50871371619474
C           -5.06869282374863        2.32839555222347        1.68527416368293
C           -4.22749658120320        4.00047040822645       -0.03344640253861
H           -4.92443033168519       -1.16036730737798       -0.72210185268284
H           -6.89820891603746        2.14872605686760       -2.89136553410138
H           -8.20918784011826        1.31712955275834       -2.02253744953523
H           -7.71758074290312        0.75264477998925       -3.63588017596727
H           -3.88776610741403       -4.29847694801630        3.08037147065638
H           -3.67538808499804       -5.88174400213374        2.27494610296406
H           -2.25507976849399       -4.85534759431729        2.62064894618756
H           -2.04490255934434       -2.19646658991052        2.34109958176140
H           -2.17805899140141       -0.02884100133715        1.74334769453478
H           -3.33018067458169        1.93723272493156       -1.94195242466143
H           -2.00894325811056        2.87372010116858       -1.23338944562300
H           -1.99216184560738       -0.16238624393737       -1.52038482409325
H           -1.40839198530337        0.93941636417614       -2.76494826554373
H           -1.01347708744368        1.62730149172142        0.78678756523394
H            0.29258030111346        1.86558713216576       -1.04961627976895
H            2.08456433882424       -0.57901027436459        0.64114581067016
H            2.05928751386755        1.08413662881832        0.03666463404730
H            2.69863720762073        0.28010106473370       -2.22738756462453
H            2.74935101463043       -1.38516224960819       -1.62923245991102
H            4.40856399055204        1.90810632066603       -1.52872808156697
H            6.67056098449224        2.27499255921133       -0.70219860463293
H            8.34980546476130        2.41791434708573        0.94559641742435
H            9.00225998544259        1.85415781838121       -0.62010217428746
H            9.82763564012207        1.42599051651011        0.89844612725451
H            7.26851885447863       -3.76131037430923        1.56523891837474
H            5.59121062528708       -3.17757012062840        1.68203756963226
H            6.26171677920177       -3.67389791962976        0.09974785526071
H            4.50141338497635       -2.11161491391267       -0.11276248147131
H           -0.08597691535276       -1.78760260548752       -1.80633858285309
H           -0.91550246499701       -1.60121734136440       -0.24998627866786
H            0.76024669350850       -2.16467091498329       -0.29771292789847
H           -5.44228335257955        1.83203630639856       -1.22026875077438
H           -4.48047529585544        2.55571370770200        2.58338604113538
H           -5.33299531656990        1.27423192810683        1.73898664780475
H           -5.96719667901706        2.93932038876899        1.70716205547297
H           -3.39720546525798        4.56802378357708        0.40186981765580
H           -4.09754169897739        4.03432853188676       -1.11464771281849
H           -5.14576209321117        4.52020097248033        0.22770812101473
H           -1.33431923824724        2.76408599169451        2.81212010843069

          :  Hamiltonian                  GFN2-xTB          :
         :: total energy             -99.218863856425 Eh    ::
         :: gradient norm              0.003815397703 Eh/a0 ::
         :: HOMO-LUMO gap              0.336243989497 eV    ::
         :: SCC energy              -100.576697727528 Eh    ::
         :: -> dispersion             -0.073619514960 Eh    ::
         :: repulsion energy           1.352104207425 Eh    ::

    * Orbital Energies and Occupations

         #    Occupation            Energy/Eh            Energy/eV
      -------------------------------------------------------------
         1        2.0000           -0.8097076             -22.0333
       ...           ...                  ...                  ...
        78        1.9994           -0.5313414             -14.4585
        79        1.9994           -0.5299329             -14.4202
        80        1.9990           -0.5231686             -14.2361
        81        1.9989           -0.5211879             -14.1822
        82        1.9988           -0.5194563             -14.1351
        83        1.9980           -0.5122785             -13.9398
        84        1.9979           -0.5108423             -13.9007
        85        1.9875           -0.4829318             -13.1412
        86        1.9845           -0.4794767             -13.0472
        87        1.9832           -0.4781981             -13.0124
        88        1.8825           -0.4465469             -12.1512
        89        1.7825           -0.4359291             -11.8622
        90        1.1206           -0.4064600             -11.0603 (HOMO)
        91        0.7373           -0.3941032             -10.7241 (LUMO)
        92        0.4388           -0.3825251             -10.4090
        93        0.0500           -0.3446030              -9.3771
        94        0.0383           -0.3403105              -9.2603
        95        0.0036           -0.3025287              -8.2322
        96        0.0030           -0.2999231              -8.1613
        97        0.0004           -0.2694002              -7.3308
        98        0.0000           -0.2180236              -5.9327
        99        0.0000           -0.1772674              -4.8237
       100                         -0.1239624              -3.3732
       101                         -0.0693209              -1.8863
       ...                                ...                  ...
       171                          0.5873446              15.9825
      -------------------------------------------------------------
                  HL-Gap            0.0123567 Eh            0.3362 eV

     #   Z          covCN         q      C6AA      α(0)
     1   7 N        1.773    -0.298    28.539     7.911
     2   6 C        2.829     0.096    25.859     8.333
     3   6 C        3.912     0.002    20.481     6.432
     4   6 C        2.942    -0.002    28.066     8.689
     5   6 C        2.891    -0.074    29.851     8.958
     6   6 C        2.794     0.098    25.822     8.324
     7   8 O        1.705    -0.220    17.652     5.673
     8   6 C        3.655     0.026    20.437     6.490
     9   6 C        1.865     0.041    30.078     8.859
    10   8 O        1.702    -0.180    17.026     5.571
    11   6 C        3.643     0.016    20.653     6.533
    12   6 C        2.885    -0.075    29.865     8.959
    13   6 C        2.897    -0.051    29.269     8.870
    14   6 C        3.810    -0.068    21.790     6.644
    15   6 C        3.802    -0.070    21.831     6.652
    16   6 C        2.842    -0.003    28.087     8.685
    17   7 N        2.729     0.006    21.160     6.832
    18   6 C        3.756    -0.015    20.891     6.517
    19   6 C        3.808    -0.070    21.837     6.652
    20   6 C        2.969    -0.002    28.081     8.692
    21   6 C        2.922    -0.050    29.253     8.870
    22   6 C        2.914    -0.069    29.715     8.939
    23   6 C        2.865     0.131    25.126     8.216
    24   8 O        1.706    -0.228    17.783     5.694
    25   6 C        3.646     0.027    20.452     6.499
    26   6 C        2.863     0.131    25.131     8.217
    27   8 O        1.706    -0.231    17.824     5.700
    28   6 C        3.645     0.029    20.418     6.495
    29   6 C        2.920    -0.081    30.014     8.984
    30   6 C        3.699    -0.072    22.055     6.716
    31   6 C        2.949     0.021    27.534     8.606
    32   6 C        3.756    -0.126    22.963     6.833
    33   6 C        3.754    -0.116    22.777     6.805
    34   1 H        0.925     0.068     2.103     2.268
    35   1 H        0.924     0.049     2.336     2.390
    36   1 H        0.924     0.062     2.180     2.309
    37   1 H        0.924     0.077     2.005     2.215
    38   1 H        0.924     0.060     2.197     2.318
    39   1 H        0.925     0.080     1.981     2.201
    40   1 H        0.924     0.057     2.233     2.337
    41   1 H        0.925     0.041     2.440     2.443
    42   1 H        0.925     0.034     2.529     2.487
    43   1 H        0.925     0.057     2.238     2.340
    44   1 H        0.924     0.049     2.328     2.386
    45   1 H        0.925     0.073     2.052     2.240
    46   1 H        0.923     0.075     2.033     2.230
    47   1 H        0.923     0.017     2.776     2.606
    48   1 H        0.926     0.062     2.176     2.307
    49   1 H        0.924     0.065     2.147     2.291
    50   1 H        0.924     0.064     2.155     2.296
    51   1 H        0.924     0.053     2.283     2.363
    52   1 H        0.924     0.054     2.267     2.355
    53   1 H        0.926     0.042     2.425     2.435
    54   1 H        0.926     0.055     2.257     2.349
    55   1 H        0.924     0.051     2.308     2.376
    56   1 H        0.924     0.053     2.283     2.363
    57   1 H        0.925     0.079     1.986     2.204
    58   1 H        0.925     0.079     1.990     2.206
    59   1 H        0.924     0.045     2.378     2.411
    60   1 H        0.924     0.050     2.319     2.382
    61   1 H        0.926     0.044     2.394     2.419
    62   1 H        0.924     0.074     2.037     2.232
    63   1 H        0.924     0.084     1.933     2.174
    64   1 H        0.925     0.076     2.019     2.222
    65   1 H        0.925     0.041     2.436     2.441
    66   1 H        0.924     0.113     1.672     2.022
    67   1 H        0.925     0.068     2.106     2.270
    68   1 H        0.925     0.065     2.139     2.287
    69   1 H        0.924     0.077     2.009     2.216
    70   1 H        0.925     0.057     2.230     2.335
    71   1 H        0.925     0.066     2.132     2.283
    72   1 H        0.860     0.157     1.353     1.822

Wiberg/Mayer (AO) data.
largest (>0.10) Wiberg bond orders for each atom

     #   Z sym  total        # sym  WBO       # sym  WBO       # sym  WBO
 ---------------------------------------------------------------------------
     1   7 N    3.013 --     2 C    1.930    72 H    0.942
     2   6 C    3.872 --     1 N    1.930     3 C    0.943    47 H    0.900
     3   6 C    3.978 --    31 C    1.015    14 C    0.955     4 C    0.944
                             2 C    0.943
     4   6 C    3.851 --    13 C    1.532     5 C    1.204     3 C    0.944
     5   6 C    3.923 --     6 C    1.601     4 C    1.204    34 H    0.954
     6   6 C    3.806 --     5 C    1.601     7 O    1.131    65 H    0.935
     7   8 O    2.265 --     6 C    1.131     8 C    0.976
     8   6 C    3.929 --    37 H    0.977     7 O    0.976    35 H    0.976
                            36 H    0.972
     9   6 C    3.000 --    12 C    1.569    10 O    1.288
    10   8 O    2.325 --     9 C    1.288    11 C    0.915
    11   6 C    3.875 --    39 H    0.980    38 H    0.979    40 H    0.973
                            10 O    0.915
    12   6 C    3.830 --     9 C    1.569    13 C    1.216    41 H    0.913
    13   6 C    3.894 --     4 C    1.532    12 C    1.216    42 H    0.944
    14   6 C    3.967 --    15 C    0.989    44 H    0.974    43 H    0.967
                             3 C    0.955
    15   6 C    3.986 --    16 C    1.056    14 C    0.989    45 H    0.958
                            46 H    0.929
    16   6 C    3.552 --    17 N    1.379    15 C    1.056    48 H    0.957
    17   7 N    3.452 --    16 C    1.379    30 C    0.999    18 C    0.991
    18   6 C    3.958 --    17 N    0.991    50 H    0.969    19 C    0.967
                            49 H    0.964
    19   6 C    3.976 --    20 C    1.008    51 H    0.972    52 H    0.971
                            18 C    0.967
    20   6 C    3.952 --    21 C    1.416    29 C    1.377    19 C    1.008
    21   6 C    3.957 --    20 C    1.416    22 C    1.413    53 H    0.969
    22   6 C    3.965 --    21 C    1.413    23 C    1.389    54 H    0.964
    23   6 C    3.904 --    22 C    1.389    26 C    1.227    24 O    1.102
    24   8 O    2.254 --    23 C    1.102    25 C    0.978
    25   6 C    3.932 --    24 O    0.978    57 H    0.977    55 H    0.974
                            56 H    0.973
    26   6 C    3.907 --    29 C    1.400    23 C    1.227    27 O    1.096
    27   8 O    2.253 --    26 C    1.096    28 C    0.980
    28   6 C    3.935 --    27 O    0.980    58 H    0.977    59 H    0.974
                            60 H    0.974
    29   6 C    3.963 --    26 C    1.400    20 C    1.377    61 H    0.963
    30   6 C    3.956 --    17 N    0.999    64 H    0.978    62 H    0.967
                            63 H    0.955
    31   6 C    3.304 --    32 C    1.093    33 C    1.073     3 C    1.015
    32   6 C    3.971 --    31 C    1.093    68 H    0.973    67 H    0.961
                            66 H    0.899
    33   6 C    3.982 --    31 C    1.073    71 H    0.977    70 H    0.962
                            69 H    0.929
    34   1 H    0.991 --     5 C    0.954
    35   1 H    0.995 --     8 C    0.976
    36   1 H    0.989 --     8 C    0.972
    37   1 H    0.992 --     8 C    0.977
    38   1 H    0.993 --    11 C    0.979
    39   1 H    0.992 --    11 C    0.980
    40   1 H    0.989 --    11 C    0.973
    41   1 H    0.935 --    12 C    0.913
    42   1 H    0.997 --    13 C    0.944
    43   1 H    0.996 --    14 C    0.967
    44   1 H    0.997 --    14 C    0.974
    45   1 H    0.993 --    15 C    0.958
    46   1 H    0.966 --    15 C    0.929
    47   1 H    0.988 --     2 C    0.900
    48   1 H    0.995 --    16 C    0.957
    49   1 H    0.990 --    18 C    0.964
    50   1 H    0.995 --    18 C    0.969
    51   1 H    0.996 --    19 C    0.972
    52   1 H    0.996 --    19 C    0.971
    53   1 H    0.998 --    21 C    0.969
    54   1 H    0.995 --    22 C    0.964
    55   1 H    0.993 --    25 C    0.974
    56   1 H    0.993 --    25 C    0.973
    57   1 H    0.993 --    25 C    0.977
    58   1 H    0.993 --    28 C    0.977
    59   1 H    0.995 --    28 C    0.974
    60   1 H    0.994 --    28 C    0.974
    61   1 H    0.997 --    29 C    0.963
    62   1 H    0.984 --    30 C    0.967
    63   1 H    0.985 --    30 C    0.955
    64   1 H    0.994 --    30 C    0.978
    65   1 H    0.997 --     6 C    0.935
    66   1 H    0.935 --    32 C    0.899
    67   1 H    0.982 --    32 C    0.961
    68   1 H    0.989 --    32 C    0.973
    69   1 H    0.950 --    33 C    0.929
    70   1 H    0.981 --    33 C    0.962
    71   1 H    0.993 --    33 C    0.977
    72   1 H    0.971 --     1 N    0.942
 ---------------------------------------------------------------------------

molecular dipole:
                 x           y           z       tot (Debye)
 q only:       -1.134       0.884      -0.440
   full:       -0.766       1.024      -0.345       3.367

           -------------------------------------------------
          | TOTAL ENERGY              -99.218863856425 Eh   |
          | GRADIENT NORM               0.003815397703 Eh/α |
          | HOMO-LUMO GAP               0.336243989497 eV   |
           -------------------------------------------------

 * finished run on 2024/04/06 at 11:12:50.014
