   * xtb version 6.6.1 (8d0f1dd) compiled by 'conda@1efc2f54142f' on 2023-08-01
          program call               : xtb xtbopt.xyz --opt crude --input .xc2 --gfn2

   ID    Z sym.   atoms
    1    7 N      1, 17
    2    6 C      2-6, 8, 9, 11-16, 18-23, 25, 26, 28-33
    3    8 O      7, 10, 24, 27
    4    1 H      34-72
########################################################################
[WARNING] Please study the warnings concerning your input carefully
-1- readin_getIntValue: could not parse ''
########################################################################

          :  Hamiltonian                  GFN2-xTB          :
 * total energy  :   -99.2235700 Eh     change       -0.2600586E-11 Eh
 * total energy  :   -99.2297429 Eh     change       -0.6172918E-02 Eh
 * total energy  :   -99.2336133 Eh     change       -0.3870430E-02 Eh
 * total energy  :   -99.2354795 Eh     change       -0.1866175E-02 Eh
 * total energy  :   -99.2368905 Eh     change       -0.1410960E-02 Eh
 * total energy  :   -99.2379223 Eh     change       -0.1031826E-02 Eh
 * total energy  :   -99.2386624 Eh     change       -0.7400568E-03 Eh
 * total energy  :   -99.2391973 Eh     change       -0.5349685E-03 Eh
 * total energy  :   -99.2396987 Eh     change       -0.5013700E-03 Eh
 * total energy  :   -99.2401491 Eh     change       -0.4504295E-03 Eh
   *** GEOMETRY OPTIMIZATION CONVERGED AFTER 10 ITERATIONS ***

 final structure:
================
72
 xtb: 6.6.1 (8d0f1dd)
N           -2.12320512689992        2.77058943863913        2.23861017111106
C           -1.92485971542441        2.11107257773428        1.19256457864535
C           -3.03891428892469        1.75451301589415        0.21966260482213
C           -3.41881690225434        0.27983637293196        0.38428998256060
C           -4.44704624954915       -0.25085828366546       -0.45500513434806
C           -5.33730228781261        0.48150103721347       -1.14961730251389
O           -6.25376934816942       -0.06318915367889       -1.96218479805510
C           -7.21973270583046        0.81298983410666       -2.50635548559158
C           -3.62366372730223       -2.73336726956567        0.69701352437117
O           -3.92281414455024       -3.99263614884659        0.81891799143092
C           -3.64769296255505       -4.69801033583447        2.03390619919820
C           -2.88074247066138       -1.91246841287480        1.47184978182397
C           -2.73805479679757       -0.51186849014032        1.26830975369929
C           -2.47045233466093        1.97074149283907       -1.21174877068183
C           -1.50661160033531        0.87422211041113       -1.69273671815456
C           -0.16802886102387        0.93413338974000       -1.06457075623164
N            0.53262469654907       -0.12092151676542       -0.65583307950698
C            1.90564454222404        0.03284080548617       -0.24073538950592
C            2.89336026064789       -0.33733994807746       -1.36439550801886
C            4.30251505887876       -0.12406283625332       -0.88863149173750
C            4.92250255358609        1.10411601133411       -1.04087948571971
C            6.20916967888708        1.31282020487429       -0.56736105711225
C            6.89891332925612        0.29511919575667        0.07399822487920
O            8.14791567559554        0.38490399079168        0.57323540519605
C            8.85433157507143        1.59568015505875        0.43540522382107
C            6.26975156523550       -0.96857383626359        0.23702659720498
O            7.01220653694937       -1.90294214623313        0.86819806243352
C            6.48320613842790       -3.19469569141553        1.04508002072500
C            4.98367281030003       -1.15353425643066       -0.24263002455389
C            0.01670616677651       -1.46525646492037       -0.74878866884725
C           -4.21129129687221        2.64733853342589        0.50081088360283
C           -5.04041864677915        2.34328551913235        1.68160301207427
C           -4.27835469109541        4.00677791457147       -0.08356257149791
H           -4.50305070191203       -1.34201077310521       -0.46705828487652
H           -6.76653815205450        1.75398673004488       -2.83988845563404
H           -7.99949480608388        1.03266469952366       -1.77011493729143
H           -7.66560759184013        0.30312201366975       -3.35996143725016
H           -4.10543495025312       -4.18762562287672        2.88387747536625
H           -4.07179048698949       -5.69411133665807        1.91630563489547
H           -2.56798388491406       -4.76905812250927        2.18899119676656
H           -2.25659423337770       -2.33143919554350        2.26102106307160
H           -2.01639382538080       -0.03010661718768        1.91687699729203
H           -3.30569510909211        1.98466184900267       -1.90989230397006
H           -1.96853082486370        2.93843095459136       -1.25489401056923
H           -1.97174710562464       -0.10049854919115       -1.55763834437447
H           -1.37442100953710        1.02672339778909       -2.77281940241359
H           -0.94188092860732        1.75102947904367        0.84677045000937
H            0.34222820447720        1.88554313791222       -1.05393974629241
H            2.09030851013479       -0.60479624659642        0.62802078434929
H            2.08095337415433        1.06948571494753        0.05452160072076
H            2.69039843520864        0.29256722133668       -2.23214257634522
H            2.74593435299991       -1.37909207436314       -1.65151925634718
H            4.40961560398197        1.91024229421464       -1.54339474589607
H            6.66858455322925        2.27741478705175       -0.70770929990830
H            8.34902840058240        2.41615068033013        0.95437901632561
H            8.99494430551213        1.86020935665114       -0.61699309848523
H            9.82469095117941        1.42129132024815        0.89618265832829
H            7.26292221792045       -3.76335694100270        1.54801161154806
H            5.58621950529481       -3.17929986403811        1.67296825628034
H            6.25122553859237       -3.66893594005430        0.08625549438766
H            4.49889916687829       -2.11079024078192       -0.13042776024711
H           -0.11774625990617       -1.76600132054904       -1.79016388732367
H           -0.94490468330683       -1.54456452716154       -0.23657696046099
H            0.71688191773760       -2.14974876805319       -0.27707047599742
H           -5.34869526954062        1.56911642281383       -1.05161064429883
H           -4.46899092494263        2.61853990726994        2.57675223327943
H           -5.26148721960828        1.28060402250091        1.76225292221947
H           -5.96516957714846        2.91483105492110        1.68125072594036
H           -3.49158633951566        4.63016869568999        0.35590558121919
H           -4.12522811013854        4.01669744647123       -1.16179286420197
H           -5.23239633610387        4.47690900743489        0.14119898161840
H           -1.31569954114990        2.97242866001440        2.81988487576833

          :  Hamiltonian                  GFN2-xTB          :
         :: total energy             -99.240149135404 Eh    ::
         :: gradient norm              0.009809093096 Eh/a0 ::
         :: HOMO-LUMO gap              0.413933295505 eV    ::
         :: SCC energy              -100.611348389921 Eh    ::
         :: -> dispersion             -0.074447727668 Eh    ::
         :: repulsion energy           1.370072348829 Eh    ::

    * Orbital Energies and Occupations

         #    Occupation            Energy/Eh            Energy/eV
      -------------------------------------------------------------
         1        2.0000           -0.8083636             -21.9967
       ...           ...                  ...                  ...
        78        1.9994           -0.5321565             -14.4807
        79        1.9994           -0.5313151             -14.4578
        80        1.9991           -0.5256892             -14.3047
        81        1.9990           -0.5240438             -14.2600
        82        1.9987           -0.5202651             -14.1571
        83        1.9984           -0.5166249             -14.0581
        84        1.9978           -0.5116726             -13.9233
        85        1.9872           -0.4837017             -13.1622
        86        1.9839           -0.4800000             -13.0615
        87        1.9827           -0.4789268             -13.0323
        88        1.8798           -0.4473617             -12.1733
        89        1.7660           -0.4358237             -11.8594
        90        1.1739           -0.4093826             -11.1399 (HOMO)
        91        0.7044           -0.3941708             -10.7259 (LUMO)
        92        0.4507           -0.3842663             -10.4564
        93        0.0408           -0.3425159              -9.3203
        94        0.0355           -0.3402909              -9.2598
        95        0.0035           -0.3033657              -8.2550
        96        0.0030           -0.3007847              -8.1848
        97        0.0003           -0.2625644              -7.1447
        98        0.0000           -0.2118277              -5.7641
        99        0.0000           -0.1781407              -4.8475
       100                         -0.1245270              -3.3886
       101                         -0.0647389              -1.7616
       ...                                ...                  ...
       171                          0.5866120              15.9625
      -------------------------------------------------------------
                  HL-Gap            0.0152118 Eh            0.4139 eV

     #   Z          covCN         q      C6AA      α(0)
     1   7 N        1.774    -0.295    28.468     7.901
     2   6 C        2.828     0.097    25.829     8.328
     3   6 C        3.910     0.006    20.423     6.423
     4   6 C        2.956    -0.004    28.119     8.698
     5   6 C        2.897    -0.080    29.997     8.980
     6   6 C        2.799     0.102    25.739     8.311
     7   8 O        1.705    -0.225    17.736     5.686
     8   6 C        3.655     0.025    20.442     6.491
     9   6 C        1.865     0.036    30.217     8.879
    10   8 O        1.703    -0.190    17.174     5.595
    11   6 C        3.643     0.020    20.580     6.521
    12   6 C        2.889    -0.076    29.897     8.964
    13   6 C        2.905    -0.046    29.144     8.852
    14   6 C        3.809    -0.067    21.774     6.642
    15   6 C        3.802    -0.069    21.826     6.651
    16   6 C        2.843    -0.003    28.087     8.686
    17   7 N        2.729     0.008    21.125     6.826
    18   6 C        3.756    -0.015    20.897     6.518
    19   6 C        3.808    -0.070    21.834     6.652
    20   6 C        2.970    -0.002    28.077     8.691
    21   6 C        2.922    -0.050    29.251     8.869
    22   6 C        2.914    -0.069    29.713     8.938
    23   6 C        2.865     0.131    25.122     8.216
    24   8 O        1.706    -0.228    17.775     5.692
    25   6 C        3.645     0.027    20.456     6.500
    26   6 C        2.863     0.131    25.127     8.217
    27   8 O        1.706    -0.230    17.814     5.699
    28   6 C        3.645     0.029    20.421     6.495
    29   6 C        2.920    -0.081    30.015     8.984
    30   6 C        3.699    -0.072    22.050     6.716
    31   6 C        2.948     0.020    27.570     8.612
    32   6 C        3.755    -0.125    22.948     6.830
    33   6 C        3.754    -0.117    22.796     6.808
    34   1 H        0.924     0.089     1.888     2.149
    35   1 H        0.924     0.048     2.344     2.394
    36   1 H        0.924     0.060     2.204     2.321
    37   1 H        0.925     0.079     1.988     2.205
    38   1 H        0.924     0.058     2.221     2.331
    39   1 H        0.925     0.078     2.004     2.214
    40   1 H        0.924     0.053     2.283     2.363
    41   1 H        0.925     0.037     2.491     2.468
    42   1 H        0.925     0.029     2.603     2.523
    43   1 H        0.925     0.057     2.236     2.338
    44   1 H        0.924     0.050     2.314     2.379
    45   1 H        0.925     0.072     2.060     2.244
    46   1 H        0.923     0.076     2.025     2.225
    47   1 H        0.923     0.015     2.818     2.625
    48   1 H        0.926     0.063     2.169     2.303
    49   1 H        0.924     0.065     2.138     2.287
    50   1 H        0.924     0.064     2.150     2.293
    51   1 H        0.924     0.053     2.284     2.363
    52   1 H        0.924     0.054     2.268     2.355
    53   1 H        0.926     0.042     2.423     2.434
    54   1 H        0.926     0.055     2.255     2.348
    55   1 H        0.924     0.051     2.304     2.374
    56   1 H        0.924     0.053     2.280     2.361
    57   1 H        0.925     0.080     1.983     2.202
    58   1 H        0.925     0.079     1.987     2.205
    59   1 H        0.924     0.046     2.373     2.409
    60   1 H        0.924     0.050     2.317     2.381
    61   1 H        0.926     0.044     2.390     2.418
    62   1 H        0.924     0.075     2.035     2.231
    63   1 H        0.924     0.084     1.938     2.177
    64   1 H        0.925     0.077     2.014     2.219
    65   1 H        0.924     0.041     2.431     2.438
    66   1 H        0.924     0.111     1.690     2.033
    67   1 H        0.925     0.067     2.120     2.277
    68   1 H        0.925     0.065     2.141     2.288
    69   1 H        0.924     0.080     1.984     2.203
    70   1 H        0.925     0.058     2.217     2.329
    71   1 H        0.925     0.066     2.129     2.282
    72   1 H        0.860     0.158     1.348     1.819

Wiberg/Mayer (AO) data.
largest (>0.10) Wiberg bond orders for each atom

     #   Z sym  total        # sym  WBO       # sym  WBO       # sym  WBO
 ---------------------------------------------------------------------------
     1   7 N    3.014 --     2 C    1.943    72 H    0.942
     2   6 C    3.880 --     1 N    1.943     3 C    0.948    47 H    0.909
     3   6 C    3.977 --    31 C    1.013    14 C    0.954     2 C    0.948
                             4 C    0.945
     4   6 C    3.858 --    13 C    1.538     5 C    1.191     3 C    0.945
     5   6 C    3.889 --     6 C    1.633     4 C    1.191    34 H    0.892
     6   6 C    3.824 --     5 C    1.633     7 O    1.124    65 H    0.924
     7   8 O    2.264 --     6 C    1.124     8 C    0.975
     8   6 C    3.929 --    37 H    0.978    35 H    0.976     7 O    0.975
                            36 H    0.973
     9   6 C    3.021 --    12 C    1.546    10 O    1.261
    10   8 O    2.317 --     9 C    1.261    11 C    0.924
    11   6 C    3.881 --    39 H    0.980    38 H    0.977    40 H    0.973
                            10 O    0.924
    12   6 C    3.826 --     9 C    1.546    13 C    1.236    41 H    0.914
    13   6 C    3.912 --     4 C    1.538    12 C    1.236    42 H    0.957
    14   6 C    3.967 --    15 C    0.987    44 H    0.974    43 H    0.968
                             3 C    0.954
    15   6 C    3.987 --    16 C    1.058    14 C    0.987    45 H    0.959
                            46 H    0.928
    16   6 C    3.546 --    17 N    1.384    15 C    1.058    48 H    0.958
    17   7 N    3.453 --    16 C    1.384    30 C    0.999    18 C    0.991
    18   6 C    3.958 --    17 N    0.991    50 H    0.968    19 C    0.966
                            49 H    0.964
    19   6 C    3.976 --    20 C    1.008    51 H    0.972    52 H    0.972
                            18 C    0.966
    20   6 C    3.952 --    21 C    1.416    29 C    1.377    19 C    1.008
    21   6 C    3.957 --    20 C    1.416    22 C    1.413    53 H    0.968
    22   6 C    3.964 --    21 C    1.413    23 C    1.389    54 H    0.964
    23   6 C    3.903 --    22 C    1.389    26 C    1.226    24 O    1.103
    24   8 O    2.254 --    23 C    1.103    25 C    0.978
    25   6 C    3.932 --    24 O    0.978    57 H    0.977    55 H    0.974
                            56 H    0.973
    26   6 C    3.906 --    29 C    1.400    23 C    1.226    27 O    1.097
    27   8 O    2.254 --    26 C    1.097    28 C    0.980
    28   6 C    3.935 --    27 O    0.980    58 H    0.977    59 H    0.974
                            60 H    0.974
    29   6 C    3.963 --    26 C    1.400    20 C    1.377    61 H    0.963
    30   6 C    3.956 --    17 N    0.999    64 H    0.978    62 H    0.967
                            63 H    0.956
    31   6 C    3.306 --    32 C    1.091    33 C    1.073     3 C    1.013
    32   6 C    3.972 --    31 C    1.091    68 H    0.974    67 H    0.961
                            66 H    0.902
    33   6 C    3.981 --    31 C    1.073    71 H    0.977    70 H    0.962
                            69 H    0.928
    34   1 H    0.985 --     5 C    0.892
    35   1 H    0.995 --     8 C    0.976
    36   1 H    0.990 --     8 C    0.973
    37   1 H    0.993 --     8 C    0.978
    38   1 H    0.993 --    11 C    0.977
    39   1 H    0.993 --    11 C    0.980
    40   1 H    0.990 --    11 C    0.973
    41   1 H    0.937 --    12 C    0.914
    42   1 H    0.998 --    13 C    0.957
    43   1 H    0.995 --    14 C    0.968
    44   1 H    0.997 --    14 C    0.974
    45   1 H    0.993 --    15 C    0.959
    46   1 H    0.966 --    15 C    0.928
    47   1 H    0.988 --     2 C    0.909
    48   1 H    0.995 --    16 C    0.958
    49   1 H    0.991 --    18 C    0.964
    50   1 H    0.995 --    18 C    0.968
    51   1 H    0.996 --    19 C    0.972
    52   1 H    0.996 --    19 C    0.972
    53   1 H    0.998 --    21 C    0.968
    54   1 H    0.995 --    22 C    0.964
    55   1 H    0.993 --    25 C    0.974
    56   1 H    0.993 --    25 C    0.973
    57   1 H    0.993 --    25 C    0.977
    58   1 H    0.993 --    28 C    0.977
    59   1 H    0.994 --    28 C    0.974
    60   1 H    0.994 --    28 C    0.974
    61   1 H    0.997 --    29 C    0.963
    62   1 H    0.984 --    30 C    0.967
    63   1 H    0.985 --    30 C    0.956
    64   1 H    0.994 --    30 C    0.978
    65   1 H    0.993 --     6 C    0.924
    66   1 H    0.936 --    32 C    0.902
    67   1 H    0.982 --    32 C    0.961
    68   1 H    0.990 --    32 C    0.974
    69   1 H    0.949 --    33 C    0.928
    70   1 H    0.981 --    33 C    0.962
    71   1 H    0.992 --    33 C    0.977
    72   1 H    0.971 --     1 N    0.942
 ---------------------------------------------------------------------------

molecular dipole:
                 x           y           z       tot (Debye)
 q only:       -1.006       0.910      -0.530
   full:       -0.615       0.986      -0.412       3.134

           -------------------------------------------------
          | TOTAL ENERGY              -99.240149135404 Eh   |
          | GRADIENT NORM               0.009809093096 Eh/α |
          | HOMO-LUMO GAP               0.413933295505 eV   |
           -------------------------------------------------

 * finished run on 2024/04/06 at 11:12:51.987
