   * xtb version 6.6.1 (8d0f1dd) compiled by 'conda@1efc2f54142f' on 2023-08-01
          program call               : xtb struc.xyz --opt loose --input .xc1 --gfn2

   ID    Z sym.   atoms
    1    7 N      1, 17
    2    6 C      2-6, 8, 9, 11-16, 18-23, 25, 26, 28-33
    3    8 O      7, 10, 24, 27
    4    1 H      34-72
constraining bond 4 12 to    5.0000000 Å, actual value:    2.4135321 Å

          :  Hamiltonian                  GFN2-xTB          :
 * total energy  :   -98.2096428 Eh     change       -0.4035485E-08 Eh
 * total energy  :   -98.4617281 Eh     change       -0.2520854E+00 Eh
 * total energy  :   -98.6111091 Eh     change       -0.1493810E+00 Eh
 * total energy  :   -98.6962723 Eh     change       -0.8516315E-01 Eh
 * total energy  :   -98.7503007 Eh     change       -0.5402844E-01 Eh
 * total energy  :   -98.7847528 Eh     change       -0.3445205E-01 Eh
 * total energy  :   -98.8087620 Eh     change       -0.2400923E-01 Eh
 * total energy  :   -98.8267375 Eh     change       -0.1797553E-01 Eh
 * total energy  :   -98.8437217 Eh     change       -0.1698415E-01 Eh
 * total energy  :   -98.8609316 Eh     change       -0.1720991E-01 Eh
 * total energy  :   -99.2640409 Eh     change       -0.8205635E-04 Eh
 * total energy  :   -99.2641363 Eh     change       -0.9535206E-04 Eh
 * total energy  :   -99.2642125 Eh     change       -0.7624778E-04 Eh
 * total energy  :   -99.2643064 Eh     change       -0.9383462E-04 Eh
 * total energy  :   -99.2643851 Eh     change       -0.7872533E-04 Eh
 * total energy  :   -99.2644770 Eh     change       -0.9196461E-04 Eh
 * total energy  :   -99.2645361 Eh     change       -0.5903737E-04 Eh
 * total energy  :   -99.2645982 Eh     change       -0.6212184E-04 Eh
 * total energy  :   -99.2646372 Eh     change       -0.3895415E-04 Eh
   *** GEOMETRY OPTIMIZATION CONVERGED AFTER 106 ITERATIONS ***

 final structure:
================
72
 xtb: 6.6.1 (8d0f1dd)
N           -2.24695847251645        2.75234021481713        2.39105400042126
C           -2.80768483816244        1.90953652194304        1.64857456442967
C           -3.32341408400039        2.04494371654340        0.20650288947109
C           -3.71770144695935        0.57918478708048        0.38213633703019
C           -4.35785400194688       -0.30055462813253       -0.54428086252509
C           -4.80914533995686       -1.61095606329321       -0.62617062409380
O           -5.38259207399516       -2.06104260120770       -1.76625935522949
C           -5.58828465154157       -1.24900290866458       -2.90025448104313
C           -4.82633332889644       -2.77117722896929        0.33836556281780
O           -4.28806023780931       -2.43296803293011        1.54099341409675
C           -4.36105132861872       -3.43771940812265        2.53370146538051
C           -5.31909979790012       -3.99125742510214        0.06912691944988
C           -3.24493048380384        0.52257788566355        1.66756917685721
C           -2.24843730893048        2.33314665128072       -0.84830044457757
C           -1.26850152135239        1.18934055102096       -1.11235176353991
C           -0.26528763069967        0.97109411089139        0.02689441822253
N            0.68688875855959       -0.05748829574383       -0.30810731471932
C            2.08368135553830        0.15144082481675       -0.03518873627009
C            2.94694381382927       -0.12932213698143       -1.28502957866723
C            4.40087752187071        0.01864806102163       -0.95403746929968
C            5.06527582616253        1.22019051621540       -1.16570961778587
C            6.39956431745749        1.36613481080804       -0.82459875868221
C            7.10384551841291        0.31185470951181       -0.25495553851629
O            8.39280427762602        0.33865741906129        0.11805497138943
C            9.14659832225332        1.51425862930605       -0.07439108030121
C            6.43153069674161       -0.92575206336552       -0.03161331175169
O            7.18553811190725       -1.89355148474816        0.51778843552014
C            6.61731577765291       -3.15727691388305        0.77022068796796
C            5.09495024083587       -1.04515705791948       -0.38317351318106
C            0.22658274676750       -1.40935052232643       -0.13354517649956
C           -4.51567151751562        3.01443990950354        0.08207753530458
C           -5.61278180348626        2.68364607343240        1.09316111014726
C           -4.05855992754308        4.45892990774783        0.26916368071822
H           -4.54745397632994        0.24006552794846       -1.46730695977837
H           -6.23978746458563       -0.39651510837312       -2.68165029720352
H           -6.08217508780060       -1.89651413479997       -3.62280996176675
H           -4.64317034626418       -0.89613373271794       -3.32433371669504
H           -3.94332971020056       -3.00658739458813        3.44096106212930
H           -5.40019468903675       -3.73586721181241        2.70215472008431
H           -3.78816702492967       -4.32101886988328        2.23347571382833
H           -5.76691937436446       -4.44814535369147       -0.77955924589936
H           -3.22089647030592       -0.24557799917530        2.41659682469432
H           -2.75033889669421        2.56915664577905       -1.78996044974017
H           -1.69268851951836        3.21708641536540       -0.53367573957795
H           -1.82247232019521        0.26745756289975       -1.29627825003742
H           -0.70159640782936        1.41955470951510       -2.01655886604106
H           -0.80719426299807        0.70233917740112        0.94395705933932
H            0.26326175212776        1.90817198076002        0.21019752150569
H            2.42285677912895       -0.50412981303855        0.77891863888203
H            2.25005754652555        1.18511969697814        0.27342078590759
H            2.66189126834162        0.57136470547655       -2.06963906436014
H            2.74521121974170       -1.14122595176352       -1.63766510825153
H            4.54038290410910        2.05216346686712       -1.60926584835387
H            6.88869666237189        2.30900483771544       -1.00701936929449
H            8.73137252149826        2.35241081427751        0.49308745640804
H            9.20484510160109        1.78216498356331       -1.13335578389604
H           10.14385783323465        1.28541596391747        0.29633299026450
H            7.41586740125471       -3.75521162221194        1.20518439089762
H            5.78812885817104       -3.08849622535776        1.48117616859322
H            6.27073942955201       -3.63197666623252       -0.15272376516262
H            4.57861548705915       -1.97884877650170       -0.22396279296531
H           -0.78924686472776       -1.50791564672762       -0.51002828324463
H            0.23257836276970       -1.70919302235141        0.92447391695764
H            0.86928067650767       -2.09119191481064       -0.68809034867778
H           -4.93315241416321        2.89706803491123       -0.92616234755354
H           -5.25052157809767        2.82951853036422        2.10821013047282
H           -5.95120517774642        1.65449433411200        0.99149536475567
H           -6.46587343012296        3.33971923155368        0.93938215002427
H           -3.48266600503785        4.54699710398227        1.18762821668178
H           -3.44521977865345        4.79452890377279       -0.56237557441319
H           -4.92265976569190        5.11492396740774        0.33718301156410
H           -1.99424613175514        2.47217384267585        3.33243295000990

          :  Hamiltonian                  GFN2-xTB          :
         :: total energy             -99.264637175418 Eh    ::
         :: gradient norm              0.002993246500 Eh/a0 ::
         :: HOMO-LUMO gap              0.612401281724 eV    ::
         :: SCC energy              -100.605517460237 Eh    ::
         :: -> dispersion             -0.070757303358 Eh    ::
         :: repulsion energy           1.335882814455 Eh    ::

    * Orbital Energies and Occupations

         #    Occupation            Energy/Eh            Energy/eV
      -------------------------------------------------------------
         1        2.0000           -0.8256392             -22.4668
       ...           ...                  ...                  ...
        78        1.9963           -0.5313847             -14.4597
        79        1.9948           -0.5260818             -14.3154
        80        1.9940           -0.5238219             -14.2539
        81        1.9937           -0.5230982             -14.2342
        82        1.9871           -0.5116777             -13.9235
        83        1.9853           -0.5095850             -13.8665
        84        1.9850           -0.5093013             -13.8588
        85        1.9592           -0.4932101             -13.4209
        86        1.9213           -0.4825000             -13.1295
        87        1.8117           -0.4677559             -12.7283
        88        1.7897           -0.4658131             -12.6754
        89        1.7630           -0.4636821             -12.6174
        90        1.6633           -0.4572015             -12.4411 (HOMO)
        91        1.0878           -0.4346961             -11.8287 (LUMO)
        92        0.0895           -0.3834388             -10.4339
        93        0.0014           -0.3171358              -8.6297
        94        0.0012           -0.3149389              -8.5699
        95        0.0011           -0.3137330              -8.5371
        96        0.0001           -0.2674778              -7.2784
        97        0.0000           -0.2267249              -6.1695
        98        0.0000           -0.1927582              -5.2452
        99                         -0.1098864              -2.9902
       100                         -0.1045338              -2.8445
       101                         -0.0875450              -2.3822
       ...                                ...                  ...
       171                          0.7307504              19.8847
      -------------------------------------------------------------
                  HL-Gap            0.0225053 Eh            0.6124 eV

     #   Z          covCN         q      C6AA      α(0)
     1   7 N        1.771    -0.290    28.322     7.880
     2   6 C        3.254     0.129    24.188     7.956
     3   6 C        4.175     0.001    20.474     6.426
     4   6 C        3.325     0.031    25.111     7.964
     5   6 C        2.887    -0.076    29.885     8.962
     6   6 C        2.825     0.142    24.897     8.176
     7   8 O        1.708    -0.234    17.871     5.708
     8   6 C        3.633     0.024    20.553     6.525
     9   6 C        2.849     0.143    24.875     8.174
    10   8 O        1.704    -0.246    18.076     5.740
    11   6 C        3.657     0.027    20.402     6.483
    12   6 C        1.911    -0.119    34.431     9.476
    13   6 C        3.159    -0.064    29.261     8.844
    14   6 C        3.803    -0.066    21.762     6.642
    15   6 C        3.801    -0.066    21.774     6.644
    16   6 C        3.746    -0.006    20.752     6.498
    17   7 N        2.729    -0.093    23.054     7.131
    18   6 C        3.749    -0.002    20.674     6.485
    19   6 C        3.808    -0.072    21.876     6.658
    20   6 C        2.968     0.012    27.739     8.639
    21   6 C        2.921    -0.042    29.042     8.837
    22   6 C        2.912    -0.064    29.590     8.920
    23   6 C        2.864     0.137    25.007     8.197
    24   8 O        1.706    -0.210    17.498     5.648
    25   6 C        3.645     0.022    20.543     6.514
    26   6 C        2.862     0.137    25.008     8.197
    27   8 O        1.706    -0.214    17.558     5.658
    28   6 C        3.645     0.024    20.505     6.508
    29   6 C        2.919    -0.075    29.884     8.964
    30   6 C        3.702    -0.050    21.625     6.649
    31   6 C        3.851    -0.007    20.676     6.467
    32   6 C        3.755    -0.109    22.630     6.783
    33   6 C        3.756    -0.119    22.831     6.813
    34   1 H        0.925     0.065     2.146     2.291
    35   1 H        0.924     0.062     2.180     2.309
    36   1 H        0.925     0.088     1.901     2.156
    37   1 H        0.924     0.057     2.231     2.336
    38   1 H        0.925     0.071     2.076     2.253
    39   1 H        0.924     0.063     2.165     2.301
    40   1 H        0.924     0.059     2.207     2.323
    41   1 H        0.927     0.092     1.863     2.134
    42   1 H        0.926     0.054     2.266     2.354
    43   1 H        0.924     0.052     2.295     2.369
    44   1 H        0.924     0.064     2.156     2.296
    45   1 H        0.924     0.042     2.416     2.431
    46   1 H        0.924     0.055     2.261     2.352
    47   1 H        0.923     0.044     2.394     2.420
    48   1 H        0.924     0.056     2.244     2.343
    49   1 H        0.923     0.046     2.366     2.405
    50   1 H        0.924     0.054     2.269     2.356
    51   1 H        0.925     0.061     2.182     2.310
    52   1 H        0.924     0.058     2.228     2.334
    53   1 H        0.926     0.057     2.234     2.337
    54   1 H        0.926     0.064     2.155     2.295
    55   1 H        0.924     0.060     2.197     2.318
    56   1 H        0.924     0.061     2.184     2.311
    57   1 H        0.925     0.086     1.914     2.163
    58   1 H        0.925     0.085     1.924     2.169
    59   1 H        0.924     0.055     2.260     2.351
    60   1 H        0.924     0.058     2.225     2.333
    61   1 H        0.926     0.055     2.260     2.351
    62   1 H        0.925     0.059     2.205     2.322
    63   1 H        0.923     0.045     2.378     2.412
    64   1 H        0.925     0.062     2.177     2.307
    65   1 H        0.924     0.038     2.476     2.461
    66   1 H        0.925     0.045     2.378     2.411
    67   1 H        0.925     0.036     2.508     2.476
    68   1 H        0.925     0.052     2.290     2.367
    69   1 H        0.925     0.067     2.124     2.279
    70   1 H        0.925     0.045     2.384     2.415
    71   1 H        0.925     0.055     2.262     2.352
    72   1 H        0.860     0.164     1.311     1.794

Wiberg/Mayer (AO) data.
largest (>0.10) Wiberg bond orders for each atom

     #   Z sym  total        # sym  WBO       # sym  WBO       # sym  WBO
 ---------------------------------------------------------------------------
     1   7 N    2.902 --     2 C    1.809    72 H    0.929
     2   6 C    3.917 --     1 N    1.809    13 C    1.084     3 C    0.930
     3   6 C    3.938 --    14 C    0.974     4 C    0.962    31 C    0.953
                             2 C    0.930
     4   6 C    3.919 --    13 C    1.539     5 C    1.239     3 C    0.962
     5   6 C    3.880 --     6 C    1.493     4 C    1.239    34 H    0.939
     6   6 C    3.765 --     5 C    1.493     7 O    1.119     9 C    0.997
     7   8 O    2.267 --     6 C    1.119     8 C    0.972
     8   6 C    3.925 --    36 H    0.973     7 O    0.972    37 H    0.970
                            35 H    0.969
     9   6 C    3.874 --    12 C    1.722    10 O    1.071     6 C    0.997
    10   8 O    2.200 --     9 C    1.071    11 C    0.974    12 C    0.101
    11   6 C    3.921 --    38 H    0.979    10 O    0.974    39 H    0.971
                            40 H    0.970
    12   6 C    2.885 --     9 C    1.722    41 H    0.951    10 O    0.101
    13   6 C    3.803 --     4 C    1.539     2 C    1.084    42 H    0.960
    14   6 C    3.978 --    15 C    1.006     3 C    0.974    44 H    0.967
                            43 H    0.966
    15   6 C    3.970 --    14 C    1.006    16 C    0.988    46 H    0.972
                            45 H    0.966
    16   6 C    3.959 --    17 N    1.008    15 C    0.988    48 H    0.967
                            47 H    0.944
    17   7 N    3.103 --    30 C    1.020    18 C    1.014    16 C    1.008
    18   6 C    3.959 --    17 N    1.014    50 H    0.969    19 C    0.960
                            49 H    0.957
    19   6 C    3.967 --    20 C    1.017    51 H    0.971    52 H    0.966
                            18 C    0.960
    20   6 C    3.918 --    21 C    1.385    29 C    1.383    19 C    1.017
    21   6 C    3.919 --    22 C    1.428    20 C    1.385    53 H    0.966
    22   6 C    3.944 --    21 C    1.428    23 C    1.368    54 H    0.962
    23   6 C    3.864 --    22 C    1.368    26 C    1.202    24 O    1.123
    24   8 O    2.248 --    23 C    1.123    25 C    0.974
    25   6 C    3.922 --    57 H    0.976    24 O    0.974    55 H    0.970
                            56 H    0.970
    26   6 C    3.872 --    29 C    1.386    23 C    1.202    27 O    1.116
    27   8 O    2.249 --    26 C    1.116    28 C    0.976
    28   6 C    3.926 --    58 H    0.976    27 O    0.976    59 H    0.971
                            60 H    0.971
    29   6 C    3.946 --    26 C    1.386    20 C    1.383    61 H    0.961
    30   6 C    3.966 --    17 N    1.020    62 H    0.976    64 H    0.974
                            63 H    0.959
    31   6 C    3.970 --    32 C    1.006    33 C    1.005    65 H    0.956
                             3 C    0.953
    32   6 C    3.981 --    31 C    1.006    68 H    0.982    66 H    0.981
                            67 H    0.980
    33   6 C    3.971 --    31 C    1.005    70 H    0.981    71 H    0.978
                            69 H    0.974
    34   1 H    0.986 --     5 C    0.939
    35   1 H    0.991 --     8 C    0.969
    36   1 H    0.992 --     8 C    0.973
    37   1 H    0.991 --     8 C    0.970
    38   1 H    0.994 --    11 C    0.979
    39   1 H    0.990 --    11 C    0.971
    40   1 H    0.990 --    11 C    0.970
    41   1 H    0.970 --    12 C    0.951
    42   1 H    0.988 --    13 C    0.960
    43   1 H    0.991 --    14 C    0.966
    44   1 H    0.993 --    14 C    0.967
    45   1 H    0.996 --    15 C    0.966
    46   1 H    0.993 --    15 C    0.972
    47   1 H    0.973 --    16 C    0.944
    48   1 H    0.995 --    16 C    0.967
    49   1 H    0.978 --    18 C    0.957
    50   1 H    0.995 --    18 C    0.969
    51   1 H    0.993 --    19 C    0.971
    52   1 H    0.993 --    19 C    0.966
    53   1 H    0.995 --    21 C    0.966
    54   1 H    0.994 --    22 C    0.962
    55   1 H    0.988 --    25 C    0.970
    56   1 H    0.988 --    25 C    0.970
    57   1 H    0.992 --    25 C    0.976
    58   1 H    0.992 --    28 C    0.976
    59   1 H    0.990 --    28 C    0.971
    60   1 H    0.989 --    28 C    0.971
    61   1 H    0.995 --    29 C    0.961
    62   1 H    0.993 --    30 C    0.976
    63   1 H    0.970 --    30 C    0.959
    64   1 H    0.990 --    30 C    0.974
    65   1 H    0.987 --    31 C    0.956
    66   1 H    0.994 --    32 C    0.981
    67   1 H    0.996 --    32 C    0.980
    68   1 H    0.994 --    32 C    0.982
    69   1 H    0.989 --    33 C    0.974
    70   1 H    0.994 --    33 C    0.981
    71   1 H    0.992 --    33 C    0.978
    72   1 H    0.960 --     1 N    0.929
 ---------------------------------------------------------------------------

molecular dipole:
                 x           y           z       tot (Debye)
 q only:        0.901      -0.313      -0.621
   full:        0.647      -0.581      -0.531       2.591

           -------------------------------------------------
          | TOTAL ENERGY              -99.264637175418 Eh   |
          | GRADIENT NORM               0.002993246500 Eh/α |
          | HOMO-LUMO GAP               0.612401281724 eV   |
           -------------------------------------------------

 * finished run on 2024/04/06 at 11:12:25.277
