   * xtb version 6.6.1 (8d0f1dd) compiled by 'conda@1efc2f54142f' on 2023-08-01
          program call               : xtb xtbopt.xyz --opt crude --input .xc2 --gfn2

   ID    Z sym.   atoms
    1    7 N      1, 17
    2    6 C      2-6, 8, 9, 11-16, 18-23, 25, 26, 28-33
    3    8 O      7, 10, 24, 27
    4    1 H      34-72
########################################################################
[WARNING] Please study the warnings concerning your input carefully
-1- readin_getIntValue: could not parse ''
########################################################################

          :  Hamiltonian                  GFN2-xTB          :
 * total energy  :   -99.2684967 Eh     change       -0.1210765E-09 Eh
 * total energy  :   -99.2730717 Eh     change       -0.4575018E-02 Eh
 * total energy  :   -99.2752934 Eh     change       -0.2221728E-02 Eh
 * total energy  :   -99.2759986 Eh     change       -0.7052018E-03 Eh
 * total energy  :   -99.2764034 Eh     change       -0.4047694E-03 Eh
   *** GEOMETRY OPTIMIZATION CONVERGED AFTER 5 ITERATIONS ***

 final structure:
================
72
 xtb: 6.6.1 (8d0f1dd)
N           -2.28224467634652        2.65070284105142        2.41701254421212
C           -2.84079483359975        1.81570914180100        1.66417658337013
C           -3.34581959724090        1.97887624227957        0.22594337903439
C           -3.75937114431688        0.50430893276373        0.36988710374084
C           -4.38723424921576       -0.24837181216095       -0.63705836349344
C           -4.82432438782345       -1.54425668929935       -0.69644153646282
O           -5.39921119975750       -2.06156521844770       -1.80309124296801
C           -5.61610702381168       -1.26772350120956       -2.94948753037141
C           -4.76949597799788       -2.58215146877277        0.35794323929226
O           -4.23233664195059       -2.22971547801335        1.55284570247640
C           -4.29797591641069       -3.26513826581321        2.51440654179510
C           -5.23991867016556       -3.79406659597291        0.11107794413894
C           -3.28871591815264        0.43216865863197        1.65691097650284
C           -2.26893475733659        2.28050827933107       -0.82357744158323
C           -1.27698300402893        1.15188867726708       -1.09988490279305
C           -0.26787621634592        0.94588088113438        0.03538284591339
N            0.69026229171253       -0.07733155805807       -0.29776975239673
C            2.08621638264612        0.14288760149656       -0.02962907628842
C            2.94804076676788       -0.13456540187305       -1.28121995355804
C            4.40195932982944        0.01685557459224       -0.95202193718293
C            5.06385909649101        1.21981795844566       -1.16244319730243
C            6.39864195297967        1.36713866018563       -0.82342853477705
C            7.10543418504394        0.31322859815924       -0.25665822355494
O            8.39582178686090        0.34087541102239        0.11235906393916
C            9.14749603414875        1.51763859472999       -0.07891362782804
C            6.43512729672359       -0.92506482091016       -0.03226095266030
O            7.19030045487542       -1.89202615724171        0.51742860013417
C            6.62350252667234       -3.15667116057916        0.76787677919294
C            5.09854641050215       -1.04616041491120       -0.38273402879259
C            0.23719668420308       -1.42966907314827       -0.11893003261532
C           -4.52713917331705        2.96194662102037        0.10078644408466
C           -5.63089632114668        2.64932105123508        1.10912980304339
C           -4.05551257748688        4.40290915920688        0.28183525149315
H           -4.54979158051705        0.33573733565615       -1.53524458099697
H           -6.27137899784485       -0.41959519093755       -2.73264401846654
H           -6.10727235720205       -1.92710006339696       -3.66263033716048
H           -4.67440816992645       -0.91190803989363       -3.37785207159129
H           -3.87564092513591       -2.87609500006300        3.43735255053682
H           -5.33554285375464       -3.57117237593036        2.67784739299650
H           -3.72913605391226       -4.13779293066723        2.17824354556830
H           -5.70199382905746       -4.30340233442341       -0.69789401934216
H           -3.26723810203423       -0.33822145424839        2.40206326912323
H           -2.77123288409834        2.52384347449642       -1.76309639780328
H           -1.72062464516013        3.16513015034366       -0.49790677756583
H           -1.81694421670763        0.22269590571639       -1.28778460848805
H           -0.71738577523858        1.39670191520822       -2.00492620299122
H           -0.80550000931715        0.67954909575929        0.95553743564647
H            0.25475673897292        1.88769884209642        0.21121717906608
H            2.43256903238801       -0.50780618760009        0.78513660792415
H            2.24529014030768        1.17858891256421        0.27552342270172
H            2.65974724820045        0.56548279598839       -2.06515432051280
H            2.74848997768828       -1.14695689853274       -1.63363899325756
H            4.53721203319415        2.05191937443589       -1.60356263067008
H            6.88620249325565        2.31089662415306       -1.00550323566373
H            8.73209788653686        2.35439873578541        0.49047890114371
H            9.20438487248387        1.78776058894948       -1.13744344959529
H           10.14561012917561        1.28952623488985        0.29016535384337
H            7.42297324168712       -3.75476722062552        1.20084653093063
H            5.79495447945572       -3.09013815952192        1.47983439767602
H            6.27629799103185       -3.62982503541505       -0.15563441363033
H            4.58353090813501       -1.98061361177218       -0.22363100156775
H           -0.77663087521020       -1.53439181261125       -0.49829175228510
H            0.24020986453283       -1.72549779804783        0.93993043500061
H            0.88384652627175       -2.11170809474729       -0.66821902982361
H           -4.94348376534672        2.84734742283052       -0.90834934700540
H           -5.27033285483269        2.79708034827937        2.12444814572035
H           -5.98137601910242        1.62385470643965        1.01137250930221
H           -6.47512776300977        3.31494745470920        0.94815481843920
H           -3.47847876303706        4.48961317908760        1.19945993385649
H           -3.44031656110641        4.72965110678663       -0.55179004406065
H           -4.91369492357553        5.06707320650608        0.34657817117948
H           -2.02963895426904        2.37344905229192        3.35881900671664

          :  Hamiltonian                  GFN2-xTB          :
         :: total energy             -99.276403413827 Eh    ::
         :: gradient norm              0.004107406543 Eh/a0 ::
         :: HOMO-LUMO gap              0.662708325131 eV    ::
         :: SCC energy              -100.633179212173 Eh    ::
         :: -> dispersion             -0.071482651219 Eh    ::
         :: repulsion energy           1.355574894766 Eh    ::

    * Orbital Energies and Occupations

         #    Occupation            Energy/Eh            Energy/eV
      -------------------------------------------------------------
         1        2.0000           -0.8276212             -22.5207
       ...           ...                  ...                  ...
        78        1.9963           -0.5307441             -14.4423
        79        1.9950           -0.5259062             -14.3106
        80        1.9943           -0.5237319             -14.2515
        81        1.9938           -0.5225266             -14.2187
        82        1.9871           -0.5108202             -13.9001
        83        1.9861           -0.5096964             -13.8695
        84        1.9836           -0.5069765             -13.7955
        85        1.9596           -0.4925440             -13.4028
        86        1.9449           -0.4875137             -13.2659
        87        1.8155           -0.4672842             -12.7155
        88        1.7914           -0.4651333             -12.6569
        89        1.7740           -0.4637050             -12.6181
        90        1.6676           -0.4566222             -12.4253 (HOMO)
        91        1.0374           -0.4322681             -11.7626 (LUMO)
        92        0.0940           -0.3834274             -10.4336
        93        0.0014           -0.3164598              -8.6113
        94        0.0012           -0.3142361              -8.5508
        95        0.0010           -0.3111331              -8.4664
        96        0.0001           -0.2646963              -7.2028
        97        0.0000           -0.2186652              -5.9502
        98        0.0000           -0.1920421              -5.2257
        99                         -0.1072890              -2.9195
       100                         -0.1017737              -2.7694
       101                         -0.0851432              -2.3169
       ...                                ...                  ...
       171                          0.7434568              20.2305
      -------------------------------------------------------------
                  HL-Gap            0.0243541 Eh            0.6627 eV

     #   Z          covCN         q      C6AA      α(0)
     1   7 N        1.772    -0.289    28.310     7.879
     2   6 C        3.236     0.129    24.379     8.010
     3   6 C        4.181    -0.002    20.536     6.436
     4   6 C        3.308     0.031    25.429     8.056
     5   6 C        2.889    -0.074    29.854     8.958
     6   6 C        2.842     0.143    24.876     8.174
     7   8 O        1.707    -0.235    17.894     5.711
     8   6 C        3.638     0.024    20.533     6.518
     9   6 C        2.865     0.145    24.834     8.169
    10   8 O        1.705    -0.245    18.064     5.738
    11   6 C        3.672     0.028    20.340     6.464
    12   6 C        1.921    -0.119    34.411     9.473
    13   6 C        3.165    -0.064    29.213     8.833
    14   6 C        3.803    -0.067    21.773     6.643
    15   6 C        3.801    -0.066    21.771     6.643
    16   6 C        3.747    -0.006    20.754     6.498
    17   7 N        2.729    -0.093    23.057     7.132
    18   6 C        3.749    -0.002    20.675     6.485
    19   6 C        3.808    -0.072    21.876     6.658
    20   6 C        2.968     0.012    27.743     8.640
    21   6 C        2.921    -0.042    29.045     8.838
    22   6 C        2.912    -0.064    29.592     8.920
    23   6 C        2.864     0.137    25.011     8.198
    24   8 O        1.706    -0.211    17.506     5.649
    25   6 C        3.645     0.022    20.539     6.514
    26   6 C        2.862     0.137    25.011     8.197
    27   8 O        1.706    -0.215    17.565     5.659
    28   6 C        3.645     0.024    20.502     6.508
    29   6 C        2.919    -0.076    29.887     8.965
    30   6 C        3.703    -0.049    21.616     6.648
    31   6 C        3.851    -0.008    20.681     6.468
    32   6 C        3.755    -0.109    22.633     6.783
    33   6 C        3.756    -0.119    22.831     6.813
    34   1 H        0.925     0.065     2.138     2.287
    35   1 H        0.924     0.062     2.175     2.306
    36   1 H        0.925     0.087     1.905     2.158
    37   1 H        0.924     0.058     2.226     2.333
    38   1 H        0.925     0.070     2.081     2.256
    39   1 H        0.924     0.062     2.173     2.305
    40   1 H        0.924     0.058     2.217     2.328
    41   1 H        0.927     0.095     1.829     2.115
    42   1 H        0.926     0.060     2.201     2.320
    43   1 H        0.924     0.051     2.302     2.373
    44   1 H        0.924     0.064     2.153     2.294
    45   1 H        0.924     0.042     2.426     2.436
    46   1 H        0.924     0.054     2.265     2.354
    47   1 H        0.923     0.044     2.392     2.418
    48   1 H        0.924     0.056     2.244     2.343
    49   1 H        0.923     0.046     2.368     2.406
    50   1 H        0.924     0.054     2.269     2.356
    51   1 H        0.925     0.061     2.185     2.311
    52   1 H        0.924     0.057     2.230     2.335
    53   1 H        0.926     0.057     2.237     2.339
    54   1 H        0.926     0.064     2.157     2.297
    55   1 H        0.924     0.060     2.200     2.319
    56   1 H        0.924     0.061     2.187     2.313
    57   1 H        0.925     0.086     1.916     2.165
    58   1 H        0.925     0.085     1.926     2.170
    59   1 H        0.924     0.055     2.263     2.352
    60   1 H        0.924     0.058     2.228     2.334
    61   1 H        0.926     0.055     2.263     2.353
    62   1 H        0.925     0.059     2.212     2.326
    63   1 H        0.923     0.045     2.386     2.416
    64   1 H        0.925     0.062     2.181     2.310
    65   1 H        0.924     0.037     2.485     2.465
    66   1 H        0.925     0.046     2.372     2.408
    67   1 H        0.925     0.035     2.516     2.481
    68   1 H        0.925     0.052     2.293     2.368
    69   1 H        0.925     0.066     2.129     2.282
    70   1 H        0.925     0.045     2.387     2.416
    71   1 H        0.925     0.055     2.263     2.352
    72   1 H        0.860     0.163     1.314     1.796

Wiberg/Mayer (AO) data.
largest (>0.10) Wiberg bond orders for each atom

     #   Z sym  total        # sym  WBO       # sym  WBO       # sym  WBO
 ---------------------------------------------------------------------------
     1   7 N    2.899 --     2 C    1.807    72 H    0.930
     2   6 C    3.914 --     1 N    1.807    13 C    1.084     3 C    0.932
     3   6 C    3.934 --    14 C    0.974     4 C    0.957    31 C    0.953
                             2 C    0.932
     4   6 C    3.918 --    13 C    1.530     5 C    1.254     3 C    0.957
     5   6 C    3.896 --     6 C    1.493     4 C    1.254    34 H    0.941
     6   6 C    3.778 --     5 C    1.493     7 O    1.117     9 C    1.013
     7   8 O    2.264 --     6 C    1.117     8 C    0.970
     8   6 C    3.924 --    36 H    0.974    37 H    0.971    35 H    0.971
                             7 O    0.970
     9   6 C    3.893 --    12 C    1.730    10 O    1.068     6 C    1.013
    10   8 O    2.206 --     9 C    1.068    11 C    0.973    12 C    0.105
    11   6 C    3.920 --    38 H    0.978    10 O    0.973    39 H    0.970
                            40 H    0.970
    12   6 C    2.913 --     9 C    1.730    41 H    0.953    10 O    0.105
    13   6 C    3.800 --     4 C    1.530     2 C    1.084    42 H    0.957
    14   6 C    3.977 --    15 C    1.006     3 C    0.974    43 H    0.966
                            44 H    0.966
    15   6 C    3.971 --    14 C    1.006    16 C    0.988    46 H    0.972
                            45 H    0.966
    16   6 C    3.959 --    17 N    1.008    15 C    0.988    48 H    0.967
                            47 H    0.944
    17   7 N    3.104 --    30 C    1.021    18 C    1.014    16 C    1.008
    18   6 C    3.960 --    17 N    1.014    50 H    0.969    19 C    0.960
                            49 H    0.957
    19   6 C    3.967 --    20 C    1.017    51 H    0.971    52 H    0.966
                            18 C    0.960
    20   6 C    3.918 --    21 C    1.385    29 C    1.383    19 C    1.017
    21   6 C    3.920 --    22 C    1.427    20 C    1.385    53 H    0.966
    22   6 C    3.944 --    21 C    1.427    23 C    1.369    54 H    0.962
    23   6 C    3.864 --    22 C    1.369    26 C    1.203    24 O    1.122
    24   8 O    2.247 --    23 C    1.122    25 C    0.974
    25   6 C    3.922 --    57 H    0.976    24 O    0.974    55 H    0.970
                            56 H    0.970
    26   6 C    3.873 --    29 C    1.386    23 C    1.203    27 O    1.116
    27   8 O    2.249 --    26 C    1.116    28 C    0.976
    28   6 C    3.926 --    58 H    0.976    27 O    0.976    59 H    0.971
                            60 H    0.971
    29   6 C    3.946 --    26 C    1.386    20 C    1.383    61 H    0.961
    30   6 C    3.966 --    17 N    1.021    62 H    0.976    64 H    0.975
                            63 H    0.959
    31   6 C    3.969 --    32 C    1.006    33 C    1.005    65 H    0.956
                             3 C    0.953
    32   6 C    3.981 --    31 C    1.006    68 H    0.982    66 H    0.981
                            67 H    0.981
    33   6 C    3.972 --    31 C    1.005    70 H    0.981    71 H    0.978
                            69 H    0.974
    34   1 H    0.986 --     5 C    0.941
    35   1 H    0.991 --     8 C    0.971
    36   1 H    0.992 --     8 C    0.974
    37   1 H    0.992 --     8 C    0.971
    38   1 H    0.993 --    11 C    0.978
    39   1 H    0.992 --    11 C    0.970
    40   1 H    0.992 --    11 C    0.970
    41   1 H    0.972 --    12 C    0.953
    42   1 H    0.986 --    13 C    0.957
    43   1 H    0.991 --    14 C    0.966
    44   1 H    0.993 --    14 C    0.966
    45   1 H    0.996 --    15 C    0.966
    46   1 H    0.993 --    15 C    0.972
    47   1 H    0.973 --    16 C    0.944
    48   1 H    0.996 --    16 C    0.967
    49   1 H    0.978 --    18 C    0.957
    50   1 H    0.995 --    18 C    0.969
    51   1 H    0.993 --    19 C    0.971
    52   1 H    0.993 --    19 C    0.966
    53   1 H    0.995 --    21 C    0.966
    54   1 H    0.994 --    22 C    0.962
    55   1 H    0.988 --    25 C    0.970
    56   1 H    0.988 --    25 C    0.970
    57   1 H    0.992 --    25 C    0.976
    58   1 H    0.992 --    28 C    0.976
    59   1 H    0.990 --    28 C    0.971
    60   1 H    0.989 --    28 C    0.971
    61   1 H    0.995 --    29 C    0.961
    62   1 H    0.993 --    30 C    0.976
    63   1 H    0.970 --    30 C    0.959
    64   1 H    0.991 --    30 C    0.975
    65   1 H    0.987 --    31 C    0.956
    66   1 H    0.994 --    32 C    0.981
    67   1 H    0.996 --    32 C    0.981
    68   1 H    0.994 --    32 C    0.982
    69   1 H    0.989 --    33 C    0.974
    70   1 H    0.994 --    33 C    0.981
    71   1 H    0.992 --    33 C    0.978
    72   1 H    0.960 --     1 N    0.930
 ---------------------------------------------------------------------------

molecular dipole:
                 x           y           z       tot (Debye)
 q only:        0.799      -0.380      -0.617
   full:        0.538      -0.662      -0.534       2.556

           -------------------------------------------------
          | TOTAL ENERGY              -99.276403413827 Eh   |
          | GRADIENT NORM               0.004107406543 Eh/α |
          | HOMO-LUMO GAP               0.662708325131 eV   |
           -------------------------------------------------

 * finished run on 2024/04/06 at 11:12:26.406
