   * xtb version 6.6.1 (8d0f1dd) compiled by 'conda@1efc2f54142f' on 2023-08-01
          program call               : xtb struc.xyz --opt loose --input .xc1 --gfn2

   ID    Z sym.   atoms
    1    6 C      1, 3, 5-7, 10, 11, 14
    2    7 N      2, 4, 9, 13
    3    8 O      8, 12
    4    1 H      15-25
constraining bond 5 17 to    4.7133300 Å, actual value:    3.9116783 Å

          :  Hamiltonian                  GFN2-xTB          :
 * total energy  :   -43.3953225 Eh     change       -0.6650680E-10 Eh
 * total energy  :   -46.2531887 Eh     change       -0.2857866E+01 Eh
 * total energy  :   -50.4916698 Eh     change       -0.4238481E+01 Eh
 * total energy  :   -56.1962466 Eh     change       -0.5704577E+01 Eh
 * total energy  :   -63.2702711 Eh     change       -0.7074025E+01 Eh
 * total energy  :   -71.0676624 Eh     change       -0.7797391E+01 Eh
 * total energy  :   -65.1694180 Eh     change        0.5898244E+01 Eh
 * total energy  :   -71.6310523 Eh     change       -0.6461634E+01 Eh
 * total energy  :   -72.4362574 Eh     change       -0.8052051E+00 Eh
 * total energy  :   -72.6178012 Eh     change       -0.1815438E+00 Eh
 * total energy  :   -73.3657507 Eh     change       -0.3814605E-04 Eh
 * total energy  :   -73.3657826 Eh     change       -0.3195818E-04 Eh
 * total energy  :   -73.3658104 Eh     change       -0.2775045E-04 Eh
 * total energy  :   -73.3658371 Eh     change       -0.2669687E-04 Eh
 * total energy  :   -73.3657588 Eh     change        0.7827361E-04 Eh
 * total energy  :   -73.3658468 Eh     change       -0.8804750E-04 Eh
 * total energy  :   -73.3655783 Eh     change        0.2685622E-03 Eh
 * total energy  :   -73.3658610 Eh     change       -0.2827753E-03 Eh
 * total energy  :   -73.3658642 Eh     change       -0.3167450E-05 Eh
   *** GEOMETRY OPTIMIZATION CONVERGED AFTER 72 ITERATIONS ***

 final structure:
================
25
 xtb: 6.6.1 (8d0f1dd)
C            4.80105625953664        0.33408375605320        0.08332098093170
N            3.97563792498734       -0.57007807257777       -0.16943004971931
C            3.12167301941853       -1.50769694522796       -0.01575355131787
N            1.80184536192706       -1.32445159819796       -0.00748038586481
C            1.23575443033999        0.00119074717358       -0.03811446556250
C           -0.14740917348293        0.08303833104689       -0.02035663078087
C           -0.74734359787336        1.45830427469276       -0.04934633897447
O           -0.16862837891740        2.51198817318698       -0.07303657952120
N           -2.10449398365209        1.25292944929392       -0.03516715422856
C           -3.09729896627190        2.29945141162097       -0.06224742386942
C           -2.41371296939562       -0.09172331160450        0.00665437409516
O           -3.49568997498443       -0.59872414403721        0.03652575237228
N           -1.19183657587136       -0.79060310185688        0.01437598944408
C           -1.19539684055367       -2.23149298879597        0.05752533753958
H            5.03369354741484        0.63511225467159        1.10008099265345
H            5.30851813012104        0.83205958609784       -0.73281025057619
H            1.46662142595253        0.30700390858054       -0.05339371100346
H            3.48951032351922       -2.52923469956566       -0.00946023994861
H           -2.60424461489273        3.23870655132012        0.18108900821714
H           -3.54747972658336        2.36868876162735       -1.05406783525448
H           -3.87851459494913        2.07631820863584        0.66346613023620
H           -0.70057361084623       -2.60136886951107        0.95777734129123
H           -0.74621041662291       -2.65565767236215       -0.84303121899988
H           -2.24272914725655       -2.53771170240699        0.09247610186764
H            1.20768366303355       -2.14189376625299        0.00157544487148

          :  Hamiltonian                  GFN2-xTB          :
         :: total energy             -73.365864215995 Eh    ::
         :: gradient norm              0.001524441330 Eh/a0 ::
         :: HOMO-LUMO gap              2.300260443585 eV    ::
         :: SCC energy               -42.737407148394 Eh    ::
         :: -> dispersion             -0.020524685898 Eh    ::
         :: repulsion energy           2.846064217061 Eh    ::

    * Orbital Energies and Occupations

         #    Occupation            Energy/Eh            Energy/eV
      -------------------------------------------------------------
         1        2.0000           -0.8769749             -23.8637
       ...           ...                  ...                  ...
        25        2.0000           -0.6650985             -18.0983
        26        1.9999           -0.6567104             -17.8700
        27        1.9999           -0.6519066             -17.7393
        28        1.9999           -0.6447079             -17.5434
        29        1.9997           -0.6300048             -17.1433
        30        1.9994           -0.6196193             -16.8607
        31        1.9993           -0.6176826             -16.8080
        32        1.9977           -0.5987589             -16.2931
        33        1.9972           -0.5957822             -16.2121
        34        1.9883           -0.5729215             -15.5900
        35        1.9557           -0.5515461             -15.0083
        36        1.9531           -0.5506213             -14.9832
        37        1.8708           -0.5338980             -14.5281 (HOMO)
        38        0.1300           -0.4493650             -12.2278 (LUMO)
        39        0.1031           -0.4454576             -12.1215
        40        0.0060           -0.3995808             -10.8731
        41        0.0001           -0.3256454              -8.8613
        42        0.0000           -0.3069254              -8.3519
        43                         -0.1999335              -5.4405
        44                         -0.1594722              -4.3395
        45                         -0.1230879              -3.3494
        46                         -0.0979113              -2.6643
        47                         -0.0726305              -1.9764
        48                         -0.0344507              -0.9375
       ...                                ...                  ...
        67                         14.0059439             381.1211
      -------------------------------------------------------------
                  HL-Gap            0.0845330 Eh            2.3003 eV

     #   Z          covCN         q      C6AA      α(0)
     1   6 C        2.765     0.025    27.426     8.577
     2   7 N        1.831    -0.002    21.993     6.949
     3   6 C        2.763     0.108    25.589     8.284
     4   7 N        2.704    -0.088    22.959     7.116
     5   6 C        2.839    -0.076    29.893     8.960
     6   6 C        3.040     0.018    27.578     8.613
     7   6 C        2.850     0.265    22.534     7.780
     8   8 O        0.857    -0.336    20.449     6.063
     9   7 N        2.786    -0.078    22.751     7.084
    10   6 C        3.690    -0.056    21.778     6.678
    11   6 C        2.828     0.321    21.554     7.608
    12   8 O        0.857    -0.344    20.595     6.084
    13   7 N        2.781    -0.065    22.500     7.045
    14   6 C        3.690    -0.066    21.972     6.708
    15   1 H        0.925     0.133     1.513     1.923
    16   1 H        0.925     0.143     1.440     1.877
    17   1 H        1.001     0.188     1.157     1.681
    18   1 H        0.925     0.124     1.584     1.968
    19   1 H        0.925     0.105     1.739     2.062
    20   1 H        0.924     0.096     1.825     2.113
    21   1 H        0.925     0.100     1.783     2.088
    22   1 H        0.924     0.075     2.029     2.228
    23   1 H        0.924     0.075     2.026     2.226
    24   1 H        0.924     0.120     1.611     1.985
    25   1 H        0.860     0.215     1.032     1.591

Wiberg/Mayer (AO) data.
largest (>0.10) Wiberg bond orders for each atom

     #   Z sym  total        # sym  WBO       # sym  WBO       # sym  WBO
 ---------------------------------------------------------------------------
     1   6 C    3.771 --     2 N    1.809    16 H    0.933    15 H    0.923
     2   7 N    3.505 --     1 C    1.809     3 C    1.515     4 N    0.132
     3   6 C    3.909 --     2 N    1.515     4 N    1.320    18 H    0.915
     4   7 N    3.546 --     3 C    1.320     5 C    1.064    25 H    0.914
                             2 N    0.132
     5   6 C    3.798 --     6 C    1.544     4 N    1.064    17 H    0.940
     6   6 C    3.905 --     5 C    1.544    13 N    1.189     7 C    0.967
     7   6 C    3.935 --     8 O    1.727     9 N    1.141     6 C    0.967
     8   8 O    2.035 --     7 C    1.727     9 N    0.143
     9   7 N    3.537 --     7 C    1.141    11 C    1.097    10 C    0.979
                             8 O    0.143    12 O    0.113
    10   6 C    3.913 --     9 N    0.979    19 H    0.970    21 H    0.965
                            20 H    0.958
    11   6 C    3.946 --    12 O    1.719     9 N    1.097    13 N    1.040
    12   8 O    2.049 --    11 C    1.719     9 N    0.113    13 N    0.110
    13   7 N    3.501 --     6 C    1.189    11 C    1.040    14 C    0.990
                            12 O    0.110
    14   6 C    3.936 --    13 N    0.990    22 H    0.965    23 H    0.965
                            24 H    0.962
    15   1 H    0.970 --     1 C    0.923
    16   1 H    0.972 --     1 C    0.933
    17   1 H    0.965 --     5 C    0.940
    18   1 H    0.976 --     3 C    0.915
    19   1 H    0.985 --    10 C    0.970
    20   1 H    0.978 --    10 C    0.958
    21   1 H    0.982 --    10 C    0.965
    22   1 H    0.988 --    14 C    0.965
    23   1 H    0.987 --    14 C    0.965
    24   1 H    0.985 --    14 C    0.962
    25   1 H    0.953 --     4 N    0.914
 ---------------------------------------------------------------------------

molecular dipole:
                 x           y           z       tot (Debye)
 q only:        3.764      -1.480       0.078
   full:        3.842      -1.801       0.136      10.791

           -------------------------------------------------
          | TOTAL ENERGY              -73.365864215995 Eh   |
          | GRADIENT NORM               0.001524441330 Eh/α |
          | HOMO-LUMO GAP               2.300260443585 eV   |
           -------------------------------------------------

 * finished run on 2024/06/05 at 20:00:18.233
