   * xtb version 6.6.1 (8d0f1dd) compiled by 'conda@1efc2f54142f' on 2023-08-01
          program call               : xtb struc.xyz --opt loose --input .xc1 --gfn2

   ID    Z sym.   atoms
    1    6 C      1, 3, 5-7, 10, 11, 14
    2    7 N      2, 4, 9, 13
    3    8 O      8, 12
    4    1 H      15-25
constraining bond 2 25 to    3.6866700 Å, actual value:    3.1552271 Å

          :  Hamiltonian                  GFN2-xTB          :
 * total energy  :   -42.7643409 Eh     change       -0.2401990E-09 Eh
 * total energy  :   -44.6785957 Eh     change       -0.1914255E+01 Eh
 * total energy  :   -47.3429812 Eh     change       -0.2664385E+01 Eh
 * total energy  :   -50.9469085 Eh     change       -0.3603927E+01 Eh
 * total energy  :   -54.3596843 Eh     change       -0.3412776E+01 Eh
 * total energy  :   -56.5903401 Eh     change       -0.2230656E+01 Eh
 * total energy  :   -57.4899955 Eh     change       -0.8996554E+00 Eh
 * total energy  :   -58.3847965 Eh     change       -0.8948010E+00 Eh
 * total energy  :   -58.4925719 Eh     change       -0.1077754E+00 Eh
 * total energy  :   -58.3241574 Eh     change        0.1684145E+00 Eh
 * total energy  :   -59.4129261 Eh     change        0.4668159E-04 Eh
 * total energy  :   -59.4131030 Eh     change       -0.1768856E-03 Eh
 * total energy  :   -59.4130640 Eh     change        0.3902954E-04 Eh
 * total energy  :   -59.4132001 Eh     change       -0.1360954E-03 Eh
 * total energy  :   -59.4132826 Eh     change       -0.8255221E-04 Eh
 * total energy  :   -59.4133621 Eh     change       -0.7947522E-04 Eh
 * total energy  :   -59.4134064 Eh     change       -0.4427159E-04 Eh
 * total energy  :   -59.4134365 Eh     change       -0.3015192E-04 Eh
 * total energy  :   -59.4134574 Eh     change       -0.2084762E-04 Eh
   *** GEOMETRY OPTIMIZATION CONVERGED AFTER 91 ITERATIONS ***

 final structure:
================
25
 xtb: 6.6.1 (8d0f1dd)
C            2.14786175163884        1.03620037145847       -0.78972452180077
N            2.57231310289033       -2.00504408722062       -0.04839943643961
C            3.27175746363950       -1.30017463299624        0.84912755518819
N            1.24220293626047       -1.81951314101767       -0.23824059792846
C            0.50028899130140       -0.74408730643876       -0.20625288906665
C            0.93344158408598        0.63342931119405       -0.33583899024361
C           -0.05296752418777        1.69760879240136       -0.03249897735739
O            0.26563236767638        2.85848590356980        0.08897912403079
N           -1.36923560243595        1.29374957733622        0.08052468157864
C           -2.39163402327405        2.30292209902051        0.28982803873327
C           -1.81558626023483       -0.00922790566056       -0.03088683259069
O           -2.98993885437930       -0.28092098490943        0.00428185778905
N           -0.84205592063089       -0.99502200892311       -0.14820150088787
C           -1.29302587302694       -2.37108997319264       -0.16653261235163
H            2.84693081945837       -0.49435553890698        1.41953764343227
H            2.92596540889170        0.36776801281965       -1.10711650295609
H            2.34439387333638        2.09400437121866       -0.86658822470566
H            4.28961913174500       -1.60453827123366        1.01469996218452
H           -1.93004933203755        3.28559940102659        0.20180043044980
H           -3.18339999401747        2.18096026763471       -0.45144481132152
H           -2.83435861622856        2.18914898323907        1.28201418196957
H           -0.92634407142500       -2.90123509054739        0.71364676810866
H           -0.91406428664985       -2.87088052268684       -1.05827351132376
H           -2.38269608549665       -2.37438817857077       -0.17055648925739
H            2.74538052719743       -2.35116090701336       -0.26271272734359

          :  Hamiltonian                  GFN2-xTB          :
         :: total energy             -59.413457359822 Eh    ::
         :: gradient norm              0.003612606460 Eh/a0 ::
         :: HOMO-LUMO gap              2.186053154958 eV    ::
         :: SCC energy               -42.706547100507 Eh    ::
         :: -> dispersion             -0.022612826362 Eh    ::
         :: repulsion energy           2.086669061361 Eh    ::

    * Orbital Energies and Occupations

         #    Occupation            Energy/Eh            Energy/eV
      -------------------------------------------------------------
         1        2.0000           -0.9021101             -24.5477
       ...           ...                  ...                  ...
        25        1.9966           -0.6634161             -18.0525
        26        1.9962           -0.6607860             -17.9809
        27        1.9927           -0.6452253             -17.5575
        28        1.9920           -0.6430297             -17.4977
        29        1.9880           -0.6333895             -17.2354
        30        1.9833           -0.6255754             -17.0228
        31        1.9753           -0.6161476             -16.7662
        32        1.9425           -0.5957213             -16.2104
        33        1.9405           -0.5948534             -16.1868
        34        1.9190           -0.5872667             -15.9803
        35        1.9031           -0.5828100             -15.8591
        36        1.8599           -0.5735146             -15.6061
        37        1.8220           -0.5673461             -15.4383 (HOMO)
        38        0.5160           -0.4870102             -13.2522 (LUMO)
        39        0.1558           -0.4534021             -12.3377
        40        0.0177           -0.4000716             -10.8865
        41        0.0071           -0.3780995             -10.2886
        42        0.0002           -0.2947005              -8.0192
        43        0.0000           -0.2078818              -5.6568
        44        0.0000           -0.1690966              -4.6014
        45        0.0000           -0.1364877              -3.7140
        46                         -0.0771056              -2.0982
        47                         -0.0474837              -1.2921
        48                         -0.0240172              -0.6535
       ...                                ...                  ...
        67                          5.1216269             139.3666
      -------------------------------------------------------------
                  HL-Gap            0.0803360 Eh            2.1861 eV

     #   Z          covCN         q      C6AA      α(0)
     1   6 C        2.850    -0.061    29.508     8.903
     2   7 N        2.756     0.037    20.594     6.740
     3   6 C        2.845    -0.058    29.437     8.892
     4   7 N        1.965    -0.175    25.560     7.497
     5   6 C        2.833     0.142    24.891     8.176
     6   6 C        2.949    -0.028    28.706     8.788
     7   6 C        2.777     0.271    22.418     7.755
     8   8 O        0.859    -0.314    20.037     6.002
     9   7 N        2.739    -0.061    22.428     7.034
    10   6 C        3.706    -0.061    21.828     6.679
    11   6 C        2.721     0.319    21.572     7.603
    12   8 O        0.860    -0.336    20.440     6.062
    13   7 N        2.762    -0.030    21.821     6.938
    14   6 C        3.706    -0.078    22.149     6.728
    15   1 H        0.926     0.113     1.675     2.024
    16   1 H        0.926     0.088     1.895     2.153
    17   1 H        0.926     0.125     1.577     1.964
    18   1 H        0.926     0.127     1.558     1.952
    19   1 H        0.925     0.126     1.568     1.958
    20   1 H        0.924     0.119     1.623     1.993
    21   1 H        0.924     0.114     1.662     2.016
    22   1 H        0.924     0.108     1.716     2.049
    23   1 H        0.924     0.112     1.681     2.027
    24   1 H        0.925     0.132     1.520     1.928
    25   1 H        0.972     0.270     0.803     1.401

Wiberg/Mayer (AO) data.
largest (>0.10) Wiberg bond orders for each atom

     #   Z sym  total        # sym  WBO       # sym  WBO       # sym  WBO
 ---------------------------------------------------------------------------
     1   6 C    3.680 --     6 C    1.645    16 H    0.962    17 H    0.952
     2   7 N    3.500 --     3 C    1.425     4 N    1.121    25 H    0.900
     3   6 C    3.537 --     2 N    1.425    15 H    0.968    18 H    0.957
                             4 N    0.135
     4   7 N    2.902 --     5 C    1.440     2 N    1.121     3 C    0.135
     5   6 C    3.832 --     4 N    1.440    13 N    1.178     6 C    1.088
     6   6 C    3.862 --     1 C    1.645     5 C    1.088     7 C    0.998
     7   6 C    3.893 --     8 O    1.693     9 N    1.118     6 C    0.998
     8   8 O    1.948 --     7 C    1.693     9 N    0.115
     9   7 N    3.485 --     7 C    1.118    11 C    1.103    10 C    0.977
                             8 O    0.115    12 O    0.106
    10   6 C    3.854 --     9 N    0.977    19 H    0.952    20 H    0.943
                            21 H    0.940
    11   6 C    3.928 --    12 O    1.664     9 N    1.103    13 N    1.083
    12   8 O    1.953 --    11 C    1.664     9 N    0.106    13 N    0.102
    13   7 N    3.505 --     5 C    1.178    11 C    1.083    14 C    0.980
                            12 O    0.102
    14   6 C    3.876 --    13 N    0.980    24 H    0.952    23 H    0.949
                            22 H    0.948
    15   1 H    0.985 --     3 C    0.968
    16   1 H    0.982 --     1 C    0.962
    17   1 H    0.972 --     1 C    0.952
    18   1 H    0.979 --     3 C    0.957
    19   1 H    0.969 --    10 C    0.952
    20   1 H    0.959 --    10 C    0.943
    21   1 H    0.956 --    10 C    0.940
    22   1 H    0.967 --    14 C    0.948
    23   1 H    0.967 --    14 C    0.949
    24   1 H    0.972 --    14 C    0.952
    25   1 H    0.926 --     2 N    0.900
 ---------------------------------------------------------------------------

molecular dipole:
                 x           y           z       tot (Debye)
 q only:        1.855      -1.596       0.059
   full:        2.128      -1.533       0.058       6.668

           -------------------------------------------------
          | TOTAL ENERGY              -59.413457359822 Eh   |
          | GRADIENT NORM               0.003612606460 Eh/α |
          | HOMO-LUMO GAP               2.186053154958 eV   |
           -------------------------------------------------

 * finished run on 2024/06/05 at 19:58:58.469
