   * xtb version 6.6.1 (8d0f1dd) compiled by 'conda@1efc2f54142f' on 2023-08-01
          program call               : xtb xtbopt.xyz --opt crude --input .xc2 --gfn2

   ID    Z sym.   atoms
    1    6 C      1, 3, 5-7, 10, 11, 14
    2    7 N      2, 4, 9, 13
    3    8 O      8, 12
    4    1 H      15-25
########################################################################
[WARNING] Please study the warnings concerning your input carefully
-1- readin_getIntValue: could not parse ''
########################################################################

          :  Hamiltonian                  GFN2-xTB          :
 * total energy  :   -40.6197161 Eh     change       -0.1406875E-11 Eh
 * total energy  :   -42.1312821 Eh     change       -0.1511566E+01 Eh
 * total energy  :   -42.1507114 Eh     change       -0.1942923E-01 Eh
 * total energy  :   -42.1551657 Eh     change       -0.4454394E-02 Eh
 * total energy  :   -42.1564179 Eh     change       -0.1252115E-02 Eh
 * total energy  :   -42.1566940 Eh     change       -0.2761404E-03 Eh
   *** GEOMETRY OPTIMIZATION CONVERGED AFTER 6 ITERATIONS ***

 final structure:
================
25
 xtb: 6.6.1 (8d0f1dd)
C            2.13320523764646        1.05053818611567       -0.78631419224971
N            2.53757838876468       -1.91659670266042        0.03125372985979
C            3.28950048181761       -1.27453317017124        0.89220001990565
N            1.25023280586123       -1.80251845971720       -0.23579792619493
C            0.48695393306270       -0.72521997605384       -0.19778232422823
C            0.91875138857413        0.64762924536787       -0.33164091561560
C           -0.06823055027439        1.71120062488851       -0.03011776594414
O            0.24700609767291        2.87276775818572        0.09605472544477
N           -1.38537948093400        1.30397569946908        0.07383597858688
C           -2.40814552762329        2.31146002963983        0.28795690614315
C           -1.82905514991124        0.00052666583403       -0.03927370700714
O           -3.00313647529833       -0.27377788341102       -0.01003164066579
N           -0.85096868996289       -0.98451102325077       -0.14880514327995
C           -1.29971811707374       -2.36161120209507       -0.16341426956077
H            2.91322538887708       -0.44460932813202        1.46421171649600
H            2.90292478685230        0.38112639272037       -1.12294509624635
H            2.32820570256198        2.10759744226893       -0.86426961565792
H            4.29817566870527       -1.61370446780873        1.03754392528819
H           -1.94558864869603        3.29393747298964        0.20488409267237
H           -3.19993331473508        2.19482411763966       -0.45351828323451
H           -2.85022539958997        2.19279490067134        1.27937159073048
H           -0.93631854166682       -2.88704035096685        0.72037249722235
H           -0.91817726192646       -2.86381839902323       -1.05205883525092
H           -2.38918161525577       -2.36565080365718       -0.17112122988830
H            2.93873040664860       -2.73654822724202       -0.44942261943529

          :  Hamiltonian                  GFN2-xTB          :
         :: total energy             -42.156694005447 Eh    ::
         :: gradient norm              0.009896139887 Eh/a0 ::
         :: HOMO-LUMO gap              2.244010345496 eV    ::
         :: SCC energy               -42.680293190324 Eh    ::
         :: -> dispersion             -0.022556938842 Eh    ::
         :: repulsion energy           0.523440670224 Eh    ::

    * Orbital Energies and Occupations

         #    Occupation            Energy/Eh            Energy/eV
      -------------------------------------------------------------
         1        2.0000           -0.8867747             -24.1304
       ...           ...                  ...                  ...
        25        1.9968           -0.6592637             -17.9395
        26        1.9959           -0.6533888             -17.7796
        27        1.9932           -0.6412872             -17.4503
        28        1.9927           -0.6395883             -17.4041
        29        1.9887           -0.6291005             -17.1187
        30        1.9852           -0.6225447             -16.9403
        31        1.9770           -0.6120899             -16.6558
        32        1.9464           -0.5915835             -16.0978
        33        1.9439           -0.5904687             -16.0675
        34        1.9255           -0.5834947             -15.8777
        35        1.9076           -0.5781730             -15.7329
        36        1.8702           -0.5696195             -15.5001
        37        1.8321           -0.5630128             -15.3204 (HOMO)
        38        0.5061           -0.4805469             -13.0763 (LUMO)
        39        0.1196           -0.4408175             -11.9953
        40        0.0182           -0.3948024             -10.7431
        41        0.0076           -0.3739613             -10.1760
        42        0.0002           -0.2906457              -7.9089
        43        0.0000           -0.2002915              -5.4502
        44        0.0000           -0.1668907              -4.5413
        45        0.0000           -0.1374053              -3.7390
        46                         -0.0949425              -2.5835
        47                         -0.0708840              -1.9289
        48                         -0.0373384              -1.0160
       ...                                ...                  ...
        67                          0.5402700              14.7015
      -------------------------------------------------------------
                  HL-Gap            0.0824659 Eh            2.2440 eV

     #   Z          covCN         q      C6AA      α(0)
     1   6 C        2.850    -0.063    29.561     8.911
     2   7 N        2.757     0.104    19.452     6.550
     3   6 C        2.770    -0.056    29.374     8.876
     4   7 N        1.920    -0.169    25.450     7.480
     5   6 C        2.838     0.140    24.952     8.186
     6   6 C        2.949    -0.029    28.716     8.789
     7   6 C        2.777     0.271    22.432     7.757
     8   8 O        0.859    -0.318    20.109     6.012
     9   7 N        2.739    -0.063    22.470     7.040
    10   6 C        3.706    -0.061    21.817     6.677
    11   6 C        2.721     0.319    21.586     7.606
    12   8 O        0.860    -0.340    20.509     6.072
    13   7 N        2.758    -0.030    21.826     6.939
    14   6 C        3.705    -0.077    22.134     6.726
    15   1 H        0.926     0.114     1.666     2.018
    16   1 H        0.926     0.084     1.940     2.178
    17   1 H        0.926     0.122     1.600     1.978
    18   1 H        0.926     0.122     1.600     1.978
    19   1 H        0.925     0.124     1.580     1.966
    20   1 H        0.924     0.117     1.641     2.003
    21   1 H        0.924     0.111     1.684     2.029
    22   1 H        0.924     0.104     1.748     2.068
    23   1 H        0.925     0.109     1.708     2.044
    24   1 H        0.925     0.131     1.531     1.935
    25   1 H        0.859     0.237     0.935     1.515

Wiberg/Mayer (AO) data.
largest (>0.10) Wiberg bond orders for each atom

     #   Z sym  total        # sym  WBO       # sym  WBO       # sym  WBO
 ---------------------------------------------------------------------------
     1   6 C    3.667 --     6 C    1.635    16 H    0.964    17 H    0.953
     2   7 N    3.615 --     3 C    1.493     4 N    1.176    25 H    0.902
     3   6 C    3.621 --     2 N    1.493    15 H    0.961    18 H    0.960
                             4 N    0.162
     4   7 N    2.912 --     5 C    1.389     2 N    1.176     3 C    0.162
     5   6 C    3.812 --     4 N    1.389    13 N    1.189     6 C    1.101
     6   6 C    3.869 --     1 C    1.635     5 C    1.101     7 C    0.999
     7   6 C    3.893 --     8 O    1.692     9 N    1.116     6 C    0.999
     8   8 O    1.950 --     7 C    1.692     9 N    0.116
     9   7 N    3.488 --     7 C    1.116    11 C    1.105    10 C    0.977
                             8 O    0.116    12 O    0.108
    10   6 C    3.859 --     9 N    0.977    19 H    0.953    20 H    0.945
                            21 H    0.942
    11   6 C    3.925 --    12 O    1.664     9 N    1.105    13 N    1.078
    12   8 O    1.954 --    11 C    1.664     9 N    0.108    13 N    0.102
    13   7 N    3.511 --     5 C    1.189    11 C    1.078    14 C    0.980
                            12 O    0.102
    14   6 C    3.883 --    13 N    0.980    24 H    0.954    23 H    0.952
                            22 H    0.951
    15   1 H    0.985 --     3 C    0.961
    16   1 H    0.984 --     1 C    0.964
    17   1 H    0.973 --     1 C    0.953
    18   1 H    0.982 --     3 C    0.960
    19   1 H    0.971 --    10 C    0.953
    20   1 H    0.961 --    10 C    0.945
    21   1 H    0.958 --    10 C    0.942
    22   1 H    0.970 --    14 C    0.951
    23   1 H    0.970 --    14 C    0.952
    24   1 H    0.973 --    14 C    0.954
    25   1 H    0.937 --     2 N    0.902
 ---------------------------------------------------------------------------

molecular dipole:
                 x           y           z       tot (Debye)
 q only:        2.100      -1.882       0.022
   full:        2.407      -1.859       0.019       7.730

           -------------------------------------------------
          | TOTAL ENERGY              -42.156694005447 Eh   |
          | GRADIENT NORM               0.009896139887 Eh/α |
          | HOMO-LUMO GAP               2.244010345496 eV   |
           -------------------------------------------------

 * finished run on 2024/06/05 at 19:58:58.748
