   * xtb version 6.6.1 (8d0f1dd) compiled by 'conda@1efc2f54142f' on 2023-08-01
          program call               : xtb struc.xyz --opt loose --input .xc1 --gfn2

   ID    Z sym.   atoms
    1    6 C      1, 3, 5-7, 10, 11, 14
    2    7 N      2, 4, 9, 13
    3    8 O      8, 12
    4    1 H      15-25
constraining bond 1 6 to    5.0000000 Å, actual value:    2.4924048 Å

          :  Hamiltonian                  GFN2-xTB          :
 * total energy  :   -19.7928866 Eh     change       -0.6650680E-10 Eh
 * total energy  :   -29.3859952 Eh     change       -0.9593109E+01 Eh
 * total energy  :   -35.8587429 Eh     change       -0.6472748E+01 Eh
 * total energy  :   -39.6988936 Eh     change       -0.3840151E+01 Eh
 * total energy  :   -41.2554326 Eh     change       -0.1556539E+01 Eh
 * total energy  :   -41.4850500 Eh     change       -0.2296174E+00 Eh
 * total energy  :   -41.5156181 Eh     change       -0.3056815E-01 Eh
 * total energy  :   -41.5513239 Eh     change       -0.3570577E-01 Eh
 * total energy  :   -41.5717598 Eh     change       -0.2043594E-01 Eh
 * total energy  :   -41.6076919 Eh     change       -0.3593209E-01 Eh
 * total energy  :   -42.1354235 Eh     change       -0.1363769E-03 Eh
 * total energy  :   -42.1356577 Eh     change       -0.2341652E-03 Eh
 * total energy  :   -42.1358577 Eh     change       -0.2000004E-03 Eh
 * total energy  :   -42.1360000 Eh     change       -0.1423299E-03 Eh
 * total energy  :   -42.1361458 Eh     change       -0.1458300E-03 Eh
 * total energy  :   -42.1361977 Eh     change       -0.5187620E-04 Eh
 * total energy  :   -42.1362779 Eh     change       -0.8023080E-04 Eh
 * total energy  :   -42.1363328 Eh     change       -0.5486043E-04 Eh
 * total energy  :   -42.1363573 Eh     change       -0.2454973E-04 Eh
   *** GEOMETRY OPTIMIZATION CONVERGED AFTER 81 ITERATIONS ***

 final structure:
================
25
 xtb: 6.6.1 (8d0f1dd)
C            3.95803287182002        3.35480357279703        0.18124576008130
N            2.17518220998803       -1.10964131029654       -0.04034233274182
C            2.06260591222791       -2.40229183050467       -0.09742083410030
N            0.75283225629415       -2.80556557086432       -0.11817128068681
C            0.00625293725860       -1.67389889913831       -0.06987756418222
C            0.91748338649573       -0.60949240292386       -0.02143493068412
C            0.45378264892724        0.75794230512003        0.03622878502159
O            1.14520844410268        1.75012335550907        0.08948000325688
N           -0.94115667093324        0.83387359228875        0.02377894314901
C           -1.54625653217129        2.15573035363971        0.07101931937901
C           -1.84830148847118       -0.21060035106559       -0.02129096662220
O           -3.03629887764811       -0.02324024990802       -0.02036491782217
N           -1.32742826620069       -1.51505588524934       -0.06698475898167
C           -2.24327533287109       -2.63530891129006       -0.09959208262056
H            4.32834860857142        3.77858708236367        1.09462927796401
H            4.50734641405551        3.49563955364976       -0.72987133595827
H            3.03699939820788        2.79644188740256        0.17623521280300
H            2.89059775734274       -3.08228212409825       -0.12599479997793
H           -0.75147379628011        2.89650391731379        0.02826666120233
H           -2.22936529706833        2.27845640057515       -0.76955516266859
H           -2.11834267874181        2.27164314467786        0.99252521150988
H           -2.07138352320846       -3.29075191949573        0.75506883341848
H           -2.12547777584698       -3.19788642556623       -1.02669995638283
H           -3.25659904978141       -2.23772064055936       -0.05021096674542
H            0.42111795803859       -3.75777010278402       -0.15949449973520

          :  Hamiltonian                  GFN2-xTB          :
         :: total energy             -42.136357337766 Eh    ::
         :: gradient norm              0.002423353173 Eh/a0 ::
         :: HOMO-LUMO gap              1.093907582982 eV    ::
         :: SCC energy               -42.661799688303 Eh    ::
         :: -> dispersion             -0.020647900254 Eh    ::
         :: repulsion energy           0.525385686030 Eh    ::

    * Orbital Energies and Occupations

         #    Occupation            Energy/Eh            Energy/eV
      -------------------------------------------------------------
         1        2.0000           -0.8844284             -24.0665
       ...           ...                  ...                  ...
        25        1.9996           -0.6527648             -17.7626
        26        1.9989           -0.6360976             -17.3091
        27        1.9981           -0.6278640             -17.0850
        28        1.9978           -0.6255063             -17.0209
        29        1.9973           -0.6221370             -16.9292
        30        1.9969           -0.6198738             -16.8676
        31        1.9931           -0.6074133             -16.5286
        32        1.9930           -0.6071177             -16.5205
        33        1.9741           -0.5863578             -15.9556
        34        1.9231           -0.5686757             -15.4745
        35        1.9164           -0.5673091             -15.4373
        36        1.8676           -0.5596086             -15.2277
        37        1.7088           -0.5457281             -14.8500 (HOMO)
        38        0.6333           -0.5055277             -13.7561 (LUMO)
        39        0.0021           -0.4089502             -11.1281
        40        0.0006           -0.3898466             -10.6083
        41        0.0001           -0.3601748              -9.8009
        42        0.0000           -0.2792398              -7.5985
        43                         -0.1979638              -5.3869
        44                         -0.1556548              -4.2356
        45                         -0.1307665              -3.5583
        46                         -0.0667118              -1.8153
        47                         -0.0443061              -1.2056
        48                         -0.0296867              -0.8078
       ...                                ...                  ...
        67                          0.5521266              15.0241
      -------------------------------------------------------------
                  HL-Gap            0.0402004 Eh            1.0939 eV

     #   Z          covCN         q      C6AA      α(0)
     1   6 C        2.778    -0.068    29.681     8.923
     2   7 N        1.905    -0.152    25.076     7.424
     3   6 C        3.154     0.105    25.406     8.243
     4   7 N        2.789    -0.080    22.784     7.089
     5   6 C        3.055     0.115    25.419     8.268
     6   6 C        3.203     0.024    26.891     8.448
     7   6 C        2.764     0.277    22.323     7.738
     8   8 O        0.858    -0.344    20.586     6.083
     9   7 N        2.745    -0.076    22.722     7.080
    10   6 C        3.710    -0.061    21.811     6.674
    11   6 C        2.732     0.319    21.581     7.606
    12   8 O        0.860    -0.346    20.625     6.089
    13   7 N        2.737    -0.042    22.060     6.976
    14   6 C        3.697    -0.070    22.020     6.712
    15   1 H        0.926     0.137     1.481     1.903
    16   1 H        0.926     0.137     1.484     1.905
    17   1 H        0.926     0.160     1.324     1.800
    18   1 H        0.926     0.111     1.686     2.031
    19   1 H        0.925     0.114     1.666     2.019
    20   1 H        0.925     0.108     1.715     2.048
    21   1 H        0.924     0.106     1.730     2.057
    22   1 H        0.924     0.091     1.873     2.140
    23   1 H        0.924     0.092     1.859     2.132
    24   1 H        0.925     0.128     1.554     1.949
    25   1 H        0.860     0.216     1.030     1.590

Wiberg/Mayer (AO) data.
largest (>0.10) Wiberg bond orders for each atom

     #   Z sym  total        # sym  WBO       # sym  WBO       # sym  WBO
 ---------------------------------------------------------------------------
     1   6 C    2.924 --    16 H    0.978    15 H    0.978    17 H    0.961
     2   7 N    3.001 --     3 C    1.558     6 C    1.272
     3   6 C    3.847 --     2 N    1.558     4 N    1.212    18 H    0.954
     4   7 N    3.576 --     5 C    1.224     3 C    1.212    25 H    0.924
     5   6 C    3.894 --     6 C    1.274     4 N    1.224    13 N    1.213
     6   6 C    3.833 --     5 C    1.274     2 N    1.272     7 C    1.070
     7   6 C    3.945 --     8 O    1.674     9 N    1.098     6 C    1.070
     8   8 O    1.971 --     7 C    1.674     9 N    0.127
     9   7 N    3.514 --    11 C    1.121     7 C    1.098    10 C    0.975
                             8 O    0.127    12 O    0.123
    10   6 C    3.888 --     9 N    0.975    19 H    0.964    20 H    0.954
                            21 H    0.951
    11   6 C    3.954 --    12 O    1.686     9 N    1.121    13 N    1.053
    12   8 O    1.994 --    11 C    1.686     9 N    0.123    13 N    0.108
    13   7 N    3.496 --     5 C    1.213    11 C    1.053    14 C    0.978
                            12 O    0.108
    14   6 C    3.910 --    13 N    0.978    22 H    0.963    24 H    0.962
                            23 H    0.962
    15   1 H    0.980 --     1 C    0.978
    16   1 H    0.980 --     1 C    0.978
    17   1 H    0.972 --     1 C    0.961
    18   1 H    0.985 --     3 C    0.954
    19   1 H    0.982 --    10 C    0.964
    20   1 H    0.971 --    10 C    0.954
    21   1 H    0.969 --    10 C    0.951
    22   1 H    0.979 --    14 C    0.963
    23   1 H    0.978 --    14 C    0.962
    24   1 H    0.982 --    14 C    0.962
    25   1 H    0.952 --     4 N    0.924
 ---------------------------------------------------------------------------

molecular dipole:
                 x           y           z       tot (Debye)
 q only:        1.722      -0.876      -0.017
   full:        1.533      -1.539      -0.043       5.521

           -------------------------------------------------
          | TOTAL ENERGY              -42.136357337766 Eh   |
          | GRADIENT NORM               0.002423353173 Eh/α |
          | HOMO-LUMO GAP               1.093907582982 eV   |
           -------------------------------------------------

 * finished run on 2024/06/05 at 19:59:07.754
