   * xtb version 6.6.1 (8d0f1dd) compiled by 'conda@1efc2f54142f' on 2023-08-01
          program call               : xtb struc.xyz --opt loose --input .xc1 --gfn2

   ID    Z sym.   atoms
    1    7 N      1, 17
    2    6 C      2-6, 8, 9, 11-16, 18-23, 25, 26, 28-33
    3    8 O      7, 10, 24, 27
    4    1 H      34-72
constraining bond 4 41 to    3.7133300 Å, actual value:    3.3774089 Å

          :  Hamiltonian                  GFN2-xTB          :
 * total energy  :   -99.4242794 Eh     change       -0.4035485E-08 Eh
 * total energy  :   -99.4578262 Eh     change       -0.3354685E-01 Eh
 * total energy  :   -99.4859976 Eh     change       -0.2817137E-01 Eh
 * total energy  :   -99.5227057 Eh     change       -0.3670812E-01 Eh
 * total energy  :   -99.5967994 Eh     change       -0.7409369E-01 Eh
 * total energy  :   -99.7630089 Eh     change       -0.1662095E+00 Eh
 * total energy  :  -100.0980246 Eh     change       -0.3350156E+00 Eh
 * total energy  :  -100.3558920 Eh     change       -0.2578674E+00 Eh
 * total energy  :  -100.3889573 Eh     change       -0.3306532E-01 Eh
 * total energy  :  -100.4296702 Eh     change       -0.4071290E-01 Eh
 * total energy  :  -100.6943554 Eh     change       -0.1920831E-03 Eh
 * total energy  :  -100.6945198 Eh     change       -0.1644374E-03 Eh
 * total energy  :  -100.6946189 Eh     change       -0.9911564E-04 Eh
 * total energy  :  -100.6946765 Eh     change       -0.5755942E-04 Eh
 * total energy  :  -100.6947142 Eh     change       -0.3773342E-04 Eh
 * total energy  :  -100.6947713 Eh     change       -0.5706840E-04 Eh
 * total energy  :  -100.6948113 Eh     change       -0.4006227E-04 Eh
 * total energy  :  -100.6948622 Eh     change       -0.5090187E-04 Eh
 * total energy  :  -100.6949048 Eh     change       -0.4259716E-04 Eh
   *** GEOMETRY OPTIMIZATION CONVERGED AFTER 127 ITERATIONS ***

 final structure:
================
72
 xtb: 6.6.1 (8d0f1dd)
N           -2.38801281477556        2.07933818536496        2.37465374675522
C           -2.64667849579340        2.58788016574190        1.30191814499421
C           -3.07628386509188        2.91821040198847        0.11438870808012
C           -3.60601980244977       -0.90654888381563        1.86296792682916
C           -4.17237896715213       -0.55906377003692        0.55117357529161
C           -4.37999307986235       -1.68706292719241       -0.20429030967611
O           -4.87636774381517       -1.81940840945993       -1.45089346201084
C           -5.44769184155375       -0.66959783414254       -2.03232883037219
C           -3.76920531624781       -2.80774079449079        0.46872046282383
O           -3.67573344507175       -4.01723570092683       -0.07156456711071
C           -2.97758320227982       -4.97515371245963        0.69713638911436
C           -3.38930809015035       -2.39324780389751        1.75070521721712
C           -2.20801976065503       -1.60451510643824        2.05004662724985
C           -2.28052080577360        2.67770380631837       -1.14841657220685
C           -1.70256561640335        1.25900271494082       -1.24717995012897
C           -0.40881216348930        1.12888624290493       -0.45162252826132
N            0.23026617826115       -0.16830614598280       -0.51665880341773
C            1.62409694928445       -0.20739534650607       -0.13694772721564
C            2.54983515874623       -0.14279615040748       -1.36889499471743
C            3.98882979366599       -0.06825874434221       -0.94055908672807
C            4.69699785217755        1.11797342952528       -1.03160926106235
C            6.02208192717268        1.18807813063179       -0.62833372967811
C            6.66199020752329        0.07221250475506       -0.10977314330998
O            7.94083004950848        0.02293162123651        0.30737864018778
C            8.73847683341536        1.18070225900729        0.21130690066445
C            5.93792366960175       -1.14706136510725        0.00464904143626
O            6.63104621005077       -2.17572868334015        0.53367098158860
C            6.00499739298380       -3.42737475118928        0.68045140863971
C            4.61937118290604       -1.19617724146094       -0.41710349407970
C           -0.38463050970620       -1.28087179725017       -0.88069512569064
C           -4.39056723598044        3.66741940659444       -0.02301101034978
C           -5.27381514364260        3.52386906499510        1.21363335088395
C           -4.11003335121651        5.14681208703276       -0.30659180788390
H           -4.57151661927101        0.41799683459497        0.34825135745901
H           -6.27243916171913       -0.28774812232281       -1.42371679548590
H           -5.82557614381370       -0.98050284437450       -3.00427098890050
H           -4.70075879664623        0.12131306354455       -2.16403586180350
H           -3.31441583782108       -4.94317104003308        1.73906675678756
H           -3.19249823463925       -5.94656546461440        0.25692055981299
H           -1.89994848740001       -4.78576971285253        0.67085614841026
H           -3.85289657916385       -0.52393768355146        2.50049743687057
H           -1.86260287741381       -1.51953747530195        3.07050914917113
H           -2.95212313505823        2.84016588057559       -1.99348588670354
H           -1.47069515128014        3.41002360586075       -1.23351424523991
H           -2.44722145833497        0.55800259822182       -0.86448648191989
H           -1.50113259882534        1.02626905727135       -2.29520228945868
H           -0.61546777471261        1.35424009373892        0.60225123858461
H            0.31228589977277        1.86840258908376       -0.81607066612237
H            1.82563236664327       -1.12986886373310        0.41320028661281
H            1.83761597423504        0.63815449668975        0.52040236564183
H            2.29902769614260        0.73655298094466       -1.96516009692157
H            2.38185578601537       -1.03059163582826       -1.98324242084092
H            4.22407105461068        2.00112021000117       -1.43368645712529
H            6.54997472203752        2.12240774341262       -0.72599298871666
H            8.33237388063710        1.99828554552408        0.81456703090554
H            8.84308612001508        1.50913505723734       -0.82737667064235
H            9.71442582484524        0.89624374767660        0.59978214056067
H            6.75741358658056       -4.08026425415715        1.11853366912529
H            5.14293688375919       -3.36863767805970        1.35292847046548
H            5.69026164710615       -3.83543912726101       -0.28508175003625
H            4.06995977752283       -2.12256771127785       -0.35511246308746
H           -1.39551955065981       -1.27137182013578       -1.23232162006103
H           -1.41515484406683       -1.55223330384226        1.30759459424145
H            0.16397211232465       -2.20294231649765       -0.86813321460132
H           -4.92118437002299        3.24410828596681       -0.88572455253833
H           -4.80162068392384        3.98316985135360        2.07934468028844
H           -5.46311581801674        2.47733714379310        1.44270654622187
H           -6.22750734364380        4.01785345482646        1.04585853531644
H           -3.57877700269679        5.59598504916982        0.53053103568710
H           -3.50919570119070        5.26911917863839       -1.20482126470721
H           -5.04626933110217        5.68142602340665       -0.44505326546557
H           -1.88326238802877        2.56050123227674        3.10762610300967

          :  Hamiltonian                  GFN2-xTB          :
         :: total energy            -100.694904833495 Eh    ::
         :: gradient norm              0.002550562387 Eh/a0 ::
         :: HOMO-LUMO gap              1.455266348215 eV    ::
         :: SCC energy              -100.693353591010 Eh    ::
         :: -> dispersion             -0.070637927936 Eh    ::
         :: repulsion energy           1.529642859663 Eh    ::

    * Orbital Energies and Occupations

         #    Occupation            Energy/Eh            Energy/eV
      -------------------------------------------------------------
         1        2.0000           -0.8169960             -22.2316
       ...           ...                  ...                  ...
        78        1.9989           -0.5333276             -14.5126
        79        1.9988           -0.5317912             -14.4708
        80        1.9986           -0.5293192             -14.4035
        81        1.9984           -0.5275095             -14.3543
        82        1.9979           -0.5229029             -14.2289
        83        1.9975           -0.5205289             -14.1643
        84        1.9971           -0.5182412             -14.1021
        85        1.9970           -0.5172306             -14.0746
        86        1.9789           -0.4864563             -13.2371
        87        1.9208           -0.4650146             -12.6537
        88        1.8760           -0.4575391             -12.4503
        89        1.8523           -0.4545708             -12.3695
        90        1.8130           -0.4504917             -12.2585 (HOMO)
        91        0.4973           -0.3970117             -10.8032 (LUMO)
        92        0.0669           -0.3612552              -9.8303
        93        0.0108           -0.3319714              -9.0334
        94        0.0029           -0.3109495              -8.4614
        95        0.0024           -0.3077842              -8.3752
        96        0.0003           -0.2760255              -7.5110
        97        0.0001           -0.2548731              -6.9354
        98        0.0000           -0.1856002              -5.0504
        99        0.0000           -0.1656813              -4.5084
       100                         -0.1404170              -3.8209
       101                         -0.0657310              -1.7886
       ...                                ...                  ...
       171                          1.1975005              32.5856
      -------------------------------------------------------------
                  HL-Gap            0.0534801 Eh            1.4553 eV

     #   Z          covCN         q      C6AA      α(0)
     1   7 N        1.772    -0.241    27.100     7.709
     2   6 C        1.906     0.098    28.680     8.649
     3   6 C        2.942    -0.038    28.934     8.822
     4   6 C        3.915    -0.052    21.441     6.581
     5   6 C        2.989    -0.097    30.428     9.049
     6   6 C        2.933     0.118    25.412     8.267
     7   8 O        1.704    -0.243    18.022     5.732
     8   6 C        3.654     0.030    20.364     6.479
     9   6 C        2.951     0.133    25.083     8.214
    10   8 O        1.704    -0.204    17.396     5.631
    11   6 C        3.667     0.022    20.463     6.487
    12   6 C        3.030    -0.088    30.161     9.008
    13   6 C        3.801    -0.036    21.222     6.559
    14   6 C        3.807    -0.057    21.590     6.614
    15   6 C        3.801    -0.070    21.835     6.653
    16   6 C        3.749    -0.020    20.999     6.536
    17   7 N        2.728     0.028    20.760     6.767
    18   6 C        3.759    -0.020    20.977     6.530
    19   6 C        3.807    -0.068    21.805     6.647
    20   6 C        2.968    -0.001    28.037     8.685
    21   6 C        2.922    -0.048    29.198     8.861
    22   6 C        2.914    -0.068    29.686     8.934
    23   6 C        2.865     0.133    25.084     8.210
    24   8 O        1.706    -0.223    17.695     5.679
    25   6 C        3.646     0.025    20.485     6.505
    26   6 C        2.862     0.133    25.096     8.211
    27   8 O        1.706    -0.226    17.747     5.688
    28   6 C        3.645     0.028    20.445     6.499
    29   6 C        2.920    -0.080    30.004     8.982
    30   6 C        2.789    -0.062    29.527     8.901
    31   6 C        3.859    -0.001    20.559     6.448
    32   6 C        3.755    -0.110    22.669     6.789
    33   6 C        3.757    -0.110    22.653     6.786
    34   1 H        0.926     0.046     2.370     2.407
    35   1 H        0.924     0.054     2.269     2.356
    36   1 H        0.925     0.078     2.003     2.213
    37   1 H        0.924     0.041     2.441     2.443
    38   1 H        0.924     0.066     2.132     2.283
    39   1 H        0.925     0.084     1.941     2.179
    40   1 H        0.924     0.054     2.267     2.354
    41   1 H        0.930     0.106     1.727     2.055
    42   1 H        0.926     0.068     2.110     2.272
    43   1 H        0.924     0.060     2.203     2.321
    44   1 H        0.924     0.049     2.328     2.386
    45   1 H        0.924     0.058     2.219     2.330
    46   1 H        0.924     0.053     2.283     2.363
    47   1 H        0.924     0.072     2.065     2.247
    48   1 H        0.924     0.070     2.083     2.257
    49   1 H        0.924     0.070     2.088     2.260
    50   1 H        0.924     0.067     2.116     2.275
    51   1 H        0.924     0.053     2.277     2.360
    52   1 H        0.924     0.057     2.229     2.335
    53   1 H        0.926     0.046     2.376     2.410
    54   1 H        0.926     0.058     2.217     2.328
    55   1 H        0.924     0.054     2.273     2.358
    56   1 H        0.924     0.056     2.251     2.346
    57   1 H        0.925     0.082     1.959     2.189
    58   1 H        0.925     0.081     1.964     2.192
    59   1 H        0.924     0.047     2.356     2.400
    60   1 H        0.924     0.052     2.297     2.370
    61   1 H        0.926     0.045     2.380     2.412
    62   1 H        0.926     0.082     1.962     2.190
    63   1 H        0.925     0.031     2.568     2.506
    64   1 H        0.926     0.075     2.030     2.228
    65   1 H        0.924     0.042     2.429     2.437
    66   1 H        0.925     0.042     2.425     2.435
    67   1 H        0.925     0.039     2.464     2.455
    68   1 H        0.925     0.052     2.294     2.368
    69   1 H        0.925     0.044     2.403     2.424
    70   1 H        0.925     0.042     2.426     2.436
    71   1 H        0.925     0.054     2.272     2.357
    72   1 H        0.860     0.184     1.190     1.709

Wiberg/Mayer (AO) data.
largest (>0.10) Wiberg bond orders for each atom

     #   Z sym  total        # sym  WBO       # sym  WBO       # sym  WBO
 ---------------------------------------------------------------------------
     1   7 N    3.201 --     2 C    2.044    72 H    0.910     3 C    0.142
     2   6 C    3.880 --     1 N    2.044     3 C    1.719
     3   6 C    3.874 --     2 C    1.719    14 C    0.978    31 C    0.953
                             1 N    0.142
     4   6 C    3.886 --     5 C    1.097    41 H    0.963    12 C    0.916
                            13 C    0.830
     5   6 C    3.872 --     6 C    1.521     4 C    1.097    34 H    0.964
                            12 C    0.107
     6   6 C    3.890 --     5 C    1.521     9 C    1.142     7 O    1.084
     7   8 O    2.233 --     6 C    1.084     8 C    0.977
     8   6 C    3.933 --    36 H    0.978     7 O    0.977    35 H    0.975
                            37 H    0.975
     9   6 C    3.832 --    12 C    1.378    10 O    1.151     6 C    1.142
    10   8 O    2.301 --     9 C    1.151    11 C    0.969
    11   6 C    3.924 --    39 H    0.978    40 H    0.974    38 H    0.970
                            10 O    0.969
    12   6 C    3.607 --     9 C    1.378    13 C    1.051     4 C    0.916
                             5 C    0.107
    13   6 C    3.931 --    12 C    1.051    42 H    0.970    63 H    0.958
                             4 C    0.830
    14   6 C    3.989 --    15 C    0.996     3 C    0.978    43 H    0.970
                            44 H    0.961
    15   6 C    3.985 --    16 C    1.005    14 C    0.996    46 H    0.974
                            45 H    0.962
    16   6 C    3.959 --    15 C    1.005    17 N    0.984    48 H    0.959
                            47 H    0.944
    17   7 N    3.452 --    30 C    1.437    18 C    0.987    16 C    0.984
    18   6 C    3.957 --    17 N    0.987    50 H    0.969    19 C    0.967
                            49 H    0.965
    19   6 C    3.974 --    20 C    1.009    51 H    0.973    52 H    0.968
                            18 C    0.967
    20   6 C    3.946 --    21 C    1.414    29 C    1.374    19 C    1.009
    21   6 C    3.950 --    20 C    1.414    22 C    1.413    53 H    0.968
    22   6 C    3.960 --    21 C    1.413    23 C    1.387    54 H    0.963
    23   6 C    3.897 --    22 C    1.387    26 C    1.219    24 O    1.109
    24   8 O    2.255 --    23 C    1.109    25 C    0.976
    25   6 C    3.929 --    57 H    0.977    24 O    0.976    55 H    0.973
                            56 H    0.973
    26   6 C    3.901 --    29 C    1.400    23 C    1.219    27 O    1.102
    27   8 O    2.254 --    26 C    1.102    28 C    0.979
    28   6 C    3.933 --    27 O    0.979    58 H    0.977    59 H    0.974
                            60 H    0.973
    29   6 C    3.960 --    26 C    1.400    20 C    1.374    61 H    0.963
    30   6 C    3.493 --    17 N    1.437    64 H    0.971    62 H    0.966
    31   6 C    3.985 --    32 C    1.009    33 C    0.990    65 H    0.955
                             3 C    0.953
    32   6 C    3.991 --    31 C    1.009    66 H    0.984    67 H    0.984
                            68 H    0.984
    33   6 C    3.983 --    31 C    0.990    69 H    0.986    70 H    0.985
                            71 H    0.980
    34   1 H    0.995 --     5 C    0.964
    35   1 H    0.993 --     8 C    0.975
    36   1 H    0.993 --     8 C    0.978
    37   1 H    0.995 --     8 C    0.975
    38   1 H    0.994 --    11 C    0.970
    39   1 H    0.992 --    11 C    0.978
    40   1 H    0.992 --    11 C    0.974
    41   1 H    0.987 --     4 C    0.963
    42   1 H    0.989 --    13 C    0.970
    43   1 H    0.995 --    14 C    0.970
    44   1 H    0.991 --    14 C    0.961
    45   1 H    0.996 --    15 C    0.962
    46   1 H    0.996 --    15 C    0.974
    47   1 H    0.980 --    16 C    0.944
    48   1 H    0.988 --    16 C    0.959
    49   1 H    0.990 --    18 C    0.965
    50   1 H    0.993 --    18 C    0.969
    51   1 H    0.997 --    19 C    0.973
    52   1 H    0.995 --    19 C    0.968
    53   1 H    0.997 --    21 C    0.968
    54   1 H    0.995 --    22 C    0.963
    55   1 H    0.992 --    25 C    0.973
    56   1 H    0.992 --    25 C    0.973
    57   1 H    0.993 --    25 C    0.977
    58   1 H    0.993 --    28 C    0.977
    59   1 H    0.994 --    28 C    0.974
    60   1 H    0.993 --    28 C    0.973
    61   1 H    0.997 --    29 C    0.963
    62   1 H    0.993 --    30 C    0.966
    63   1 H    0.993 --    13 C    0.958
    64   1 H    0.994 --    30 C    0.971
    65   1 H    0.993 --    31 C    0.955
    66   1 H    0.997 --    32 C    0.984
    67   1 H    0.998 --    32 C    0.984
    68   1 H    0.996 --    32 C    0.984
    69   1 H    0.997 --    33 C    0.986
    70   1 H    0.998 --    33 C    0.985
    71   1 H    0.995 --    33 C    0.980
    72   1 H    0.959 --     1 N    0.910
 ---------------------------------------------------------------------------

molecular dipole:
                 x           y           z       tot (Debye)
 q only:        0.506       0.361       0.079
   full:        0.543       0.846      -0.031       2.557

           -------------------------------------------------
          | TOTAL ENERGY             -100.694904833495 Eh   |
          | GRADIENT NORM               0.002550562387 Eh/α |
          | HOMO-LUMO GAP               1.455266348215 eV   |
           -------------------------------------------------

 * finished run on 2024/04/06 at 11:15:58.180
