   * xtb version 6.6.1 (8d0f1dd) compiled by 'conda@1efc2f54142f' on 2023-08-01
          program call               : xtb xtbopt.xyz --opt crude --input .xc2 --gfn2

   ID    Z sym.   atoms
    1    7 N      1, 17
    2    6 C      2-6, 8, 9, 11-16, 18-23, 25, 26, 28-33
    3    8 O      7, 10, 24, 27
    4    1 H      34-72

          :  Hamiltonian                  GFN2-xTB          :
 * total energy  :   -99.1621620 Eh     change       -0.3922196E-11 Eh
 * total energy  :   -99.2689477 Eh     change       -0.1067857E+00 Eh
 * total energy  :   -99.2702405 Eh     change       -0.1292784E-02 Eh
 * total energy  :   -99.2707570 Eh     change       -0.5165100E-03 Eh
 * total energy  :   -99.2707336 Eh     change        0.2336583E-04 Eh
 * total energy  :   -99.2708706 Eh     change       -0.1369380E-03 Eh
   *** GEOMETRY OPTIMIZATION CONVERGED AFTER 6 ITERATIONS ***

 final structure:
================
72
 xtb: 6.6.1 (8d0f1dd)
N           -2.37686210938333        2.09382938540876        2.37844124083460
C           -2.63983853711411        2.59113020244462        1.30172829545221
C           -3.07357574091866        2.91587082251105        0.11470280380832
C           -3.58209562247705       -0.91588359916954        1.82329013630407
C           -4.17179428593992       -0.55598252717733        0.53692060893977
C           -4.38161889820475       -1.68768311755485       -0.21319541704833
O           -4.88759603063853       -1.82464139240134       -1.45508117028927
C           -5.45212506618868       -0.67351548753914       -2.04072061058899
C           -3.76501042194334       -2.80858826327336        0.45914496882224
O           -3.66802948667640       -4.01582832421619       -0.08752871539720
C           -2.97621002740329       -4.97799161447061        0.68077082167148
C           -3.38361364793568       -2.39649099729438        1.73974205864016
C           -2.20284465803231       -1.60013745965540        2.04703724914438
C           -2.27866163652037        2.67220731663552       -1.14784363474285
C           -1.70111649065924        1.25318881609414       -1.24408687179595
C           -0.40856506604687        1.12405567663021       -0.44679756807740
N            0.23097391633448       -0.17291581526341       -0.50877500218460
C            1.62463166337449       -0.21026394700296       -0.12945598335069
C            2.54774980736478       -0.14326199962590       -1.36222507958601
C            3.98736274853933       -0.06695988066776       -0.93750360276908
C            4.69514690067624        1.11924936443250       -1.02909161984326
C            6.02030410669788        1.18952930038724       -0.62582947249257
C            6.66119071845209        0.07379410141237       -0.10842184341807
O            7.93869141656662        0.02575432110470        0.31297284202708
C            8.73810794820189        1.18198444461429        0.21516466412381
C            5.93913258137295       -1.14707139535039        0.00080881478548
O            6.63476873369943       -2.17848881002460        0.52114330134175
C            6.00704024384762       -3.42937369259821        0.66736040776235
C            4.61986984077400       -1.19562841844978       -0.41812106324243
C           -0.38185131244468       -1.28563834611507       -0.87644392800397
C           -4.38977068425851        3.66106458342687       -0.02284501541776
C           -5.26927417499241        3.52229807895482        1.21673681068417
C           -4.11494743580017        5.13907971454367       -0.31568584333871
H           -4.56939693156421        0.42136925862682        0.33540777008546
H           -6.27564377602194       -0.28592669259751       -1.43437315684328
H           -5.83034079084071       -0.98462345269071       -3.01217058192397
H           -4.70116777923114        0.11282774783138       -2.17296101272444
H           -3.31668724646301       -4.94744778619094        1.72056848442186
H           -3.19244212980693       -5.94754146002955        0.23771208794131
H           -1.89832147555605       -4.79334153617388        0.65943679966921
H           -3.93674393915231       -0.39563235021251        2.69905071396689
H           -1.86356697942308       -1.51813375759769        3.06863951650857
H           -2.94946446036883        2.83368021121636       -1.99299206313463
H           -1.46877502071326        3.40336742781185       -1.23373550314561
H           -2.44607675984459        0.55289894849217       -0.86122648149230
H           -1.49792909111965        1.01949543069977       -2.29159674227608
H           -0.61657093434940        1.34979117525853        0.60667359342763
H            0.31250965601484        1.86328896904310       -0.81121104800609
H            1.82783406879065       -1.13205953173942        0.42016945255434
H            1.83734774747983        0.63489675134717        0.52799245249501
H            2.29348362196625        0.73535647213246       -1.95660806938978
H            2.38031578613084       -1.03010125282535       -1.97659931086660
H            4.22225128826021        2.00232804866282       -1.43102324850755
H            6.54766131227166        2.12426598894414       -0.72191562736729
H            8.33551094370635        2.00016798644511        0.82003997196838
H            8.84061110286613        1.51077412052808       -0.82333269460213
H            9.71443259370404        0.89505512999862        0.60087230408898
H            6.75944896203894       -4.08459979979116        1.10194915172720
H            5.14690488005659       -3.37003549450179        1.34235860306552
H            5.68887323193130       -3.83507795484443       -0.29804826843245
H            4.07087337155132       -2.12227436120423       -0.35796058934802
H           -1.39105875077911       -1.27595357835960       -1.23260742365316
H           -1.40304606833376       -1.55390761039879        1.31107284796804
H            0.16774261165712       -2.20753317859839       -0.86558543523568
H           -4.92222529579467        3.23196102185057       -0.88109488530385
H           -4.79760557681389        3.99029163033982        2.07769586303323
H           -5.45206052867734        2.47659371299223        1.45420275996149
H           -6.22618468483833        4.00913242323386        1.04693693824688
H           -3.58471335726964        5.59592955778685        0.51695482063813
H           -3.51628524039082        5.25788950917035       -1.21533049904440
H           -5.05347003251860        5.66890906629796       -0.45617872966221
H           -1.86907802389605        2.58136769085340        3.10376949908789

          :  Hamiltonian                  GFN2-xTB          :
         :: total energy             -99.270870558447 Eh    ::
         :: gradient norm              0.001729492654 Eh/a0 ::
         :: HOMO-LUMO gap              1.469930429964 eV    ::
         :: SCC energy              -100.666963951240 Eh    ::
         :: -> dispersion             -0.070664041212 Eh    ::
         :: repulsion energy           1.394548618535 Eh    ::

    * Orbital Energies and Occupations

         #    Occupation            Energy/Eh            Energy/eV
      -------------------------------------------------------------
         1        2.0000           -0.8170510             -22.2331
       ...           ...                  ...                  ...
        78        1.9989           -0.5332601             -14.5107
        79        1.9988           -0.5317604             -14.4699
        80        1.9986           -0.5292786             -14.4024
        81        1.9984           -0.5275098             -14.3543
        82        1.9979           -0.5229330             -14.2297
        83        1.9975           -0.5205495             -14.1649
        84        1.9971           -0.5182103             -14.1012
        85        1.9966           -0.5154619             -14.0264
        86        1.9789           -0.4864387             -13.2367
        87        1.9158           -0.4639936             -12.6259
        88        1.8747           -0.4573447             -12.4450
        89        1.8526           -0.4545867             -12.3699
        90        1.8188           -0.4510264             -12.2731 (HOMO)
        91        0.4974           -0.3970074             -10.8031 (LUMO)
        92        0.0678           -0.3614646              -9.8360
        93        0.0107           -0.3317885              -9.0284
        94        0.0029           -0.3109217              -8.4606
        95        0.0024           -0.3077441              -8.3741
        96        0.0003           -0.2757130              -7.5025
        97        0.0001           -0.2548315              -6.9343
        98        0.0000           -0.1855078              -5.0479
        99        0.0000           -0.1587304              -4.3193
       100                         -0.1401844              -3.8146
       101                         -0.0660704              -1.7979
       ...                                ...                  ...
       171                          0.9830064              26.7490
      -------------------------------------------------------------
                  HL-Gap            0.0540189 Eh            1.4699 eV

     #   Z          covCN         q      C6AA      α(0)
     1   7 N        1.772    -0.240    27.094     7.708
     2   6 C        1.906     0.098    28.675     8.648
     3   6 C        2.942    -0.038    28.935     8.822
     4   6 C        3.932    -0.032    21.072     6.524
     5   6 C        2.983    -0.092    30.299     9.029
     6   6 C        2.941     0.118    25.395     8.265
     7   8 O        1.704    -0.242    18.004     5.729
     8   6 C        3.654     0.030    20.366     6.479
     9   6 C        2.956     0.134    25.061     8.211
    10   8 O        1.704    -0.205    17.406     5.633
    11   6 C        3.667     0.022    20.456     6.485
    12   6 C        3.025    -0.086    30.126     9.003
    13   6 C        3.804    -0.034    21.178     6.552
    14   6 C        3.808    -0.057    21.592     6.615
    15   6 C        3.801    -0.070    21.834     6.653
    16   6 C        3.749    -0.020    20.997     6.535
    17   7 N        2.728     0.028    20.766     6.768
    18   6 C        3.759    -0.020    20.973     6.529
    19   6 C        3.808    -0.069    21.806     6.647
    20   6 C        2.968    -0.001    28.038     8.685
    21   6 C        2.922    -0.048    29.198     8.861
    22   6 C        2.914    -0.068    29.686     8.934
    23   6 C        2.865     0.133    25.084     8.210
    24   8 O        1.706    -0.223    17.695     5.679
    25   6 C        3.645     0.025    20.485     6.505
    26   6 C        2.863     0.133    25.095     8.211
    27   8 O        1.706    -0.226    17.747     5.688
    28   6 C        3.645     0.028    20.444     6.499
    29   6 C        2.920    -0.080    30.005     8.983
    30   6 C        2.789    -0.062    29.519     8.900
    31   6 C        3.859    -0.001    20.558     6.448
    32   6 C        3.755    -0.111    22.671     6.789
    33   6 C        3.757    -0.110    22.656     6.786
    34   1 H        0.926     0.048     2.346     2.395
    35   1 H        0.924     0.054     2.266     2.354
    36   1 H        0.925     0.078     2.000     2.211
    37   1 H        0.924     0.041     2.438     2.442
    38   1 H        0.924     0.066     2.133     2.284
    39   1 H        0.925     0.084     1.943     2.180
    40   1 H        0.924     0.054     2.268     2.355
    41   1 H        0.926     0.071     2.078     2.254
    42   1 H        0.926     0.069     2.099     2.266
    43   1 H        0.924     0.060     2.203     2.321
    44   1 H        0.924     0.049     2.327     2.385
    45   1 H        0.924     0.058     2.221     2.331
    46   1 H        0.924     0.053     2.284     2.364
    47   1 H        0.924     0.072     2.064     2.247
    48   1 H        0.924     0.070     2.083     2.257
    49   1 H        0.924     0.070     2.088     2.260
    50   1 H        0.924     0.067     2.116     2.275
    51   1 H        0.924     0.053     2.277     2.360
    52   1 H        0.924     0.057     2.229     2.335
    53   1 H        0.926     0.046     2.375     2.410
    54   1 H        0.926     0.058     2.218     2.329
    55   1 H        0.924     0.054     2.273     2.358
    56   1 H        0.924     0.056     2.251     2.346
    57   1 H        0.925     0.082     1.959     2.189
    58   1 H        0.925     0.081     1.965     2.192
    59   1 H        0.924     0.047     2.356     2.401
    60   1 H        0.924     0.052     2.297     2.370
    61   1 H        0.926     0.045     2.380     2.412
    62   1 H        0.927     0.081     1.966     2.192
    63   1 H        0.925     0.031     2.565     2.505
    64   1 H        0.926     0.075     2.031     2.229
    65   1 H        0.924     0.042     2.429     2.437
    66   1 H        0.925     0.042     2.423     2.434
    67   1 H        0.925     0.039     2.465     2.455
    68   1 H        0.925     0.052     2.292     2.368
    69   1 H        0.925     0.044     2.400     2.423
    70   1 H        0.925     0.042     2.425     2.435
    71   1 H        0.925     0.054     2.271     2.357
    72   1 H        0.860     0.185     1.186     1.706

Wiberg/Mayer (AO) data.
largest (>0.10) Wiberg bond orders for each atom

     #   Z sym  total        # sym  WBO       # sym  WBO       # sym  WBO
 ---------------------------------------------------------------------------
     1   7 N    3.201 --     2 C    2.045    72 H    0.909     3 C    0.141
     2   6 C    3.880 --     1 N    2.045     3 C    1.719
     3   6 C    3.873 --     2 C    1.719    14 C    0.978    31 C    0.954
                             1 N    0.141
     4   6 C    3.889 --     5 C    1.100    41 H    0.950    12 C    0.915
                            13 C    0.849
     5   6 C    3.872 --     6 C    1.521     4 C    1.100    34 H    0.964
                            12 C    0.105
     6   6 C    3.889 --     5 C    1.521     9 C    1.137     7 O    1.086
     7   8 O    2.234 --     6 C    1.086     8 C    0.977
     8   6 C    3.933 --    36 H    0.978     7 O    0.977    35 H    0.975
                            37 H    0.975
     9   6 C    3.834 --    12 C    1.386    10 O    1.150     6 C    1.137
    10   8 O    2.300 --     9 C    1.150    11 C    0.969
    11   6 C    3.924 --    39 H    0.978    40 H    0.974    38 H    0.970
                            10 O    0.969
    12   6 C    3.603 --     9 C    1.386    13 C    1.036     4 C    0.915
                             5 C    0.105
    13   6 C    3.931 --    12 C    1.036    42 H    0.970    63 H    0.957
                             4 C    0.849
    14   6 C    3.989 --    15 C    0.996     3 C    0.978    43 H    0.970
                            44 H    0.961
    15   6 C    3.985 --    16 C    1.006    14 C    0.996    46 H    0.974
                            45 H    0.961
    16   6 C    3.959 --    15 C    1.006    17 N    0.984    48 H    0.959
                            47 H    0.944
    17   7 N    3.452 --    30 C    1.437    18 C    0.987    16 C    0.984
    18   6 C    3.957 --    17 N    0.987    50 H    0.969    19 C    0.967
                            49 H    0.965
    19   6 C    3.974 --    20 C    1.009    51 H    0.973    52 H    0.968
                            18 C    0.967
    20   6 C    3.946 --    21 C    1.415    29 C    1.374    19 C    1.009
    21   6 C    3.950 --    20 C    1.415    22 C    1.412    53 H    0.968
    22   6 C    3.960 --    21 C    1.412    23 C    1.387    54 H    0.963
    23   6 C    3.897 --    22 C    1.387    26 C    1.219    24 O    1.109
    24   8 O    2.255 --    23 C    1.109    25 C    0.976
    25   6 C    3.929 --    57 H    0.977    24 O    0.976    55 H    0.973
                            56 H    0.973
    26   6 C    3.901 --    29 C    1.400    23 C    1.219    27 O    1.102
    27   8 O    2.254 --    26 C    1.102    28 C    0.979
    28   6 C    3.933 --    27 O    0.979    58 H    0.977    59 H    0.974
                            60 H    0.973
    29   6 C    3.960 --    26 C    1.400    20 C    1.374    61 H    0.963
    30   6 C    3.493 --    17 N    1.437    64 H    0.971    62 H    0.967
    31   6 C    3.985 --    32 C    1.009    33 C    0.990    65 H    0.955
                             3 C    0.954
    32   6 C    3.991 --    31 C    1.009    66 H    0.985    67 H    0.984
                            68 H    0.984
    33   6 C    3.983 --    31 C    0.990    69 H    0.986    70 H    0.985
                            71 H    0.980
    34   1 H    0.995 --     5 C    0.964
    35   1 H    0.993 --     8 C    0.975
    36   1 H    0.993 --     8 C    0.978
    37   1 H    0.995 --     8 C    0.975
    38   1 H    0.994 --    11 C    0.970
    39   1 H    0.992 --    11 C    0.978
    40   1 H    0.992 --    11 C    0.974
    41   1 H    0.991 --     4 C    0.950
    42   1 H    0.989 --    13 C    0.970
    43   1 H    0.995 --    14 C    0.970
    44   1 H    0.991 --    14 C    0.961
    45   1 H    0.996 --    15 C    0.961
    46   1 H    0.996 --    15 C    0.974
    47   1 H    0.980 --    16 C    0.944
    48   1 H    0.988 --    16 C    0.959
    49   1 H    0.990 --    18 C    0.965
    50   1 H    0.993 --    18 C    0.969
    51   1 H    0.997 --    19 C    0.973
    52   1 H    0.995 --    19 C    0.968
    53   1 H    0.997 --    21 C    0.968
    54   1 H    0.995 --    22 C    0.963
    55   1 H    0.992 --    25 C    0.973
    56   1 H    0.992 --    25 C    0.973
    57   1 H    0.993 --    25 C    0.977
    58   1 H    0.993 --    28 C    0.977
    59   1 H    0.994 --    28 C    0.974
    60   1 H    0.993 --    28 C    0.973
    61   1 H    0.997 --    29 C    0.963
    62   1 H    0.993 --    30 C    0.967
    63   1 H    0.993 --    13 C    0.957
    64   1 H    0.994 --    30 C    0.971
    65   1 H    0.993 --    31 C    0.955
    66   1 H    0.997 --    32 C    0.985
    67   1 H    0.998 --    32 C    0.984
    68   1 H    0.996 --    32 C    0.984
    69   1 H    0.997 --    33 C    0.986
    70   1 H    0.998 --    33 C    0.985
    71   1 H    0.995 --    33 C    0.980
    72   1 H    0.959 --     1 N    0.909
 ---------------------------------------------------------------------------

molecular dipole:
                 x           y           z       tot (Debye)
 q only:        0.506       0.355       0.033
   full:        0.539       0.844      -0.053       2.549

           -------------------------------------------------
          | TOTAL ENERGY              -99.270870558447 Eh   |
          | GRADIENT NORM               0.001729492654 Eh/α |
          | HOMO-LUMO GAP               1.469930429964 eV   |
           -------------------------------------------------

 * finished run on 2024/04/06 at 11:15:59.462
