   * xtb version 6.6.1 (8d0f1dd) compiled by 'conda@1efc2f54142f' on 2023-08-01
          program call               : xtb struc.xyz --opt loose --input .xc1 --gfn2

   ID    Z sym.   atoms
    1    7 N      1, 17
    2    6 C      2-6, 8, 9, 11-16, 18-23, 25, 26, 28-33
    3    8 O      7, 10, 24, 27
    4    1 H      34-72
constraining bond 13 14 to    6.0000000 Å, actual value:    3.6233242 Å

          :  Hamiltonian                  GFN2-xTB          :
 * total energy  :   -98.3955574 Eh     change       -0.4035485E-08 Eh
 * total energy  :   -98.6834337 Eh     change       -0.2878763E+00 Eh
 * total energy  :   -98.8536889 Eh     change       -0.1702552E+00 Eh
 * total energy  :   -98.9533814 Eh     change       -0.9969254E-01 Eh
 * total energy  :   -99.0169354 Eh     change       -0.6355391E-01 Eh
 * total energy  :   -99.0610019 Eh     change       -0.4406654E-01 Eh
 * total energy  :   -99.1014555 Eh     change       -0.4045363E-01 Eh
 * total energy  :   -99.1446275 Eh     change       -0.4317196E-01 Eh
 * total energy  :   -99.1867999 Eh     change       -0.4217236E-01 Eh
 * total energy  :   -99.2156061 Eh     change       -0.2880626E-01 Eh
 * total energy  :   -99.3156068 Eh     change       -0.2353647E-03 Eh
 * total energy  :   -99.3158169 Eh     change       -0.2101428E-03 Eh
 * total energy  :   -99.3159879 Eh     change       -0.1709654E-03 Eh
 * total energy  :   -99.3160964 Eh     change       -0.1085133E-03 Eh
 * total energy  :   -99.3161976 Eh     change       -0.1011676E-03 Eh
 * total energy  :   -99.3162755 Eh     change       -0.7795567E-04 Eh
 * total energy  :   -99.3163507 Eh     change       -0.7510367E-04 Eh
 * total energy  :   -99.3164093 Eh     change       -0.5862653E-04 Eh
 * total energy  :   -99.3164558 Eh     change       -0.4649012E-04 Eh
   *** GEOMETRY OPTIMIZATION CONVERGED AFTER 39 ITERATIONS ***

 final structure:
================
72
 xtb: 6.6.1 (8d0f1dd)
N           -1.39428659681949        2.84501665674323        1.85485797880140
C           -1.86233932188072        1.67470937566143        1.59810192682950
C           -3.11446953519214        1.43900721460777        0.99042727693657
C           -3.57870809978404        0.07812606489763        0.85501127326117
C           -4.44623049909920       -0.30452087255012       -0.18868480918256
C           -4.90954923285345       -1.59818725958054       -0.31688288092509
O           -5.73619060331087       -2.04089614349655       -1.28824684398412
C           -6.29209169770839       -1.11822406911950       -2.19549344222536
C           -4.50432910423978       -2.58826517476962        0.62286942776686
O           -4.99012398224067       -3.82371584461314        0.41098788710794
C           -4.67437765688565       -4.85509897682728        1.31750100417414
C           -3.66258547230018       -2.21427025273896        1.66371230292432
C           -3.20704918763635       -0.91657404176686        1.77815037387985
C           -1.73752483716965        3.02755944947868       -2.48292014402457
C           -1.40078671895940        1.70092466201873       -1.93378438881855
C           -0.07229231292195        1.61106442106669       -1.30605950093011
N            0.41089146778138        0.49899265052272       -0.77564937005417
C            1.76634345726290        0.44545215373523       -0.28186452110770
C            2.72390036313946       -0.15308245954329       -1.33143911560934
C            4.15082867501693       -0.01704692437435       -0.87908571727899
C            4.84129976644209        1.16480241645430       -1.09757805405018
C            6.15183754708777        1.31109260764115       -0.67243448478469
C            6.80115640046398        0.27511433015265       -0.01557439855901
O            8.06753847679152        0.30536501853631        0.43725300079896
C            8.83878096332937        1.46935871851322        0.24546133730817
C            6.10120617994441       -0.94229510481992        0.21277388502627
O            6.80817054830904       -1.89788230610152        0.84726927847402
C            6.21686262381844       -3.15273414714188        1.08599115755955
C            4.78854383561495       -1.06307575558901       -0.21753639556994
C           -0.32303155127155       -0.73971530421384       -0.85345009395744
C           -4.06697147554332        2.57404206046786        0.71243210178174
C           -4.71453471126822        2.95073326712477        2.05685887518449
C           -3.43862844371919        3.81576493744443        0.08917214733154
H           -4.73438931957936        0.43042934945906       -0.92313479453514
H           -6.84035095377145       -0.32587707783373       -1.67702972071735
H           -6.98381832029785       -1.69294406089307       -2.80826935520996
H           -5.52518588429383       -0.67365605463992       -2.83854568544474
H           -5.03927163714018       -4.62925821401617        2.32429344360116
H           -5.18257467586456       -5.74036279675623        0.94063149919912
H           -3.59692000012965       -5.04312682338897        1.35292161283358
H           -3.37299269149239       -2.93691183054215        2.40914215808778
H           -2.59971291493343       -0.65439472789756        2.62954360954754
H           -2.55204437802832        3.12513124673379       -3.17201825801550
H           -1.10215120084503        3.87507578267858       -2.31307281481317
H           -2.15037329821060        1.41704293611296       -1.16127873467937
H           -1.51319923020607        0.92837013163879       -2.70883173552826
H           -1.26816517275524        0.77376741166946        1.80985711254209
H            0.53085332518256        2.50055182722993       -1.22182416147594
H            1.79482720415927       -0.15772632576901        0.62895654891633
H            2.09601268521890        1.45612619748207       -0.03491780947642
H            2.58563723895562        0.38700830169652       -2.27024071998480
H            2.47968576209946       -1.20288174294440       -1.49745861361412
H            4.36348615784314        1.98151749733973       -1.61708562671473
H            6.66467254730394        2.23898517228147       -0.86492651338609
H            8.39227514834011        2.33265403782827        0.74806299900318
H            8.96987614185825        1.69210669811713       -0.81763790560249
H            9.80797746402150        1.25389677925694        0.69109541229298
H            6.98135729994199       -3.74501458739657        1.58513584560168
H            5.34265831939581       -3.06745134459737        1.73928301463468
H            5.93034651414222       -3.64545863810055        0.15161026539885
H            4.25218396948340       -1.98462725626513       -0.05332232810106
H           -0.43010002658297       -1.07014409106750       -1.89006848372681
H           -1.32206318052813       -0.62135322400392       -0.42821465006940
H            0.20299539484441       -1.51065062822730       -0.29592474804638
H           -4.86660642627986        2.21677715646078        0.05660182683678
H           -3.95390722739034        3.32806997024370        2.73441670539169
H           -5.19337816060985        2.08424674295158        2.50800537947555
H           -5.46360609510039        3.72308119549174        1.90340967990401
H           -2.66090613657288        4.20072117385629        0.74316219744560
H           -2.99002556714107        3.59712627814603       -0.88631161349017
H           -4.20071979191137        4.57829925192773       -0.04968043950563
H           -0.48712655039582        2.88345244046419        2.30278316986255

          :  Hamiltonian                  GFN2-xTB          :
         :: total energy             -99.316455769540 Eh    ::
         :: gradient norm              0.002784271376 Eh/a0 ::
         :: HOMO-LUMO gap              0.140935717911 eV    ::
         :: SCC energy              -100.704180959273 Eh    ::
         :: -> dispersion             -0.072024855871 Eh    ::
         :: repulsion energy           1.386312807337 Eh    ::

    * Orbital Energies and Occupations

         #    Occupation            Energy/Eh            Energy/eV
      -------------------------------------------------------------
         1        2.0000           -0.8115629             -22.0838
       ...           ...                  ...                  ...
        78        1.9983           -0.5302054             -14.4276
        79        1.9982           -0.5296115             -14.4115
        80        1.9979           -0.5269607             -14.3393
        81        1.9969           -0.5208331             -14.1726
        82        1.9964           -0.5187858             -14.1169
        83        1.9950           -0.5134178             -13.9708
        84        1.9939           -0.5102837             -13.8855
        85        1.9845           -0.4954658             -13.4823
        86        1.9776           -0.4895681             -13.3218
        87        1.9113           -0.4672052             -12.7133
        88        1.8470           -0.4580344             -12.4638
        89        1.8354           -0.4567739             -12.4294
        90        1.1634           -0.4238098             -11.5325 (HOMO)
        91        1.0013           -0.4186305             -11.3915 (LUMO)
        92        0.3000           -0.3911248             -10.6430
        93        0.0044           -0.3218317              -8.7575
        94        0.0028           -0.3142774              -8.5519
        95        0.0026           -0.3132595              -8.5242
        96        0.0023           -0.3112516              -8.4696
        97        0.0001           -0.2635934              -7.1727
        98        0.0000           -0.1885232              -5.1300
        99        0.0000           -0.1849837              -5.0337
       100                         -0.1346655              -3.6644
       101                         -0.0659421              -1.7944
       ...                                ...                  ...
       171                          0.5762307              15.6800
      -------------------------------------------------------------
                  HL-Gap            0.0051793 Eh            0.1409 eV

     #   Z          covCN         q      C6AA      α(0)
     1   7 N        1.778    -0.308    28.812     7.949
     2   6 C        2.823     0.072    26.375     8.415
     3   6 C        2.963    -0.021    28.523     8.760
     4   6 C        2.969    -0.004    28.128     8.699
     5   6 C        2.919    -0.084    30.095     8.996
     6   6 C        2.859     0.130    25.140     8.218
     7   8 O        1.706    -0.233    17.855     5.705
     8   6 C        3.644     0.028    20.441     6.499
     9   6 C        2.864     0.132    25.100     8.212
    10   8 O        1.706    -0.220    17.659     5.674
    11   6 C        3.645     0.025    20.481     6.504
    12   6 C        2.910    -0.069    29.726     8.940
    13   6 C        2.921    -0.049    29.222     8.865
    14   6 C        2.836    -0.112    30.835     9.100
    15   6 C        3.803    -0.056    21.573     6.613
    16   6 C        2.850     0.007    27.847     8.649
    17   7 N        2.730     0.020    20.898     6.790
    18   6 C        3.755    -0.019    20.961     6.528
    19   6 C        3.808    -0.071    21.850     6.654
    20   6 C        2.968     0.000    28.018     8.682
    21   6 C        2.922    -0.049    29.208     8.863
    22   6 C        2.914    -0.067    29.669     8.932
    23   6 C        2.865     0.134    25.069     8.207
    24   8 O        1.706    -0.220    17.658     5.673
    25   6 C        3.645     0.024    20.498     6.507
    26   6 C        2.862     0.133    25.078     8.209
    27   8 O        1.706    -0.223    17.706     5.681
    28   6 C        3.644     0.027    20.461     6.502
    29   6 C        2.919    -0.079    29.969     8.977
    30   6 C        3.702    -0.073    22.053     6.715
    31   6 C        3.853    -0.004    20.614     6.457
    32   6 C        3.761    -0.105    22.560     6.771
    33   6 C        3.754    -0.125    22.965     6.833
    34   1 H        0.926     0.048     2.339     2.392
    35   1 H        0.924     0.054     2.275     2.359
    36   1 H        0.925     0.081     1.968     2.194
    37   1 H        0.924     0.046     2.368     2.407
    38   1 H        0.924     0.058     2.226     2.333
    39   1 H        0.925     0.083     1.953     2.185
    40   1 H        0.924     0.051     2.302     2.373
    41   1 H        0.926     0.055     2.263     2.352
    42   1 H        0.926     0.048     2.347     2.396
    43   1 H        0.926     0.060     2.204     2.321
    44   1 H        0.926     0.060     2.201     2.320
    45   1 H        0.921     0.110     1.699     2.038
    46   1 H        0.923     0.089     1.891     2.151
    47   1 H        0.923    -0.004     3.136     2.769
    48   1 H        0.926     0.083     1.947     2.182
    49   1 H        0.924     0.069     2.095     2.263
    50   1 H        0.924     0.073     2.050     2.239
    51   1 H        0.924     0.057     2.237     2.339
    52   1 H        0.924     0.055     2.259     2.350
    53   1 H        0.926     0.046     2.368     2.407
    54   1 H        0.926     0.060     2.204     2.322
    55   1 H        0.924     0.055     2.257     2.349
    56   1 H        0.924     0.057     2.239     2.340
    57   1 H        0.925     0.083     1.948     2.183
    58   1 H        0.925     0.082     1.955     2.186
    59   1 H        0.924     0.049     2.327     2.386
    60   1 H        0.924     0.053     2.284     2.364
    61   1 H        0.926     0.048     2.344     2.394
    62   1 H        0.924     0.077     2.009     2.216
    63   1 H        0.924     0.080     1.976     2.199
    64   1 H        0.925     0.082     1.962     2.191
    65   1 H        0.924     0.039     2.458     2.452
    66   1 H        0.925     0.059     2.215     2.327
    67   1 H        0.925     0.039     2.462     2.454
    68   1 H        0.925     0.053     2.277     2.360
    69   1 H        0.925     0.082     1.958     2.188
    70   1 H        0.924     0.048     2.347     2.396
    71   1 H        0.925     0.051     2.305     2.374
    72   1 H        0.860     0.139     1.482     1.907

Wiberg/Mayer (AO) data.
largest (>0.10) Wiberg bond orders for each atom

     #   Z sym  total        # sym  WBO       # sym  WBO       # sym  WBO
 ---------------------------------------------------------------------------
     1   7 N    2.713 --     2 C    1.659    72 H    0.951
     2   6 C    3.927 --     1 N    1.659     3 C    1.274    47 H    0.928
     3   6 C    3.608 --     2 C    1.274     4 C    1.173    31 C    1.007
     4   6 C    3.959 --    13 C    1.314     5 C    1.300     3 C    1.173
     5   6 C    3.915 --     6 C    1.429     4 C    1.300    34 H    0.956
     6   6 C    3.905 --     5 C    1.429     9 C    1.206     7 O    1.096
     7   8 O    2.250 --     6 C    1.096     8 C    0.978
     8   6 C    3.932 --     7 O    0.978    36 H    0.977    35 H    0.974
                            37 H    0.973
     9   6 C    3.846 --    12 C    1.360     6 C    1.206    10 O    1.115
    10   8 O    2.250 --     9 C    1.115    11 C    0.976
    11   6 C    3.929 --    39 H    0.977    10 O    0.976    40 H    0.973
                            38 H    0.972
    12   6 C    3.961 --    13 C    1.455     9 C    1.360    41 H    0.962
    13   6 C    3.884 --    12 C    1.455     4 C    1.314    42 H    0.964
    14   6 C    3.163 --    15 C    1.088    43 H    0.981    44 H    0.980
    15   6 C    3.979 --    14 C    1.088    16 C    1.071    46 H    0.909
                            45 H    0.858
    16   6 C    3.605 --    17 N    1.425    15 C    1.071    48 H    0.956
    17   7 N    3.493 --    16 C    1.425    30 C    1.001    18 C    0.987
    18   6 C    3.953 --    17 N    0.987    50 H    0.967    19 C    0.966
                            49 H    0.964
    19   6 C    3.977 --    20 C    1.008    52 H    0.973    51 H    0.970
                            18 C    0.966
    20   6 C    3.943 --    21 C    1.405    29 C    1.383    19 C    1.008
    21   6 C    3.948 --    22 C    1.420    20 C    1.405    53 H    0.968
    22   6 C    3.959 --    21 C    1.420    23 C    1.381    54 H    0.963
    23   6 C    3.893 --    22 C    1.381    26 C    1.219    24 O    1.112
    24   8 O    2.255 --    23 C    1.112    25 C    0.975
    25   6 C    3.927 --    57 H    0.977    24 O    0.975    55 H    0.972
                            56 H    0.972
    26   6 C    3.896 --    29 C    1.392    23 C    1.219    27 O    1.105
    27   8 O    2.254 --    26 C    1.105    28 C    0.978
    28   6 C    3.931 --    27 O    0.978    58 H    0.977    59 H    0.973
                            60 H    0.973
    29   6 C    3.958 --    26 C    1.392    20 C    1.383    61 H    0.962
    30   6 C    3.957 --    17 N    1.001    64 H    0.978    62 H    0.962
                            63 H    0.961
    31   6 C    3.970 --     3 C    1.007    33 C    1.002    32 C    0.962
                            65 H    0.953
    32   6 C    3.946 --    67 H    0.985    66 H    0.983    68 H    0.978
                            31 C    0.962
    33   6 C    3.919 --    31 C    1.002    71 H    0.979    69 H    0.962
                            70 H    0.932
    34   1 H    0.996 --     5 C    0.956
    35   1 H    0.994 --     8 C    0.974
    36   1 H    0.993 --     8 C    0.977
    37   1 H    0.994 --     8 C    0.973
    38   1 H    0.991 --    11 C    0.972
    39   1 H    0.993 --    11 C    0.977
    40   1 H    0.992 --    11 C    0.973
    41   1 H    0.995 --    12 C    0.962
    42   1 H    0.997 --    13 C    0.964
    43   1 H    0.995 --    14 C    0.981
    44   1 H    0.996 --    14 C    0.980
    45   1 H    0.938 --    15 C    0.858
    46   1 H    0.961 --    15 C    0.909
    47   1 H    0.970 --     2 C    0.928
    48   1 H    0.993 --    16 C    0.956
    49   1 H    0.991 --    18 C    0.964
    50   1 H    0.994 --    18 C    0.967
    51   1 H    0.995 --    19 C    0.970
    52   1 H    0.996 --    19 C    0.973
    53   1 H    0.997 --    21 C    0.968
    54   1 H    0.995 --    22 C    0.963
    55   1 H    0.991 --    25 C    0.972
    56   1 H    0.991 --    25 C    0.972
    57   1 H    0.992 --    25 C    0.977
    58   1 H    0.993 --    28 C    0.977
    59   1 H    0.993 --    28 C    0.973
    60   1 H    0.992 --    28 C    0.973
    61   1 H    0.996 --    29 C    0.962
    62   1 H    0.985 --    30 C    0.962
    63   1 H    0.988 --    30 C    0.961
    64   1 H    0.993 --    30 C    0.978
    65   1 H    0.989 --    31 C    0.953
    66   1 H    0.994 --    32 C    0.983
    67   1 H    0.996 --    32 C    0.985
    68   1 H    0.990 --    32 C    0.978
    69   1 H    0.987 --    33 C    0.962
    70   1 H    0.993 --    33 C    0.932
    71   1 H    0.992 --    33 C    0.979
    72   1 H    0.971 --     1 N    0.951
 ---------------------------------------------------------------------------

molecular dipole:
                 x           y           z       tot (Debye)
 q only:        0.599      -0.250      -1.042
   full:        0.633      -0.535      -0.864       3.043

           -------------------------------------------------
          | TOTAL ENERGY              -99.316455769540 Eh   |
          | GRADIENT NORM               0.002784271376 Eh/α |
          | HOMO-LUMO GAP               0.140935717911 eV   |
           -------------------------------------------------

 * finished run on 2024/04/06 at 11:13:01.311
