   * xtb version 6.6.1 (8d0f1dd) compiled by 'conda@1efc2f54142f' on 2023-08-01
          program call               : xtb struc.xyz --opt loose --input .xc1 --gfn2

   ID    Z sym.   atoms
    1    7 N      1, 17
    2    6 C      2-6, 8, 9, 11-16, 18-23, 25, 26, 28-33
    3    8 O      7, 10, 24, 27
    4    1 H      34-72
constraining bond 31 71 to    4.1400000 Å, actual value:    2.1418957 Å

          :  Hamiltonian                  GFN2-xTB          :
 * total energy  :   -98.6912714 Eh     change       -0.4035485E-08 Eh
 * total energy  :   -98.9333753 Eh     change       -0.2421039E+00 Eh
 * total energy  :   -99.0719378 Eh     change       -0.1385626E+00 Eh
 * total energy  :   -99.1428668 Eh     change       -0.7092903E-01 Eh
 * total energy  :   -99.1725874 Eh     change       -0.2972051E-01 Eh
 * total energy  :   -99.1821988 Eh     change       -0.9611398E-02 Eh
 * total energy  :   -99.1859585 Eh     change       -0.3759716E-02 Eh
 * total energy  :   -99.1904467 Eh     change       -0.4488264E-02 Eh
 * total energy  :   -99.1995590 Eh     change       -0.9112243E-02 Eh
 * total energy  :   -99.2122284 Eh     change       -0.1266942E-01 Eh
 * total energy  :   -99.4362250 Eh     change       -0.3224029E-03 Eh
 * total energy  :   -99.4364842 Eh     change       -0.2591506E-03 Eh
 * total energy  :   -99.4367874 Eh     change       -0.3032276E-03 Eh
 * total energy  :   -99.4370134 Eh     change       -0.2259769E-03 Eh
 * total energy  :   -99.4372318 Eh     change       -0.2184144E-03 Eh
 * total energy  :   -99.4373927 Eh     change       -0.1608685E-03 Eh
 * total energy  :   -99.4374584 Eh     change       -0.6576475E-04 Eh
 * total energy  :   -99.4375483 Eh     change       -0.8984410E-04 Eh
 * total energy  :   -99.4375952 Eh     change       -0.4698234E-04 Eh
   *** GEOMETRY OPTIMIZATION CONVERGED AFTER 124 ITERATIONS ***

 final structure:
================
72
 xtb: 6.6.1 (8d0f1dd)
N           -2.38682060963762        3.41663110113866        1.86280149058146
C           -2.21993186211710        2.16503278726413        1.45013829772416
C           -3.20143864473201        1.81075975471728        0.38510128029319
C           -3.72766569548147        0.39204129872190        0.46964149471935
C           -4.57217473621496       -0.09022335365449       -0.53351608392613
C           -5.05234230485371       -1.38802987650755       -0.51332778232410
O           -5.86398069406413       -1.93414703155645       -1.44340390183502
C           -6.28216399642713       -1.15243788199732       -2.53644759294923
C           -4.68209837121818       -2.25475187005202        0.54965308782935
O           -5.17082797029090       -3.50858316782134        0.47597191106592
C           -4.83989333795140       -4.43031217250533        1.48848477985566
C           -3.87293418162616       -1.75876211031397        1.55779746785564
C           -3.40763935857773       -0.45139233115318        1.51969330567356
C           -2.58816657592119        2.07617751508384       -1.02750635751146
C           -1.57434682813189        1.02853490654566       -1.47689962980233
C           -0.21032371987684        1.27616547616228       -0.83811224370959
N            0.70257488918499        0.16777573643462       -0.97355303008031
C            2.07793024493492        0.45828674893239       -0.62581478793711
C            3.04382882279575       -0.16521774058316       -1.65269248204230
C            4.45835827463343       -0.00732738693147       -1.18303762141780
C            5.14272790033228        1.18276675829935       -1.37791438646827
C            6.42239115221335        1.35803038855720       -0.87513066931407
C            7.04796127010996        0.34118242680691       -0.16743231293194
O            8.27748921234221        0.40651895806433        0.38256677215595
C            9.00864054640853        1.60553358233928        0.28458074212464
C            6.36579737894661       -0.89283424779138        0.01547358981916
O            7.05576672291741       -1.83574918415400        0.69066135885912
C            6.47908176171225       -3.10626748561108        0.87516710105704
C            5.08235738170615       -1.03915328861033       -0.48611042442429
C            0.22404033692998       -1.09360720682189       -0.45639476150646
C           -4.29731846061390        2.89347660416684        0.63468929536163
C           -5.36579311234110        2.42543931526508        1.61758741683835
C           -3.50681498139834        4.07077766167214        1.22935425691887
H           -4.86099553308474        0.56391567690130       -1.33877942261651
H           -6.86839428112141       -0.28702075205953       -2.21163400361077
H           -6.91090062847305       -1.80582766086814       -3.13824831247685
H           -5.43172481269542       -0.81526205880145       -3.13775661424415
H           -5.21546206928768       -4.10724226900040        2.46424658076390
H           -5.32626194974491       -5.36179843827471        1.20575396955811
H           -3.75855468752679       -4.58917596970642        1.54699910698054
H           -3.59463535091355       -2.38456562933151        2.38989735897398
H           -2.79874189265573       -0.10914548258801        2.34047896494431
H           -3.40729958225122        2.10297085228840       -1.74497139037617
H           -2.12001535866974        3.06240022379239       -1.03131911751806
H           -1.94721386863572        0.04226129616023       -1.20889562697936
H           -1.46948452591289        1.06318486757570       -2.56189942243202
H           -1.49439351600703        1.52811060230003        1.91664046533644
H            0.25315794133781        2.14224945950314       -1.31774663154605
H            2.32436065089554        0.07767911011525        0.37625349332510
H            2.23326659554037        1.53921841214082       -0.61410514117813
H            2.89731003505162        0.33357824531322       -2.61162941395123
H            2.80074891853216       -1.22107196197198       -1.77782132545937
H            4.67797157501849        1.98446739585594       -1.93099139577802
H            6.92921695387733        2.29442385231559       -1.04331145902423
H            8.46609441872802        2.44487180959186        0.73324323722880
H            9.25344274090427        1.84273613217197       -0.75619365905550
H            9.92992274395255        1.43302545445615        0.84055723742511
H            7.22853905267784       -3.69403764103796        1.40298154598326
H            5.56991998944034       -3.05009678008090        1.48279897949159
H            6.25032995657573       -3.58600290147985       -0.08207203747152
H            4.55084198834179       -1.96707005041710       -0.34521915123875
H           -0.49677476864315       -1.53543989691045       -1.14169207186244
H           -0.25289693635535       -0.98485081589101        0.52829571664106
H            1.05750059678376       -1.78488955119198       -0.36064264273240
H           -4.77872860121836        3.18245074476657       -0.29996817051474
H           -4.91707212892037        2.12048278907737        2.55972521150765
H           -5.91740018315475        1.58067953587118        1.21532421072078
H           -6.07010937565955        3.23094816969647        1.80937595887033
H           -4.08853783411221        4.63269712604970        1.96372183132761
H           -3.15895101010082        4.76924070396583        0.45844247496847
H           -0.39009855187926        1.53773404799602        0.22060224486197
H           -1.80773156738171        3.87197619013648        2.54875368322884

          :  Hamiltonian                  GFN2-xTB          :
         :: total energy             -99.437595246750 Eh    ::
         :: gradient norm              0.003777853738 Eh/a0 ::
         :: HOMO-LUMO gap              1.434664275460 eV    ::
         :: SCC energy              -100.787620775736 Eh    ::
         :: -> dispersion             -0.073409952835 Eh    ::
         :: repulsion energy           1.348865290692 Eh    ::

    * Orbital Energies and Occupations

         #    Occupation            Energy/Eh            Energy/eV
      -------------------------------------------------------------
         1        2.0000           -0.8026410             -21.8410
       ...           ...                  ...                  ...
        78        1.9991           -0.5306408             -14.4395
        79        1.9989           -0.5263007             -14.3214
        80        1.9987           -0.5240561             -14.2603
        81        1.9985           -0.5221199             -14.2076
        82        1.9982           -0.5188133             -14.1176
        83        1.9978           -0.5156897             -14.0326
        84        1.9974           -0.5136137             -13.9761
        85        1.9962           -0.5071246             -13.7996
        86        1.9848           -0.4853155             -13.2061
        87        1.9729           -0.4760387             -12.9537
        88        1.8978           -0.4543770             -12.3642
        89        1.8718           -0.4505674             -12.2606
        90        1.7981           -0.4427456             -12.0477 (HOMO)
        91        0.4835           -0.3900226             -10.6131 (LUMO)
        92        0.0045           -0.3117131              -8.4821
        93        0.0036           -0.3081212              -8.3844
        94        0.0021           -0.2994019              -8.1471
        95        0.0018           -0.2970860              -8.0841
        96        0.0000           -0.1859208              -5.0592
        97        0.0000           -0.1745059              -4.7485
        98                         -0.1182510              -3.2178
        99                         -0.0926387              -2.5208
       100                         -0.0741165              -2.0168
       101                         -0.0584997              -1.5919
       ...                                ...                  ...
       171                          0.5878667              15.9967
      -------------------------------------------------------------
                  HL-Gap            0.0527229 Eh            1.4347 eV

     #   Z          covCN         q      C6AA      α(0)
     1   7 N        2.712    -0.075    22.693     7.075
     2   6 C        2.901     0.015    27.668     8.625
     3   6 C        3.930     0.014    20.269     6.398
     4   6 C        2.968    -0.000    28.029     8.684
     5   6 C        2.921    -0.079    29.984     8.980
     6   6 C        2.863     0.130    25.154     8.221
     7   8 O        1.706    -0.231    17.831     5.701
     8   6 C        3.645     0.028    20.442     6.498
     9   6 C        2.865     0.131    25.136     8.218
    10   8 O        1.706    -0.229    17.791     5.695
    11   6 C        3.646     0.027    20.452     6.499
    12   6 C        2.915    -0.072    29.784     8.949
    13   6 C        2.922    -0.052    29.289     8.875
    14   6 C        3.807    -0.065    21.749     6.639
    15   6 C        3.802    -0.072    21.886     6.661
    16   6 C        3.752    -0.001    20.657     6.481
    17   7 N        2.727    -0.125    23.711     7.232
    18   6 C        3.755     0.003    20.585     6.469
    19   6 C        3.809    -0.073    21.880     6.658
    20   6 C        2.969     0.007    27.854     8.657
    21   6 C        2.922    -0.047    29.164     8.856
    22   6 C        2.913    -0.067    29.673     8.932
    23   6 C        2.865     0.132    25.119     8.215
    24   8 O        1.706    -0.225    17.724     5.684
    25   6 C        3.645     0.027    20.460     6.501
    26   6 C        2.863     0.132    25.101     8.212
    27   8 O        1.706    -0.227    17.759     5.690
    28   6 C        3.645     0.028    20.436     6.497
    29   6 C        2.920    -0.077    29.931     8.972
    30   6 C        3.702    -0.044    21.528     6.634
    31   6 C        3.897    -0.022    20.909     6.500
    32   6 C        3.754    -0.117    22.789     6.807
    33   6 C        3.793    -0.013    20.819     6.498
    34   1 H        0.926     0.050     2.317     2.380
    35   1 H        0.924     0.049     2.327     2.385
    36   1 H        0.925     0.080     1.975     2.198
    37   1 H        0.924     0.048     2.342     2.393
    38   1 H        0.924     0.053     2.285     2.364
    39   1 H        0.925     0.080     1.978     2.199
    40   1 H        0.924     0.050     2.324     2.384
    41   1 H        0.926     0.053     2.283     2.363
    42   1 H        0.926     0.036     2.503     2.474
    43   1 H        0.925     0.057     2.232     2.336
    44   1 H        0.924     0.043     2.406     2.426
    45   1 H        0.925     0.057     2.236     2.339
    46   1 H        0.924     0.057     2.232     2.336
    47   1 H        0.926     0.066     2.125     2.280
    48   1 H        0.924     0.047     2.361     2.403
    49   1 H        0.923     0.032     2.565     2.505
    50   1 H        0.924     0.043     2.413     2.429
    51   1 H        0.924     0.059     2.211     2.325
    52   1 H        0.924     0.054     2.269     2.355
    53   1 H        0.926     0.048     2.351     2.398
    54   1 H        0.926     0.056     2.249     2.345
    55   1 H        0.924     0.052     2.299     2.371
    56   1 H        0.924     0.055     2.257     2.349
    57   1 H        0.925     0.080     1.981     2.201
    58   1 H        0.925     0.079     1.985     2.203
    59   1 H        0.924     0.049     2.339     2.392
    60   1 H        0.924     0.053     2.286     2.364
    61   1 H        0.926     0.049     2.334     2.389
    62   1 H        0.925     0.054     2.276     2.359
    63   1 H        0.923     0.029     2.598     2.521
    64   1 H        0.925     0.057     2.235     2.338
    65   1 H        0.924     0.056     2.242     2.342
    66   1 H        0.925     0.046     2.364     2.405
    67   1 H        0.925     0.056     2.246     2.343
    68   1 H        0.925     0.055     2.260     2.351
    69   1 H        0.924     0.075     2.028     2.227
    70   1 H        0.924     0.066     2.128     2.281
    71   1 H        0.922     0.023     2.684     2.562
    72   1 H        0.860     0.185     1.184     1.705

Wiberg/Mayer (AO) data.
largest (>0.10) Wiberg bond orders for each atom

     #   Z sym  total        # sym  WBO       # sym  WBO       # sym  WBO
 ---------------------------------------------------------------------------
     1   7 N    3.386 --     2 C    1.390    33 C    0.993    72 H    0.938
     2   6 C    3.507 --     1 N    1.390     3 C    1.029    47 H    0.955
     3   6 C    3.984 --     2 C    1.029     4 C    0.981    31 C    0.942
                            14 C    0.932
     4   6 C    3.949 --    13 C    1.423     5 C    1.365     3 C    0.981
     5   6 C    3.965 --     6 C    1.406     4 C    1.365    34 H    0.959
     6   6 C    3.912 --     5 C    1.406     9 C    1.224     7 O    1.097
     7   8 O    2.257 --     6 C    1.097     8 C    0.979
     8   6 C    3.934 --     7 O    0.979    36 H    0.977    37 H    0.974
                            35 H    0.974
     9   6 C    3.910 --    12 C    1.395     6 C    1.224    10 O    1.102
    10   8 O    2.258 --     9 C    1.102    11 C    0.978
    11   6 C    3.932 --    10 O    0.978    39 H    0.977    40 H    0.974
                            38 H    0.974
    12   6 C    3.966 --    13 C    1.405     9 C    1.395    41 H    0.964
    13   6 C    3.961 --     4 C    1.423    12 C    1.405    42 H    0.963
    14   6 C    3.961 --    15 C    1.010    44 H    0.975    43 H    0.966
                             3 C    0.932
    15   6 C    3.988 --    14 C    1.010    16 C    1.001    46 H    0.971
                            45 H    0.965
    16   6 C    3.969 --    17 N    1.011    15 C    1.001    48 H    0.969
                            71 H    0.932
    17   7 N    3.112 --    30 C    1.016    16 C    1.011    18 C    1.004
    18   6 C    3.969 --    17 N    1.004    50 H    0.972    19 C    0.971
                            49 H    0.963
    19   6 C    3.980 --    20 C    1.015    18 C    0.971    52 H    0.970
                            51 H    0.969
    20   6 C    3.937 --    21 C    1.400    29 C    1.382    19 C    1.015
    21   6 C    3.939 --    22 C    1.421    20 C    1.400    53 H    0.968
    22   6 C    3.957 --    21 C    1.421    23 C    1.381    54 H    0.963
    23   6 C    3.884 --    22 C    1.381    26 C    1.220    24 O    1.104
    24   8 O    2.244 --    23 C    1.104    25 C    0.978
    25   6 C    3.930 --    24 O    0.978    57 H    0.977    55 H    0.973
                            56 H    0.972
    26   6 C    3.890 --    29 C    1.394    23 C    1.220    27 O    1.100
    27   8 O    2.246 --    26 C    1.100    28 C    0.979
    28   6 C    3.933 --    27 O    0.979    58 H    0.977    60 H    0.973
                            59 H    0.973
    29   6 C    3.957 --    26 C    1.394    20 C    1.382    61 H    0.962
    30   6 C    3.975 --    17 N    1.016    64 H    0.979    62 H    0.974
                            63 H    0.969
    31   6 C    3.978 --    32 C    1.013    33 C    0.989    65 H    0.967
                             3 C    0.942
    32   6 C    3.990 --    31 C    1.013    66 H    0.986    68 H    0.982
                            67 H    0.980
    33   6 C    3.957 --     1 N    0.993    31 C    0.989    69 H    0.963
                            70 H    0.956
    34   1 H    0.996 --     5 C    0.959
    35   1 H    0.994 --     8 C    0.974
    36   1 H    0.993 --     8 C    0.977
    37   1 H    0.995 --     8 C    0.974
    38   1 H    0.994 --    11 C    0.974
    39   1 H    0.993 --    11 C    0.977
    40   1 H    0.994 --    11 C    0.974
    41   1 H    0.996 --    12 C    0.964
    42   1 H    0.998 --    13 C    0.963
    43   1 H    0.994 --    14 C    0.966
    44   1 H    0.997 --    14 C    0.975
    45   1 H    0.996 --    15 C    0.965
    46   1 H    0.993 --    15 C    0.971
    47   1 H    0.995 --     2 C    0.955
    48   1 H    0.996 --    16 C    0.969
    49   1 H    0.987 --    18 C    0.963
    50   1 H    0.997 --    18 C    0.972
    51   1 H    0.993 --    19 C    0.969
    52   1 H    0.996 --    19 C    0.970
    53   1 H    0.997 --    21 C    0.968
    54   1 H    0.995 --    22 C    0.963
    55   1 H    0.992 --    25 C    0.973
    56   1 H    0.991 --    25 C    0.972
    57   1 H    0.993 --    25 C    0.977
    58   1 H    0.993 --    28 C    0.977
    59   1 H    0.993 --    28 C    0.973
    60   1 H    0.992 --    28 C    0.973
    61   1 H    0.996 --    29 C    0.962
    62   1 H    0.991 --    30 C    0.974
    63   1 H    0.985 --    30 C    0.969
    64   1 H    0.997 --    30 C    0.979
    65   1 H    0.996 --    31 C    0.967
    66   1 H    0.998 --    32 C    0.986
    67   1 H    0.996 --    32 C    0.980
    68   1 H    0.996 --    32 C    0.982
    69   1 H    0.989 --    33 C    0.963
    70   1 H    0.984 --    33 C    0.956
    71   1 H    0.983 --    16 C    0.932
    72   1 H    0.965 --     1 N    0.938
 ---------------------------------------------------------------------------

molecular dipole:
                 x           y           z       tot (Debye)
 q only:       -1.122       2.087       0.734
   full:       -0.995       2.416       1.133       7.238

           -------------------------------------------------
          | TOTAL ENERGY              -99.437595246750 Eh   |
          | GRADIENT NORM               0.003777853738 Eh/α |
          | HOMO-LUMO GAP               1.434664275460 eV   |
           -------------------------------------------------

 * finished run on 2024/04/06 at 11:15:08.402
