   * xtb version 6.6.1 (8d0f1dd) compiled by 'conda@1efc2f54142f' on 2023-08-01
          program call               : xtb struc.xyz --opt loose --input .xc1 --gfn2

   ID    Z sym.   atoms
    1    6 C      1, 3, 5-7, 10, 11, 14
    2    7 N      2, 4, 9, 13
    3    8 O      8, 12
    4    1 H      15-25
constraining bond 3 13 to    5.9200000 Å, actual value:    3.5082066 Å

          :  Hamiltonian                  GFN2-xTB          :
 * total energy  :   -21.4758805 Eh     change       -0.6650680E-10 Eh
 * total energy  :   -30.5313001 Eh     change       -0.9055420E+01 Eh
 * total energy  :   -36.2790643 Eh     change       -0.5747764E+01 Eh
 * total energy  :   -39.8926791 Eh     change       -0.3613615E+01 Eh
 * total energy  :   -41.3931116 Eh     change       -0.1500433E+01 Eh
 * total energy  :   -41.5905329 Eh     change       -0.1974213E+00 Eh
 * total energy  :   -41.6118586 Eh     change       -0.2132568E-01 Eh
 * total energy  :   -41.6693564 Eh     change       -0.5749786E-01 Eh
 * total energy  :   -41.7074277 Eh     change       -0.3807129E-01 Eh
 * total energy  :   -41.7353970 Eh     change       -0.2796927E-01 Eh
 * total energy  :   -41.9273025 Eh     change       -0.1655457E-03 Eh
 * total energy  :   -41.9274917 Eh     change       -0.1891834E-03 Eh
 * total energy  :   -41.9276402 Eh     change       -0.1485124E-03 Eh
 * total energy  :   -41.9277919 Eh     change       -0.1517077E-03 Eh
 * total energy  :   -41.9278922 Eh     change       -0.1003013E-03 Eh
 * total energy  :   -41.9279844 Eh     change       -0.9222536E-04 Eh
 * total energy  :   -41.9280673 Eh     change       -0.8285460E-04 Eh
 * total energy  :   -41.9281024 Eh     change       -0.3518062E-04 Eh
 * total energy  :   -41.9281480 Eh     change       -0.4559282E-04 Eh
   *** GEOMETRY OPTIMIZATION CONVERGED AFTER 74 ITERATIONS ***

 final structure:
================
25
 xtb: 6.6.1 (8d0f1dd)
C            3.18490561637533        1.28675794268657       -0.60443233207158
N            2.71184769537445        0.29545786862877        0.34065219087256
C            3.42772588586348       -0.11140518933288        1.28617904997280
N            0.95647403858927       -2.35292307619897       -0.95752899651232
C            1.06798975830265       -1.21995925222431       -0.58446578255984
C            1.28393249714219       -0.09533858032001        0.07016072280074
C            0.35235852326701        0.92211733811207        0.47823740094435
O            0.66940912939831        1.94638595086909        1.02970374969859
N           -1.07300993155211        0.77545946017977        0.16809685182526
C           -1.83136033481009        2.00732678490570        0.41191954514362
C           -1.76206132023423       -0.23635796430644       -0.24766001794221
O           -3.01179312039764       -0.41708814428914       -0.62638294828037
N           -1.96216731722928       -1.48383497883643       -0.73645552579132
C           -2.16080689079056       -2.63588621836413        0.10135382384690
H            2.62158007873429        2.21250979683715       -0.47612338426428
H            4.23795085729345        1.48354839120492       -0.41316720520268
H            3.05644315863645        0.92404145387865       -1.62519560062019
H            3.08000509323600       -0.84074892951364        2.00371116954264
H           -1.36804726869331        2.82392653095360       -0.14018882151232
H           -2.86199969180788        1.87454250383361        0.09425732676346
H           -1.79089633064252        2.24921435053248        1.47407252319610
H           -2.49620274712949       -2.39519425701014        1.11233932187888
H           -1.20527351684281       -3.15968430899554        0.13725712657101
H           -2.89673740045677       -3.27203315938077       -0.39017683254859
H            0.93016505246863       -2.76259577225239       -1.87499173785270

          :  Hamiltonian                  GFN2-xTB          :
         :: total energy             -41.928148037429 Eh    ::
         :: gradient norm              0.003454920835 Eh/a0 ::
         :: HOMO-LUMO gap              1.326437190208 eV    ::
         :: SCC energy               -42.477916663465 Eh    ::
         :: -> dispersion             -0.021305215887 Eh    ::
         :: repulsion energy           0.549534651584 Eh    ::

    * Orbital Energies and Occupations

         #    Occupation            Energy/Eh            Energy/eV
      -------------------------------------------------------------
         1        2.0000           -0.9561310             -26.0176
       ...           ...                  ...                  ...
        25        2.0000           -0.6649353             -18.0938
        26        2.0000           -0.6622781             -18.0215
        27        1.9999           -0.6485498             -17.6479
        28        1.9999           -0.6452632             -17.5585
        29        1.9998           -0.6371632             -17.3381
        30        1.9998           -0.6334351             -17.2366
        31        1.9994           -0.6159077             -16.7597
        32        1.9994           -0.6146708             -16.7260
        33        1.9986           -0.6016561             -16.3719
        34        1.9969           -0.5890091             -16.0278
        35        1.9954           -0.5829307             -15.8624
        36        1.9821           -0.5614011             -15.2765
        37        1.6304           -0.5103433             -13.8871 (HOMO)
        38        0.3376           -0.4615976             -12.5607 (LUMO)
        39        0.0369           -0.4239200             -11.5355
        40        0.0133           -0.4075134             -11.0890
        41        0.0084           -0.4002045             -10.8901
        42        0.0023           -0.3796391             -10.3305
        43        0.0000           -0.3133181              -8.5258
        44        0.0000           -0.2430236              -6.6130
        45                         -0.2197020              -5.9784
        46                         -0.1403700              -3.8197
        47                         -0.1007882              -2.7426
        48                         -0.0913511              -2.4858
       ...                                ...                  ...
        67                          0.9330970              25.3909
      -------------------------------------------------------------
                  HL-Gap            0.0487457 Eh            1.3264 eV

     #   Z          covCN         q      C6AA      α(0)
     1   6 C        3.716    -0.082    22.202     6.731
     2   7 N        2.729     0.113    19.312     6.527
     3   6 C        1.869    -0.070    33.034     9.283
     4   7 N        1.772    -0.165    25.338     7.454
     5   6 C        1.900     0.110    28.392     8.606
     6   6 C        2.883    -0.038    28.933     8.818
     7   6 C        2.761     0.264    22.554     7.777
     8   8 O        0.859    -0.343    20.566     6.080
     9   7 N        2.726    -0.033    21.884     6.948
    10   6 C        3.725    -0.064    21.832     6.672
    11   6 C        2.720     0.284    22.187     7.711
    12   8 O        1.737    -0.182    17.048     5.575
    13   7 N        2.700    -0.021    21.663     6.913
    14   6 C        3.689    -0.065    21.943     6.704
    15   1 H        0.924     0.106     1.728     2.056
    16   1 H        0.925     0.115     1.654     2.011
    17   1 H        0.924     0.083     1.947     2.182
    18   1 H        0.926     0.096     1.818     2.108
    19   1 H        0.925     0.116     1.643     2.004
    20   1 H        0.925     0.103     1.756     2.073
    21   1 H        0.925     0.121     1.606     1.982
    22   1 H        0.924     0.079     1.988     2.205
    23   1 H        0.924     0.108     1.711     2.046
    24   1 H        0.925     0.119     1.619     1.990
    25   1 H        0.860     0.244     0.906     1.491

Wiberg/Mayer (AO) data.
largest (>0.10) Wiberg bond orders for each atom

     #   Z sym  total        # sym  WBO       # sym  WBO       # sym  WBO
 ---------------------------------------------------------------------------
     1   6 C    3.926 --     2 N    0.975    17 H    0.968    16 H    0.968
                            15 H    0.957
     2   7 N    3.716 --     3 C    1.825     1 C    0.975     6 C    0.850
     3   6 C    2.967 --     2 N    1.825    18 H    0.935
     4   7 N    3.337 --     5 C    2.143    25 H    0.890     6 C    0.137
     5   6 C    3.859 --     4 N    2.143     6 C    1.556
     6   6 C    3.856 --     5 C    1.556     7 C    1.116     2 N    0.850
                             4 N    0.137
     7   6 C    3.864 --     8 O    1.715     6 C    1.116     9 N    0.918
     8   8 O    2.026 --     7 C    1.715
     9   7 N    3.575 --    11 C    1.436    10 C    0.944     7 C    0.918
    10   6 C    3.903 --    20 H    0.973    19 H    0.963    21 H    0.959
                             9 N    0.944
    11   6 C    3.710 --     9 N    1.436    13 N    1.090    12 O    1.082
    12   8 O    2.127 --    11 C    1.082    13 N    0.859
    13   7 N    3.063 --    11 C    1.090    14 C    0.994    12 O    0.859
    14   6 C    3.925 --    13 N    0.994    22 H    0.973    24 H    0.963
                            23 H    0.944
    15   1 H    0.987 --     1 C    0.957
    16   1 H    0.985 --     1 C    0.968
    17   1 H    0.992 --     1 C    0.968
    18   1 H    0.963 --     3 C    0.935
    19   1 H    0.984 --    10 C    0.963
    20   1 H    0.988 --    10 C    0.973
    21   1 H    0.982 --    10 C    0.959
    22   1 H    0.992 --    14 C    0.973
    23   1 H    0.988 --    14 C    0.944
    24   1 H    0.984 --    14 C    0.963
    25   1 H    0.931 --     4 N    0.890
 ---------------------------------------------------------------------------

molecular dipole:
                 x           y           z       tot (Debye)
 q only:        0.304      -1.084      -0.729
   full:       -0.098      -1.273      -0.776       3.798

           -------------------------------------------------
          | TOTAL ENERGY              -41.928148037429 Eh   |
          | GRADIENT NORM               0.003454920835 Eh/α |
          | HOMO-LUMO GAP               1.326437190208 eV   |
           -------------------------------------------------

 * finished run on 2024/06/05 at 19:59:10.179
