   * xtb version 6.6.1 (8d0f1dd) compiled by 'conda@1efc2f54142f' on 2023-08-01
          program call               : xtb xtbopt.xyz --opt crude --input .xc2 --gfn2

   ID    Z sym.   atoms
    1    6 C      1, 3, 5-7, 10, 11, 14
    2    7 N      2, 4, 9, 13
    3    8 O      8, 12
    4    1 H      15-25
########################################################################
[WARNING] Please study the warnings concerning your input carefully
-1- readin_getIntValue: could not parse ''
########################################################################

          :  Hamiltonian                  GFN2-xTB          :
 * total energy  :   -41.9281591 Eh     change        0.1634248E-12 Eh
 * total energy  :   -41.9289454 Eh     change       -0.7863469E-03 Eh
 * total energy  :   -41.9298257 Eh     change       -0.8802396E-03 Eh
 * total energy  :   -41.9300480 Eh     change       -0.2223614E-03 Eh
   *** GEOMETRY OPTIMIZATION CONVERGED AFTER 4 ITERATIONS ***

 final structure:
================
25
 xtb: 6.6.1 (8d0f1dd)
C            3.19226631036851        1.25974466710675       -0.60475248842839
N            2.65282829455262        0.26592198784369        0.30087796166286
C            3.30073362448282       -0.19862582640672        1.26753518360965
N            0.94210798292929       -2.33578526018533       -0.99605166689849
C            0.99868461955459       -1.19454961314383       -0.63239673923578
C            1.22815413497802       -0.06814590838248        0.01499573661231
C            0.33729028151538        0.96595912114681        0.47133512552776
O            0.68539829178540        1.97769017593238        1.02850043741065
N           -1.08145977996198        0.82358015469835        0.19533840086915
C           -1.86086313019655        2.04049422215113        0.42422351950687
C           -1.71721987696850       -0.22019011495771       -0.21801170734515
O           -2.92975449606156       -0.46441042140755       -0.67795483181234
N           -1.81330915625317       -1.48400643124525       -0.68398634692007
C           -2.06372648296700       -2.63466453223597        0.14532490652101
H            2.64995436275326        2.19779280141725       -0.47795570809901
H            4.24211654212151        1.42235067342619       -0.37086248423929
H            3.08857686516454        0.92019110484397       -1.63532956809831
H            2.89205132771825       -0.92370379346006        1.95576820191466
H           -1.41095360764800        2.85906287469518       -0.13605299518648
H           -2.88827647606626        1.88349658746310        0.10713209347213
H           -1.82248611851754        2.29192243329234        1.48420636894798
H           -2.47123442174771       -2.38685401245144        1.12762369788623
H           -1.11665139854944       -3.16173459548692        0.24969833187861
H           -2.76520126810931       -3.26688199805617       -0.39800598650186
H            0.89140508921784       -2.75041575499989       -1.91002782515569

          :  Hamiltonian                  GFN2-xTB          :
         :: total energy             -41.930048042326 Eh    ::
         :: gradient norm              0.006699333280 Eh/a0 ::
         :: HOMO-LUMO gap              1.292575551273 eV    ::
         :: SCC energy               -42.482941610196 Eh    ::
         :: -> dispersion             -0.021567145913 Eh    ::
         :: repulsion energy           0.552663744931 Eh    ::

    * Orbital Energies and Occupations

         #    Occupation            Energy/Eh            Energy/eV
      -------------------------------------------------------------
         1        2.0000           -0.9558816             -26.0109
       ...           ...                  ...                  ...
        25        2.0000           -0.6643274             -18.0773
        26        2.0000           -0.6623339             -18.0230
        27        1.9999           -0.6489365             -17.6585
        28        1.9999           -0.6468677             -17.6022
        29        1.9999           -0.6386307             -17.3780
        30        1.9998           -0.6346745             -17.2704
        31        1.9994           -0.6164973             -16.7757
        32        1.9994           -0.6151418             -16.7389
        33        1.9986           -0.6023126             -16.3898
        34        1.9971           -0.5905575             -16.0699
        35        1.9953           -0.5825214             -15.8512
        36        1.9824           -0.5616653             -15.2837
        37        1.6182           -0.5097121             -13.8700 (HOMO)
        38        0.3485           -0.4622108             -12.5774 (LUMO)
        39        0.0363           -0.4236539             -11.5282
        40        0.0129           -0.4070844             -11.0773
        41        0.0086           -0.4007212             -10.9042
        42        0.0037           -0.3874134             -10.5421
        43        0.0000           -0.3122092              -8.4956
        44        0.0000           -0.2370383              -6.4501
        45                         -0.2089089              -5.6847
        46                         -0.1344561              -3.6587
        47                         -0.1011672              -2.7529
        48                         -0.0929879              -2.5303
       ...                                ...                  ...
        67                          0.9241415              25.1472
      -------------------------------------------------------------
                  HL-Gap            0.0475013 Eh            1.2926 eV

     #   Z          covCN         q      C6AA      α(0)
     1   6 C        3.712    -0.083    22.224     6.736
     2   7 N        2.733     0.115    19.268     6.519
     3   6 C        1.871    -0.070    33.045     9.285
     4   7 N        1.772    -0.165    25.330     7.453
     5   6 C        1.901     0.108    28.440     8.613
     6   6 C        2.889    -0.040    28.985     8.827
     7   6 C        2.764     0.263    22.570     7.780
     8   8 O        0.859    -0.345    20.614     6.087
     9   7 N        2.728    -0.029    21.809     6.936
    10   6 C        3.719    -0.064    21.843     6.676
    11   6 C        2.717     0.284    22.181     7.710
    12   8 O        1.730    -0.186    17.105     5.584
    13   7 N        2.694    -0.026    21.750     6.926
    14   6 C        3.688    -0.064    21.938     6.704
    15   1 H        0.924     0.108     1.715     2.048
    16   1 H        0.925     0.116     1.650     2.009
    17   1 H        0.925     0.085     1.926     2.170
    18   1 H        0.926     0.096     1.822     2.111
    19   1 H        0.925     0.116     1.643     2.004
    20   1 H        0.925     0.103     1.754     2.071
    21   1 H        0.925     0.121     1.602     1.979
    22   1 H        0.924     0.081     1.973     2.197
    23   1 H        0.925     0.110     1.694     2.036
    24   1 H        0.925     0.120     1.612     1.986
    25   1 H        0.860     0.244     0.905     1.490

Wiberg/Mayer (AO) data.
largest (>0.10) Wiberg bond orders for each atom

     #   Z sym  total        # sym  WBO       # sym  WBO       # sym  WBO
 ---------------------------------------------------------------------------
     1   6 C    3.926 --     2 N    0.975    16 H    0.968    17 H    0.967
                            15 H    0.956
     2   7 N    3.718 --     3 C    1.818     1 C    0.975     6 C    0.857
     3   6 C    2.962 --     2 N    1.818    18 H    0.935
     4   7 N    3.334 --     5 C    2.139    25 H    0.890     6 C    0.137
     5   6 C    3.856 --     4 N    2.139     6 C    1.552
     6   6 C    3.854 --     5 C    1.552     7 C    1.112     2 N    0.857
                             4 N    0.137
     7   6 C    3.865 --     8 O    1.710     6 C    1.112     9 N    0.931
     8   8 O    2.018 --     7 C    1.710
     9   7 N    3.579 --    11 C    1.430    10 C    0.945     7 C    0.931
    10   6 C    3.903 --    20 H    0.974    19 H    0.963    21 H    0.958
                             9 N    0.945
    11   6 C    3.707 --     9 N    1.430    13 N    1.094    12 O    1.080
    12   8 O    2.119 --    11 C    1.080    13 N    0.853
    13   7 N    3.062 --    11 C    1.094    14 C    0.993    12 O    0.853
    14   6 C    3.922 --    13 N    0.993    22 H    0.973    24 H    0.962
                            23 H    0.944
    15   1 H    0.987 --     1 C    0.956
    16   1 H    0.985 --     1 C    0.968
    17   1 H    0.992 --     1 C    0.967
    18   1 H    0.964 --     3 C    0.935
    19   1 H    0.984 --    10 C    0.963
    20   1 H    0.988 --    10 C    0.974
    21   1 H    0.982 --    10 C    0.958
    22   1 H    0.991 --    14 C    0.973
    23   1 H    0.988 --    14 C    0.944
    24   1 H    0.984 --    14 C    0.962
    25   1 H    0.930 --     4 N    0.890
 ---------------------------------------------------------------------------

molecular dipole:
                 x           y           z       tot (Debye)
 q only:        0.276      -1.059      -0.694
   full:       -0.167      -1.222      -0.758       3.679

           -------------------------------------------------
          | TOTAL ENERGY              -41.930048042326 Eh   |
          | GRADIENT NORM               0.006699333280 Eh/α |
          | HOMO-LUMO GAP               1.292575551273 eV   |
           -------------------------------------------------

 * finished run on 2024/06/05 at 19:59:10.410
