   * xtb version 6.6.1 (8d0f1dd) compiled by 'conda@1efc2f54142f' on 2023-08-01
          program call               : xtb struc.xyz --opt loose --input .xc1 --gfn2

   ID    Z sym.   atoms
    1    6 C      1, 3, 5-7, 10, 11, 14
    2    7 N      2, 4, 9, 13
    3    8 O      8, 12
    4    1 H      15-25
constraining bond 1 7 to    6.0000000 Å, actual value:    3.1529964 Å

          :  Hamiltonian                  GFN2-xTB          :
 * total energy  :   -27.7727788 Eh     change       -0.6633627E-10 Eh
 * total energy  :   -32.7988517 Eh     change       -0.5026073E+01 Eh
 * total energy  :   -36.5358592 Eh     change       -0.3737008E+01 Eh
 * total energy  :   -39.1653594 Eh     change       -0.2629500E+01 Eh
 * total energy  :   -40.7457778 Eh     change       -0.1580418E+01 Eh
 * total energy  :   -41.3651788 Eh     change       -0.6194010E+00 Eh
 * total energy  :   -41.4970462 Eh     change       -0.1318674E+00 Eh
 * total energy  :   -41.5628044 Eh     change       -0.6575823E-01 Eh
 * total energy  :   -41.6035633 Eh     change       -0.4075886E-01 Eh
 * total energy  :   -41.6192147 Eh     change       -0.1565140E-01 Eh
 * total energy  :   -42.0479521 Eh     change       -0.1306447E-03 Eh
 * total energy  :   -42.0482323 Eh     change       -0.2802160E-03 Eh
 * total energy  :   -42.0483470 Eh     change       -0.1147128E-03 Eh
 * total energy  :   -42.0484722 Eh     change       -0.1251958E-03 Eh
 * total energy  :   -42.0485461 Eh     change       -0.7384413E-04 Eh
 * total energy  :   -42.0486093 Eh     change       -0.6324019E-04 Eh
 * total energy  :   -42.0486395 Eh     change       -0.3014850E-04 Eh
 * total energy  :   -42.0486968 Eh     change       -0.5730523E-04 Eh
 * total energy  :   -42.0487238 Eh     change       -0.2697230E-04 Eh
   *** GEOMETRY OPTIMIZATION CONVERGED AFTER 69 ITERATIONS ***

 final structure:
================
25
 xtb: 6.6.1 (8d0f1dd)
C            5.24556327916248        0.00616963474166       -0.00875136610251
N            1.85284427234941        0.71189396825983        0.05947579611603
C            2.38399372669567       -0.49629582962078        0.05430250695323
N            1.39222931761561       -1.40623777496298        0.02572389039352
C            0.19332544042509       -0.74257834674608        0.01306200785826
C            0.49168591768596        0.60664391106288        0.03408330031091
C           -0.53061443818438        1.63588924686624        0.02256359157133
O           -0.32429012732917        2.82151755872361        0.03730368406672
N           -1.79894867739693        1.06225709454021       -0.01035559813626
C           -2.94229285624188        1.96788074000480       -0.02818324951651
C           -2.13068147023676       -0.28187640514920       -0.02648097149340
O           -3.26386977105058       -0.66590134048310       -0.05041195538536
N           -1.06091707390697       -1.21379512611006       -0.01487828129204
C           -1.36375703842859       -2.63152644593981       -0.03551259202157
H            5.72328887008096        0.53943718026584        0.81396958287870
H            5.97125043741635       -0.26878143264493       -0.77570101191822
H            2.35140509111451        1.59302764207125        0.07875807186213
H            3.48917927835850       -0.62958313304185        0.04577136915260
H           -2.56388150193149        2.98672039854663       -0.02576376617214
H           -3.54095176153284        1.78760694334709       -0.91990572157615
H           -3.56513969153565        1.79332912460048        0.84805192327142
H           -0.97689709688541       -3.11855245373396        0.85976292804552
H           -0.94892305780928       -3.09858110284975       -0.92893105584634
H           -2.44834531222634       -2.73198040442798       -0.05359736686512
H            1.52517575795030       -2.40844510562282        0.01681590168574

          :  Hamiltonian                  GFN2-xTB          :
         :: total energy             -42.048723753185 Eh    ::
         :: gradient norm              0.001135536284 Eh/a0 ::
         :: HOMO-LUMO gap              0.942520120589 eV    ::
         :: SCC energy               -42.565347863288 Eh    ::
         :: -> dispersion             -0.021316855440 Eh    ::
         :: repulsion energy           0.516608795769 Eh    ::

    * Orbital Energies and Occupations

         #    Occupation            Energy/Eh            Energy/eV
      -------------------------------------------------------------
         1        2.0000           -0.9180435             -24.9812
       ...           ...                  ...                  ...
        25        2.0000           -0.6626144             -18.0307
        26        2.0000           -0.6609894             -17.9864
        27        2.0000           -0.6515384             -17.7293
        28        2.0000           -0.6281731             -17.0935
        29        2.0000           -0.6225565             -16.9406
        30        2.0000           -0.6168226             -16.7846
        31        2.0000           -0.6133412             -16.6899
        32        1.9999           -0.5927703             -16.1301
        33        1.9990           -0.5747821             -15.6406
        34        1.9936           -0.5598249             -15.2336
        35        1.9893           -0.5557676             -15.1232
        36        1.9884           -0.5551546             -15.1065
        37        1.8126           -0.5323613             -14.4863 (HOMO)
        38        0.2171           -0.4977243             -13.5438 (LUMO)
        39        0.0001           -0.4344698             -11.8225
        40        0.0000           -0.4028347             -10.9617
        41                         -0.3690855             -10.0433
        42                         -0.2845259              -7.7423
        43                         -0.2061798              -5.6104
        44                         -0.1911854              -5.2024
        45                         -0.1393313              -3.7914
        46                         -0.1249797              -3.4009
        47                         -0.0782852              -2.1302
        48                         -0.0476242              -1.2959
       ...                                ...                  ...
        67                          0.5703012              15.5187
      -------------------------------------------------------------
                  HL-Gap            0.0346370 Eh            0.9425 eV

     #   Z          covCN         q      C6AA      α(0)
     1   6 C        1.849    -0.163    35.808     9.666
     2   7 N        2.812    -0.001    21.279     6.851
     3   6 C        3.031     0.052    26.807     8.493
     4   7 N        2.814    -0.040    22.008     6.968
     5   6 C        3.045     0.116    25.399     8.266
     6   6 C        3.118    -0.013    28.173     8.694
     7   6 C        2.764     0.273    22.377     7.747
     8   8 O        0.858    -0.356    20.830     6.119
     9   7 N        2.747    -0.085    22.902     7.108
    10   6 C        3.710    -0.063    21.851     6.680
    11   6 C        2.727     0.318    21.601     7.609
    12   8 O        0.859    -0.355    20.798     6.114
    13   7 N        2.738    -0.058    22.368     7.024
    14   6 C        3.696    -0.073    22.074     6.721
    15   1 H        0.924     0.099     1.790     2.093
    16   1 H        0.924     0.102     1.764     2.077
    17   1 H        0.860     0.247     0.896     1.483
    18   1 H        0.922     0.169     1.272     1.764
    19   1 H        0.925     0.112     1.680     2.027
    20   1 H        0.925     0.098     1.806     2.101
    21   1 H        0.925     0.098     1.807     2.102
    22   1 H        0.925     0.082     1.962     2.190
    23   1 H        0.925     0.082     1.961     2.190
    24   1 H        0.925     0.128     1.547     1.945
    25   1 H        0.860     0.232     0.957     1.533

Wiberg/Mayer (AO) data.
largest (>0.10) Wiberg bond orders for each atom

     #   Z sym  total        # sym  WBO       # sym  WBO       # sym  WBO
 ---------------------------------------------------------------------------
     1   6 C    2.085 --    15 H    0.972    16 H    0.972
     2   7 N    3.679 --     3 C    1.434     6 C    1.181    17 H    0.912
     3   6 C    3.861 --     2 N    1.434     4 N    1.316    18 H    0.847
                             6 C    0.105
     4   7 N    3.622 --     3 C    1.316     5 C    1.178    25 H    0.918
     5   6 C    3.962 --     6 C    1.367    13 N    1.227     4 N    1.178
     6   6 C    3.931 --     5 C    1.367     2 N    1.181     7 C    1.050
                             3 C    0.105
     7   6 C    3.967 --     8 O    1.713     9 N    1.109     6 C    1.050
     8   8 O    2.070 --     7 C    1.713     9 N    0.160
     9   7 N    3.570 --    11 C    1.123     7 C    1.109    10 C    0.967
                             8 O    0.160    12 O    0.138
    10   6 C    3.917 --    19 H    0.970     9 N    0.967    20 H    0.966
                            21 H    0.966
    11   6 C    3.960 --    12 O    1.720     9 N    1.123    13 N    1.024
    12   8 O    2.078 --    11 C    1.720     9 N    0.138    13 N    0.124
    13   7 N    3.563 --     5 C    1.227    11 C    1.024    14 C    0.974
                            12 O    0.124
    14   6 C    3.925 --    13 N    0.974    22 H    0.972    23 H    0.971
                            24 H    0.964
    15   1 H    0.973 --     1 C    0.972
    16   1 H    0.973 --     1 C    0.972
    17   1 H    0.938 --     2 N    0.912
    18   1 H    0.970 --     3 C    0.847
    19   1 H    0.987 --    10 C    0.970
    20   1 H    0.987 --    10 C    0.966
    21   1 H    0.987 --    10 C    0.966
    22   1 H    0.991 --    14 C    0.972
    23   1 H    0.991 --    14 C    0.971
    24   1 H    0.983 --    14 C    0.964
    25   1 H    0.946 --     4 N    0.918
 ---------------------------------------------------------------------------

molecular dipole:
                 x           y           z       tot (Debye)
 q only:        2.701      -1.606       0.043
   full:        3.523      -1.758       0.065      10.008

           -------------------------------------------------
          | TOTAL ENERGY              -42.048723753185 Eh   |
          | GRADIENT NORM               0.001135536284 Eh/α |
          | HOMO-LUMO GAP               0.942520120589 eV   |
           -------------------------------------------------

 * finished run on 2024/06/05 at 19:57:54.774
