   * xtb version 6.6.1 (8d0f1dd) compiled by 'conda@1efc2f54142f' on 2023-08-01
          program call               : xtb struc.xyz --opt loose --input .xc1 --gfn2

   ID    Z sym.   atoms
    1    6 C      1, 3, 5-7, 10, 11, 14
    2    7 N      2, 4, 9, 13
    3    8 O      8, 12
    4    1 H      15-25
constraining bond 6 15 to    5.1400000 Å, actual value:    3.1327550 Å

          :  Hamiltonian                  GFN2-xTB          :
 * total energy  :   -35.0538915 Eh     change       -0.6650680E-10 Eh
 * total energy  :   -38.3247142 Eh     change       -0.3270823E+01 Eh
 * total energy  :   -40.5390952 Eh     change       -0.2214381E+01 Eh
 * total energy  :   -41.5911790 Eh     change       -0.1052084E+01 Eh
 * total energy  :   -41.8692885 Eh     change       -0.2781095E+00 Eh
 * total energy  :   -41.9067338 Eh     change       -0.3744535E-01 Eh
 * total energy  :   -41.9226094 Eh     change       -0.1587561E-01 Eh
 * total energy  :   -41.9613220 Eh     change       -0.3871253E-01 Eh
 * total energy  :   -41.9742652 Eh     change       -0.1294326E-01 Eh
 * total energy  :   -41.9838695 Eh     change       -0.9604320E-02 Eh
 * total energy  :   -42.0962088 Eh     change       -0.2957527E-02 Eh
 * total energy  :   -42.0983243 Eh     change       -0.2115560E-02 Eh
 * total energy  :   -42.1038716 Eh     change       -0.5547235E-02 Eh
 * total energy  :   -42.1063345 Eh     change       -0.2462883E-02 Eh
 * total energy  :   -42.1070129 Eh     change       -0.6784694E-03 Eh
 * total energy  :   -42.1076893 Eh     change       -0.6763785E-03 Eh
 * total energy  :   -42.1078640 Eh     change       -0.1747207E-03 Eh
 * total energy  :   -42.1079398 Eh     change       -0.7576830E-04 Eh
 * total energy  :   -42.1079809 Eh     change       -0.4115675E-04 Eh
   *** GEOMETRY OPTIMIZATION CONVERGED AFTER 28 ITERATIONS ***

 final structure:
================
25
 xtb: 6.6.1 (8d0f1dd)
C            3.05754248902362        1.08443988427072       -0.14452446910067
N            2.20069395805312        0.07037701685846       -0.09688341126750
C            2.46978178653082       -1.25559793731791       -0.10280723055912
N            1.31005484237251       -1.96489985816530       -0.06240584384990
C            0.27395233764126       -1.08368140255354       -0.02860434058824
C            0.81291878081188        0.19118840427559       -0.04253356970716
C           -0.01723700985686        1.37507986129962       -0.03526332214530
O            0.37625016822253        2.51631543041805       -0.04776448162447
N           -1.37261419709179        1.03868693435725       -0.01177668811856
C           -2.33219165315101        2.13371963501507       -0.02464511945473
C           -1.93482976165278       -0.22521925529722        0.00234651493853
O           -3.12058879549260       -0.39997764281812        0.01216291731780
N           -1.04658555653486       -1.32299097266842        0.00589024996427
C           -1.59252054804956       -2.66612475337294        0.01352047490081
H            5.55055594868021        1.78519231374608        1.15464098725659
H            4.11682027948408        0.89804640780815       -0.18228158755309
H            2.66184418714796        2.08373402808514       -0.13512936973124
H            3.44805013788963       -1.68625818130795       -0.14651380374160
H           -1.77822830555671        3.06904808693176       -0.00627924991325
H           -2.94715285140463        2.07595224469245       -0.92253730359027
H           -2.98720308022898        2.06207317865724        0.84356965368265
H           -1.27796667757604       -3.20147051871889        0.90976850608573
H           -1.28232287238634       -3.20976748820583       -0.87892975944566
H           -2.67855341775061       -2.57730736634789        0.01662375957544
H            1.24996132497560       -2.97231950804141       -0.05847189543114

          :  Hamiltonian                  GFN2-xTB          :
         :: total energy             -42.107980946207 Eh    ::
         :: gradient norm              0.002921325839 Eh/a0 ::
         :: HOMO-LUMO gap              0.318776651747 eV    ::
         :: SCC energy               -42.631209007187 Eh    ::
         :: -> dispersion             -0.022768896966 Eh    ::
         :: repulsion energy           0.523144951710 Eh    ::

    * Orbital Energies and Occupations

         #    Occupation            Energy/Eh            Energy/eV
      -------------------------------------------------------------
         1        2.0000           -0.9122713             -24.8242
       ...           ...                  ...                  ...
        25        1.9999           -0.6690563             -18.2059
        26        1.9999           -0.6689641             -18.2034
        27        1.9999           -0.6597107             -17.9516
        28        1.9995           -0.6380928             -17.3634
        29        1.9994           -0.6335179             -17.2389
        30        1.9991           -0.6280554             -17.0903
        31        1.9986           -0.6205396             -16.8857
        32        1.9951           -0.6011922             -16.3593
        33        1.9844           -0.5825967             -15.8533
        34        1.9547           -0.5655104             -15.3883
        35        1.9485           -0.5634252             -15.3316
        36        1.9432           -0.5618538             -15.2888
        37        1.2661           -0.5145413             -14.0014 (HOMO)
        38        0.9031           -0.5028265             -13.6826 (LUMO)
        39        0.0053           -0.4120797             -11.2133
        40        0.0030           -0.4029324             -10.9643
        41        0.0004           -0.3697141             -10.0604
        42        0.0000           -0.2880303              -7.8377
        43                         -0.2082656              -5.6672
        44                         -0.1873336              -5.0976
        45                         -0.1456504              -3.9633
        46                         -0.1170705              -3.1856
        47                         -0.0845564              -2.3009
        48                         -0.0507206              -1.3802
       ...                                ...                  ...
        67                          0.5538281              15.0704
      -------------------------------------------------------------
                  HL-Gap            0.0117148 Eh            0.3188 eV

     #   Z          covCN         q      C6AA      α(0)
     1   6 C        2.789    -0.068    29.688     8.925
     2   7 N        2.808     0.130    19.022     6.478
     3   6 C        3.039     0.027    27.374     8.582
     4   7 N        2.780    -0.058    22.355     7.022
     5   6 C        3.023     0.120    25.347     8.258
     6   6 C        3.111    -0.038    28.783     8.789
     7   6 C        2.764     0.275    22.351     7.742
     8   8 O        0.858    -0.355    20.801     6.115
     9   7 N        2.746    -0.081    22.808     7.093
    10   6 C        3.710    -0.063    21.844     6.680
    11   6 C        2.728     0.318    21.591     7.607
    12   8 O        0.860    -0.349    20.679     6.097
    13   7 N        2.738    -0.053    22.256     7.007
    14   6 C        3.696    -0.073    22.079     6.721
    15   1 H        0.000     0.038     6.180     4.545
    16   1 H        0.926     0.112     1.682     2.028
    17   1 H        0.926     0.141     1.455     1.886
    18   1 H        0.927     0.122     1.600     1.978
    19   1 H        0.925     0.117     1.639     2.002
    20   1 H        0.925     0.103     1.755     2.072
    21   1 H        0.925     0.105     1.744     2.065
    22   1 H        0.924     0.087     1.912     2.162
    23   1 H        0.925     0.085     1.924     2.169
    24   1 H        0.925     0.129     1.539     1.940
    25   1 H        0.860     0.229     0.971     1.544

Wiberg/Mayer (AO) data.
largest (>0.10) Wiberg bond orders for each atom

     #   Z sym  total        # sym  WBO       # sym  WBO       # sym  WBO
 ---------------------------------------------------------------------------
     1   6 C    3.392 --     2 N    1.332    17 H    0.955    16 H    0.950
     2   7 N    3.764 --     1 C    1.332     3 C    1.247     6 C    1.087
     3   6 C    3.643 --     2 N    1.247     4 N    1.243    18 H    0.955
     4   7 N    3.527 --     3 C    1.243     5 C    1.193    25 H    0.919
     5   6 C    3.938 --     6 C    1.351    13 N    1.218     4 N    1.193
     6   6 C    3.844 --     5 C    1.351     2 N    1.087     7 C    1.083
     7   6 C    3.959 --     8 O    1.688     9 N    1.094     6 C    1.083
     8   8 O    2.021 --     7 C    1.688     9 N    0.139
     9   7 N    3.530 --    11 C    1.124     7 C    1.094    10 C    0.972
                             8 O    0.139    12 O    0.133
    10   6 C    3.897 --     9 N    0.972    19 H    0.965    21 H    0.958
                            20 H    0.957
    11   6 C    3.958 --    12 O    1.707     9 N    1.124    13 N    1.036
    12   8 O    2.046 --    11 C    1.707     9 N    0.133    13 N    0.118
    13   7 N    3.532 --     5 C    1.218    11 C    1.036    14 C    0.975
                            12 O    0.118
    14   6 C    3.918 --    13 N    0.975    23 H    0.968    22 H    0.968
                            24 H    0.963
    15   1 H    0.035
    16   1 H    0.986 --     1 C    0.950
    17   1 H    0.979 --     1 C    0.955
    18   1 H    0.984 --     3 C    0.955
    19   1 H    0.983 --    10 C    0.965
    20   1 H    0.976 --    10 C    0.957
    21   1 H    0.977 --    10 C    0.958
    22   1 H    0.986 --    14 C    0.968
    23   1 H    0.986 --    14 C    0.968
    24   1 H    0.982 --    14 C    0.963
    25   1 H    0.947 --     4 N    0.919
 ---------------------------------------------------------------------------

molecular dipole:
                 x           y           z       tot (Debye)
 q only:        2.247      -1.968      -0.052
   full:        2.537      -2.434      -0.053       8.937

           -------------------------------------------------
          | TOTAL ENERGY              -42.107980946207 Eh   |
          | GRADIENT NORM               0.002921325839 Eh/α |
          | HOMO-LUMO GAP               0.318776651747 eV   |
           -------------------------------------------------

 * finished run on 2024/06/05 at 19:57:59.401
