   * xtb version 6.6.1 (8d0f1dd) compiled by 'conda@1efc2f54142f' on 2023-08-01
          program call               : xtb struc.xyz --opt loose --input .xc1 --gfn2

   ID    Z sym.   atoms
    1    6 C      1, 3, 5-7, 10, 11, 14
    2    7 N      2, 4, 9, 13
    3    8 O      8, 12
    4    1 H      15-25
constraining bond 11 21 to    3.7133300 Å, actual value:    2.6553777 Å

          :  Hamiltonian                  GFN2-xTB          :
 * total energy  :   -44.2463387 Eh     change       -0.6650680E-10 Eh
 * total energy  :   -47.8933903 Eh     change       -0.3647052E+01 Eh
 * total energy  :   -53.3698192 Eh     change       -0.5476429E+01 Eh
 * total energy  :   -59.4246950 Eh     change       -0.6054876E+01 Eh
 * total energy  :   -58.2360947 Eh     change        0.1188600E+01 Eh
 * total energy  :   -59.5218663 Eh     change       -0.1285772E+01 Eh
 * total energy  :   -59.5411528 Eh     change       -0.1928649E-01 Eh
 * total energy  :   -59.5833382 Eh     change       -0.4218544E-01 Eh
 * total energy  :   -59.6066182 Eh     change       -0.2327997E-01 Eh
 * total energy  :   -59.6341392 Eh     change       -0.2752096E-01 Eh
 * total energy  :   -59.7355919 Eh     change       -0.9284466E-04 Eh
 * total energy  :   -59.7356779 Eh     change       -0.8597976E-04 Eh
 * total energy  :   -59.7351695 Eh     change        0.5083502E-03 Eh
 * total energy  :   -59.7357579 Eh     change       -0.5883473E-03 Eh
 * total energy  :   -59.7357994 Eh     change       -0.4149400E-04 Eh
 * total energy  :   -59.7358392 Eh     change       -0.3986987E-04 Eh
 * total energy  :   -59.7359249 Eh     change       -0.8567638E-04 Eh
 * total energy  :   -59.7359816 Eh     change       -0.5665477E-04 Eh
 * total energy  :   -59.7360253 Eh     change       -0.4371664E-04 Eh
   *** GEOMETRY OPTIMIZATION CONVERGED AFTER 50 ITERATIONS ***

 final structure:
================
25
 xtb: 6.6.1 (8d0f1dd)
C            3.22394417749923        1.13414410422277        0.07453088050250
N            2.21530140609689        0.10870466432451        0.06039844831021
C            2.44093298276715       -1.18972649997047       -0.00384944350523
N            1.27045096117356       -1.85774409537051        0.02879712837561
C            0.24219761191844       -0.95072874742044        0.12346653623870
C            0.85188821208550        0.32048175114952        0.13269351464352
C            0.18740953314675        1.59488430722157       -0.03225215136475
O            0.72091467287701        2.67350351988273       -0.16080157804216
N           -1.21494728033991        1.40769753955383       -0.09163438644118
C           -2.02205706666117        2.27860206266970       -0.54144152012019
C           -2.04119406574715       -0.13192003122354        0.79260596206396
O           -3.15807744087405       -0.23469486575351        0.31483139395884
N           -1.04359131989562       -1.23445678812934        0.18454722317377
C           -1.59673637327568       -2.52771941856397       -0.11728542247600
H            3.53848175438505        1.33767340151269        1.10165007917376
H            4.08879991816966        0.81375694944259       -0.50565884097171
H            2.81074163338749        2.05380997750482       -0.34117062851407
H            3.40716839288060       -1.64958480454388       -0.07989756859702
H           -1.69331762253520        3.24126259383730       -0.91611061762376
H           -3.07354897850219        2.02351489552984       -0.54383723273657
H           -1.87485827492028        0.01237306700407        1.15511427779138
H           -1.45462612627265       -3.22779898077223        0.71060897655577
H           -1.16365258845378       -2.93605346394923       -1.03059446083635
H           -2.66752438092183       -2.38044022491849       -0.27088100791813
H            1.16633177611226       -2.86130237164013       -0.01265794374120

          :  Hamiltonian                  GFN2-xTB          :
         :: total energy             -59.736025289445 Eh    ::
         :: gradient norm              0.003870358826 Eh/a0 ::
         :: HOMO-LUMO gap              2.048986548838 eV    ::
         :: SCC energy               -42.694089244537 Eh    ::
         :: -> dispersion             -0.022975616269 Eh    ::
         :: repulsion energy           2.275094657474 Eh    ::

    * Orbital Energies and Occupations

         #    Occupation            Energy/Eh            Energy/eV
      -------------------------------------------------------------
         1        2.0000           -0.9058236             -24.6487
       ...           ...                  ...                  ...
        25        2.0000           -0.6703879             -18.2422
        26        2.0000           -0.6625076             -18.0277
        27        1.9999           -0.6570096             -17.8781
        28        1.9998           -0.6363402             -17.3157
        29        1.9997           -0.6344848             -17.2652
        30        1.9996           -0.6298513             -17.1391
        31        1.9992           -0.6176052             -16.8059
        32        1.9991           -0.6149045             -16.7324
        33        1.9987           -0.6101877             -16.6041
        34        1.9900           -0.5773778             -15.7112
        35        1.9780           -0.5648557             -15.3705
        36        1.9505           -0.5518016             -15.0153
        37        1.8602           -0.5345982             -14.5472 (HOMO)
        38        0.2055           -0.4592993             -12.4982 (LUMO)
        39        0.0145           -0.4157601             -11.3134
        40        0.0050           -0.3988684             -10.8538
        41        0.0003           -0.3564447              -9.6994
        42        0.0000           -0.3060699              -8.3286
        43        0.0000           -0.2469388              -6.7195
        44                         -0.1888489              -5.1388
        45                         -0.1468781              -3.9968
        46                         -0.1015337              -2.7629
        47                         -0.0851728              -2.3177
        48                         -0.0374251              -1.0184
       ...                                ...                  ...
        67                         10.6385326             289.4892
      -------------------------------------------------------------
                  HL-Gap            0.0752989 Eh            2.0490 eV

     #   Z          covCN         q      C6AA      α(0)
     1   6 C        3.692    -0.094    22.491     6.786
     2   7 N        2.830     0.085    19.772     6.604
     3   6 C        3.025     0.058    26.684     8.473
     4   7 N        2.796    -0.068    22.558     7.054
     5   6 C        2.989     0.127    25.216     8.237
     6   6 C        3.097    -0.030    28.620     8.767
     7   6 C        2.771     0.279    22.276     7.730
     8   8 O        0.857    -0.347    20.650     6.093
     9   7 N        2.266    -0.142    24.384     7.330
    10   6 C        2.786     0.052    26.812     8.482
    11   6 C        3.103     0.204    23.564     7.954
    12   8 O        0.863    -0.340    20.512     6.072
    13   7 N        2.706    -0.108    23.373     7.180
    14   6 C        3.692    -0.065    21.930     6.701
    15   1 H        0.924     0.111     1.685     2.030
    16   1 H        0.925     0.101     1.777     2.085
    17   1 H        0.924     0.137     1.485     1.906
    18   1 H        0.926     0.122     1.597     1.976
    19   1 H        0.925     0.121     1.602     1.979
    20   1 H        0.925     0.135     1.496     1.912
    21   1 H        0.937     0.163     1.306     1.787
    22   1 H        0.924     0.078     2.005     2.214
    23   1 H        0.925     0.075     2.032     2.229
    24   1 H        0.924     0.119     1.621     1.991
    25   1 H        0.860     0.227     0.979     1.550

Wiberg/Mayer (AO) data.
largest (>0.10) Wiberg bond orders for each atom

     #   Z sym  total        # sym  WBO       # sym  WBO       # sym  WBO
 ---------------------------------------------------------------------------
     1   6 C    3.915 --     2 N    0.988    16 H    0.970    17 H    0.953
                            15 H    0.952
     2   7 N    3.700 --     3 C    1.417     6 C    1.149     1 C    0.988
     3   6 C    3.876 --     2 N    1.417     4 N    1.276    18 H    0.952
     4   7 N    3.585 --     3 C    1.276     5 C    1.160    25 H    0.920
     5   6 C    3.941 --    13 N    1.336     6 C    1.273     4 N    1.160
     6   6 C    3.867 --     5 C    1.273     2 N    1.149     7 C    1.100
     7   6 C    3.898 --     8 O    1.705     6 C    1.100     9 N    1.007
     8   8 O    2.001 --     7 C    1.705
     9   7 N    3.383 --    10 C    1.789     7 C    1.007    11 C    0.335
                            12 O    0.133
    10   6 C    3.757 --     9 N    1.789    20 H    0.945    19 H    0.940
    11   6 C    3.917 --    12 O    1.782    21 H    0.956    13 N    0.763
                             9 N    0.335
    12   8 O    2.118 --    11 C    1.782     9 N    0.133    13 N    0.125
    13   7 N    3.432 --     5 C    1.336    14 C    0.998    11 C    0.763
                            12 O    0.125
    14   6 C    3.932 --    13 N    0.998    23 H    0.968    24 H    0.960
                            22 H    0.960
    15   1 H    0.984 --     1 C    0.952
    16   1 H    0.988 --     1 C    0.970
    17   1 H    0.980 --     1 C    0.953
    18   1 H    0.984 --     3 C    0.952
    19   1 H    0.976 --    10 C    0.940
    20   1 H    0.976 --    10 C    0.945
    21   1 H    0.968 --    11 C    0.956
    22   1 H    0.980 --    14 C    0.960
    23   1 H    0.986 --    14 C    0.968
    24   1 H    0.983 --    14 C    0.960
    25   1 H    0.948 --     4 N    0.920
 ---------------------------------------------------------------------------

molecular dipole:
                 x           y           z       tot (Debye)
 q only:        2.099      -1.522       0.081
   full:        2.373      -1.793       0.067       7.562

           -------------------------------------------------
          | TOTAL ENERGY              -59.736025289445 Eh   |
          | GRADIENT NORM               0.003870358826 Eh/α |
          | HOMO-LUMO GAP               2.048986548838 eV   |
           -------------------------------------------------

 * finished run on 2024/06/05 at 19:58:35.254
