   * xtb version 6.6.1 (8d0f1dd) compiled by 'conda@1efc2f54142f' on 2023-08-01
          program call               : xtb struc.xyz --opt loose --input .xc1 --gfn2

   ID    Z sym.   atoms
    1    7 N      1, 17
    2    6 C      2-6, 8, 9, 11-16, 18-23, 25, 26, 28-33
    3    8 O      7, 10, 24, 27
    4    1 H      34-72
constraining bond 62 63 to    3.2800000 Å, actual value:    1.7769397 Å

          :  Hamiltonian                  GFN2-xTB          :
 * total energy  :   -99.0007452 Eh     change       -0.4035485E-08 Eh
 * total energy  :   -99.1614906 Eh     change       -0.1607454E+00 Eh
 * total energy  :   -99.2362090 Eh     change       -0.7471839E-01 Eh
 * total energy  :   -99.2560119 Eh     change       -0.1980288E-01 Eh
 * total energy  :   -99.2600181 Eh     change       -0.4006237E-02 Eh
 * total energy  :   -99.2609792 Eh     change       -0.9610754E-03 Eh
 * total energy  :   -99.2617751 Eh     change       -0.7959508E-03 Eh
 * total energy  :   -99.2623281 Eh     change       -0.5529198E-03 Eh
 * total energy  :   -99.2632142 Eh     change       -0.8861554E-03 Eh
 * total energy  :   -99.2652970 Eh     change       -0.2082786E-02 Eh
 * total energy  :   -99.3495890 Eh     change       -0.2097441E-03 Eh
 * total energy  :   -99.3497154 Eh     change       -0.1263868E-03 Eh
 * total energy  :   -99.3498402 Eh     change       -0.1248373E-03 Eh
 * total energy  :   -99.3499379 Eh     change       -0.9772555E-04 Eh
 * total energy  :   -99.3500602 Eh     change       -0.1222200E-03 Eh
 * total energy  :   -99.3501354 Eh     change       -0.7528916E-04 Eh
 * total energy  :   -99.3502185 Eh     change       -0.8310028E-04 Eh
 * total energy  :   -99.3502912 Eh     change       -0.7266127E-04 Eh
 * total energy  :   -99.3503385 Eh     change       -0.4725785E-04 Eh
   *** GEOMETRY OPTIMIZATION CONVERGED AFTER 36 ITERATIONS ***

 final structure:
================
72
 xtb: 6.6.1 (8d0f1dd)
N           -1.84607634969272        2.67956067335653        2.26385345807292
C           -1.75700450916362        2.07119242794579        1.17410465466270
C           -2.90487408664871        1.88108398035864        0.21677233191416
C           -3.41646446530845        0.45967587464774        0.31763441352651
C           -4.33830586235341       -0.02161226845165       -0.56964505988475
C           -4.85489231216832       -1.32298308322534       -0.49497724296112
O           -5.77314752037450       -1.83734097354092       -1.31688969801871
C           -6.37349348119581       -1.02906878028992       -2.30397818957276
C           -4.38480096037513       -2.21984806002260        0.53184544208078
O           -4.92408000149135       -3.45433629934527        0.46934757544029
C           -4.56368579336338       -4.40289052030607        1.44728702334513
C           -3.48145256037244       -1.78044157830843        1.44197798275148
C           -2.94174459324721       -0.39552160679758        1.43954860130988
C           -2.35232209360077        2.16710785758548       -1.20829708159388
C           -1.48147308919894        1.05339534883101       -1.81241983148466
C           -0.11246374009597        0.98650121208465       -1.23338247121472
N            0.52952274676958       -0.13334250961163       -0.92120194944481
C            1.89994362854429        0.00174152304995       -0.43336422383477
C            2.91221242780873       -0.25935014233994       -1.55931785167551
C            4.31010619198128       -0.06360520196597       -1.04135704346432
C            4.95986463963431        1.14965511964028       -1.19583461908514
C            6.23453625235004        1.34175488314923       -0.68592162716018
C            6.88342833715085        0.32281559763304       -0.00343266146591
O            8.11541915539906        0.39935098702781        0.53330112231298
C            8.87041834801231        1.57598000781325        0.35531809173306
C            6.22293660851823       -0.92594007950583        0.16332293759344
O            6.92323021034459       -1.86065031751828        0.83640998541163
C            6.35900263459874       -3.13489211556318        1.03438399842670
C            4.94987364584587       -1.09471737733182       -0.35737915940619
C            0.07238727154386       -1.37365733619419       -1.02981360641399
C           -4.10256150540007        2.84761659116293        0.50238390236233
C           -4.80188617672093        2.51788146029054        1.81912167778951
C           -3.69332020784842        4.31740870676859        0.49222025314506
H           -4.68700551277455        0.61889062699177       -1.36396308909765
H           -6.85555878932151       -0.15209550812566       -1.86303095349722
H           -7.12746531333892       -1.65656122266519       -2.77518410339498
H           -5.64725231731891       -0.71055750104019       -3.05790024583178
H           -4.83957845041586       -4.06616521040046        2.45073888916902
H           -5.12333791557138       -5.30290608857632        1.20067564228520
H           -3.49189573917454       -4.62139922263014        1.41623976227198
H           -3.12385470888601       -2.42348596949912        2.22913281550956
H           -3.19632527851761        0.09430913765980        2.39119237430478
H           -3.19529955014138        2.33680803383290       -1.87760860346483
H           -1.77212818302302        3.09004022250326       -1.17422573880722
H           -1.99453339896905        0.09882305788723       -1.70644229177899
H           -1.39414527981945        1.26293212411424       -2.88622029243147
H           -0.82093697039303        1.62730516931119        0.79357001159540
H            0.45290018301742        1.90246758282420       -1.18178433261909
H            2.06268118146916       -0.71298113544726        0.37627780238229
H            2.05175063506525        1.00847197931851       -0.03972421138493
H            2.71861437831255        0.43223389633184       -2.38106430607562
H            2.78302408703183       -1.27737070465571       -1.93022757587038
H            4.47894847622049        1.95645354565588       -1.72759884806556
H            6.71653823998278        2.29510215763646       -0.82679717914424
H            8.40404021872635        2.43073934960857        0.85517208444907
H            9.01116909158604        1.80438253400940       -0.70542046594562
H            9.83720545426674        1.37504866343142        0.81311547579523
H            7.10474658874184       -3.70185027736979        1.58843204359774
H            5.43754019681309       -3.07906402200962        1.62317232600856
H            6.15658402332556       -3.63658613012780        0.08302708220356
H            4.44481502106829       -2.04161102484372       -0.24817126239489
H           -0.87937667684816       -1.58437648311471       -1.47230856953193
H           -1.84302382996870       -0.44083912862181        1.44277098378457
H            0.67522420867807       -2.18427003215972       -0.67543725462244
H           -4.82269640188693        2.69108941511427       -0.30859712921548
H           -4.10597091066413        2.61793428595333        2.64561424707111
H           -5.21085312272743        1.51050874984185        1.80860523423691
H           -5.62212005011388        3.21325712333352        1.97575217560479
H           -2.97268489631253        4.51550376474063        1.27961461448828
H           -3.27124615691663        4.61489274331276       -0.46378576191471
H           -4.57124169647099        4.93213747248994        0.67373423688467
H           -0.99956802761418        2.76440354685797        2.81829812084940

          :  Hamiltonian                  GFN2-xTB          :
         :: total energy             -99.350338483568 Eh    ::
         :: gradient norm              0.001972414470 Eh/a0 ::
         :: HOMO-LUMO gap              0.969374288073 eV    ::
         :: SCC energy              -100.720697052673 Eh    ::
         :: -> dispersion             -0.074407509079 Eh    ::
         :: repulsion energy           1.369053510593 Eh    ::

    * Orbital Energies and Occupations

         #    Occupation            Energy/Eh            Energy/eV
      -------------------------------------------------------------
         1        2.0000           -0.8255147             -22.4634
       ...           ...                  ...                  ...
        78        1.9987           -0.5314256             -14.4608
        79        1.9986           -0.5305517             -14.4370
        80        1.9982           -0.5264712             -14.3260
        81        1.9981           -0.5256164             -14.3028
        82        1.9968           -0.5176053             -14.0848
        83        1.9968           -0.5174646             -14.0809
        84        1.9960           -0.5140635             -13.9884
        85        1.9954           -0.5116297             -13.9222
        86        1.9768           -0.4859724             -13.2240
        87        1.9722           -0.4830739             -13.1451
        88        1.9531           -0.4746100             -12.9148
        89        1.8364           -0.4538626             -12.3502
        90        1.6234           -0.4387071             -11.9378 (HOMO)
        91        0.6249           -0.4030833             -10.9685 (LUMO)
        92        0.0183           -0.3414055              -9.2901
        93        0.0141           -0.3372721              -9.1776
        94        0.0048           -0.3202053              -8.7132
        95        0.0025           -0.3096506              -8.4260
        96        0.0021           -0.3068627              -8.3502
        97        0.0000           -0.2328197              -6.3353
        98        0.0000           -0.1847385              -5.0270
        99                         -0.1151339              -3.1330
       100                         -0.0767974              -2.0898
       101                         -0.0712639              -1.9392
       ...                                ...                  ...
       171                          0.5792295              15.7616
      -------------------------------------------------------------
                  HL-Gap            0.0356238 Eh            0.9694 eV

     #   Z          covCN         q      C6AA      α(0)
     1   7 N        1.774    -0.277    28.011     7.837
     2   6 C        2.825     0.097    25.838     8.329
     3   6 C        3.906     0.005    20.430     6.425
     4   6 C        2.962     0.014    27.702     8.633
     5   6 C        2.903    -0.073    29.816     8.953
     6   6 C        2.861     0.136    25.035     8.201
     7   8 O        1.706    -0.199    17.316     5.618
     8   6 C        3.644     0.021    20.559     6.517
     9   6 C        2.850     0.133    25.078     8.208
    10   8 O        1.706    -0.235    17.892     5.711
    11   6 C        3.646     0.024    20.493     6.506
    12   6 C        2.901    -0.082    30.049     8.988
    13   6 C        3.813    -0.064    21.711     6.632
    14   6 C        3.809    -0.066    21.758     6.640
    15   6 C        3.801    -0.064    21.730     6.637
    16   6 C        2.860    -0.045    29.122     8.845
    17   7 N        2.730     0.086    19.754     6.601
    18   6 C        3.782    -0.018    20.914     6.514
    19   6 C        3.808    -0.068    21.804     6.647
    20   6 C        2.970     0.001    28.003     8.680
    21   6 C        2.922    -0.048    29.192     8.860
    22   6 C        2.914    -0.067    29.676     8.933
    23   6 C        2.865     0.133    25.082     8.209
    24   8 O        1.706    -0.222    17.685     5.678
    25   6 C        3.645     0.025    20.488     6.505
    26   6 C        2.863     0.133    25.088     8.210
    27   8 O        1.706    -0.225    17.728     5.685
    28   6 C        3.645     0.027    20.451     6.500
    29   6 C        2.920    -0.079    29.985     8.980
    30   6 C        2.812    -0.109    30.740     9.084
    31   6 C        3.852    -0.007    20.668     6.466
    32   6 C        3.755    -0.121    22.868     6.818
    33   6 C        3.755    -0.118    22.815     6.811
    34   1 H        0.926     0.061     2.188     2.313
    35   1 H        0.924     0.062     2.181     2.310
    36   1 H        0.925     0.088     1.894     2.152
    37   1 H        0.924     0.058     2.223     2.332
    38   1 H        0.924     0.054     2.276     2.359
    39   1 H        0.925     0.083     1.949     2.183
    40   1 H        0.924     0.049     2.330     2.387
    41   1 H        0.926     0.059     2.210     2.325
    42   1 H        0.923     0.095     1.829     2.115
    43   1 H        0.925     0.054     2.274     2.358
    44   1 H        0.924     0.054     2.271     2.357
    45   1 H        0.925     0.053     2.281     2.362
    46   1 H        0.924     0.064     2.153     2.295
    47   1 H        0.923     0.009     2.912     2.669
    48   1 H        0.926     0.050     2.320     2.382
    49   1 H        0.924     0.070     2.090     2.261
    50   1 H        0.924     0.065     2.138     2.287
    51   1 H        0.924     0.057     2.239     2.340
    52   1 H        0.924     0.059     2.205     2.322
    53   1 H        0.926     0.047     2.353     2.399
    54   1 H        0.926     0.059     2.214     2.327
    55   1 H        0.924     0.055     2.263     2.353
    56   1 H        0.924     0.056     2.248     2.345
    57   1 H        0.925     0.082     1.957     2.188
    58   1 H        0.925     0.081     1.964     2.191
    59   1 H        0.924     0.048     2.343     2.394
    60   1 H        0.924     0.053     2.282     2.362
    61   1 H        0.926     0.048     2.345     2.395
    62   1 H        0.926     0.054     2.268     2.355
    63   1 H        0.923     0.070     2.083     2.257
    64   1 H        0.926     0.055     2.257     2.349
    65   1 H        0.924     0.036     2.501     2.473
    66   1 H        0.925     0.069     2.094     2.263
    67   1 H        0.925     0.032     2.557     2.501
    68   1 H        0.925     0.053     2.278     2.360
    69   1 H        0.925     0.060     2.194     2.316
    70   1 H        0.925     0.037     2.488     2.467
    71   1 H        0.925     0.055     2.260     2.351
    72   1 H        0.860     0.155     1.364     1.830

Wiberg/Mayer (AO) data.
largest (>0.10) Wiberg bond orders for each atom

     #   Z sym  total        # sym  WBO       # sym  WBO       # sym  WBO
 ---------------------------------------------------------------------------
     1   7 N    3.018 --     2 C    1.955    72 H    0.943
     2   6 C    3.930 --     1 N    1.955     3 C    0.994    47 H    0.914
     3   6 C    3.976 --     2 C    0.994     4 C    0.988    14 C    0.954
                            31 C    0.929
     4   6 C    3.736 --     5 C    1.547    13 C    1.043     3 C    0.988
     5   6 C    3.976 --     4 C    1.547     6 C    1.292    34 H    0.954
     6   6 C    3.690 --     5 C    1.292     7 O    1.150     9 C    1.131
     7   8 O    2.269 --     6 C    1.150     8 C    0.971
     8   6 C    3.925 --    36 H    0.976    35 H    0.972    37 H    0.971
                             7 O    0.971
     9   6 C    3.936 --    12 C    1.579     6 C    1.131    10 O    1.094
    10   8 O    2.261 --     9 C    1.094    11 C    0.976    12 C    0.107
    11   6 C    3.931 --    39 H    0.977    10 O    0.976    40 H    0.975
                            38 H    0.974
    12   6 C    3.803 --     9 C    1.579    13 C    1.047    41 H    0.963
                            10 O    0.107
    13   6 C    3.984 --    12 C    1.047     4 C    1.043    63 H    0.918
                            42 H    0.906
    14   6 C    3.971 --    15 C    0.990    44 H    0.971    43 H    0.970
                             3 C    0.954
    15   6 C    3.987 --    16 C    1.044    14 C    0.990    45 H    0.960
                            46 H    0.941
    16   6 C    3.687 --    17 N    1.348    15 C    1.044    48 H    0.961
                            30 C    0.239
    17   7 N    3.737 --    30 C    1.361    16 C    1.348    18 C    0.966
    18   6 C    3.955 --    19 C    0.977    50 H    0.970    49 H    0.967
                            17 N    0.966
    19   6 C    3.987 --    20 C    1.007    18 C    0.977    51 H    0.972
                            52 H    0.969
    20   6 C    3.943 --    21 C    1.411    29 C    1.380    19 C    1.007
    21   6 C    3.949 --    22 C    1.416    20 C    1.411    53 H    0.968
    22   6 C    3.958 --    21 C    1.416    23 C    1.384    54 H    0.963
    23   6 C    3.894 --    22 C    1.384    26 C    1.219    24 O    1.110
    24   8 O    2.253 --    23 C    1.110    25 C    0.976
    25   6 C    3.928 --    57 H    0.977    24 O    0.976    56 H    0.973
                            55 H    0.972
    26   6 C    3.897 --    29 C    1.396    23 C    1.219    27 O    1.103
    27   8 O    2.253 --    26 C    1.103    28 C    0.979
    28   6 C    3.932 --    27 O    0.979    58 H    0.977    59 H    0.973
                            60 H    0.973
    29   6 C    3.959 --    26 C    1.396    20 C    1.380    61 H    0.962
    30   6 C    3.619 --    17 N    1.361    64 H    0.976    62 H    0.970
                            16 C    0.239
    31   6 C    3.965 --    33 C    1.010    32 C    1.009    65 H    0.962
                             3 C    0.929
    32   6 C    3.982 --    31 C    1.009    67 H    0.983    68 H    0.981
                            66 H    0.974
    33   6 C    3.984 --    31 C    1.010    70 H    0.983    71 H    0.979
                            69 H    0.978
    34   1 H    0.995 --     5 C    0.954
    35   1 H    0.990 --     8 C    0.972
    36   1 H    0.992 --     8 C    0.976
    37   1 H    0.990 --     8 C    0.971
    38   1 H    0.995 --    11 C    0.974
    39   1 H    0.993 --    11 C    0.977
    40   1 H    0.996 --    11 C    0.975
    41   1 H    0.995 --    12 C    0.963
    42   1 H    0.951 --    13 C    0.906
    43   1 H    0.996 --    14 C    0.970
    44   1 H    0.996 --    14 C    0.971
    45   1 H    0.996 --    15 C    0.960
    46   1 H    0.977 --    15 C    0.941
    47   1 H    0.986 --     2 C    0.914
    48   1 H    0.997 --    16 C    0.961
    49   1 H    0.994 --    18 C    0.967
    50   1 H    0.996 --    18 C    0.970
    51   1 H    0.996 --    19 C    0.972
    52   1 H    0.995 --    19 C    0.969
    53   1 H    0.997 --    21 C    0.968
    54   1 H    0.995 --    22 C    0.963
    55   1 H    0.991 --    25 C    0.972
    56   1 H    0.992 --    25 C    0.973
    57   1 H    0.992 --    25 C    0.977
    58   1 H    0.993 --    28 C    0.977
    59   1 H    0.993 --    28 C    0.973
    60   1 H    0.993 --    28 C    0.973
    61   1 H    0.996 --    29 C    0.962
    62   1 H    0.997 --    30 C    0.970
    63   1 H    0.962 --    13 C    0.918
    64   1 H    0.997 --    30 C    0.976
    65   1 H    0.994 --    31 C    0.962
    66   1 H    0.992 --    32 C    0.974
    67   1 H    0.998 --    32 C    0.983
    68   1 H    0.995 --    32 C    0.981
    69   1 H    0.994 --    33 C    0.978
    70   1 H    0.997 --    33 C    0.983
    71   1 H    0.994 --    33 C    0.979
    72   1 H    0.971 --     1 N    0.943
 ---------------------------------------------------------------------------

molecular dipole:
                 x           y           z       tot (Debye)
 q only:       -0.293      -0.109      -0.400
   full:        0.034      -0.157      -0.586       1.546

           -------------------------------------------------
          | TOTAL ENERGY              -99.350338483568 Eh   |
          | GRADIENT NORM               0.001972414470 Eh/α |
          | HOMO-LUMO GAP               0.969374288073 eV   |
           -------------------------------------------------

 * finished run on 2024/04/06 at 11:15:17.591
