   * xtb version 6.6.1 (8d0f1dd) compiled by 'conda@1efc2f54142f' on 2023-08-01
          program call               : xtb xtbopt.xyz --opt crude --input .xc2 --gfn2

   ID    Z sym.   atoms
    1    6 C      1, 3, 5-7, 10, 11, 14
    2    7 N      2, 4, 9, 13
    3    8 O      8, 12
    4    1 H      15-25

          :  Hamiltonian                  GFN2-xTB          :
 * total energy  :   -42.1249554 Eh     change       -0.7247536E-12 Eh
   *** GEOMETRY OPTIMIZATION CONVERGED AFTER 1 ITERATIONS ***

 final structure:
================
25
 xtb: 6.6.1 (8d0f1dd)
C            3.16950454554105        1.32859782402178        0.01712177472079
N            2.25996653035927        0.21802550860778       -0.00186949190873
C            2.59672376185195       -1.07526986013971       -0.00842617008878
N            1.45467119976762       -1.80372585643223       -0.00827432619539
C            0.37806009566720       -0.96851188192196       -0.00012943625137
C            0.88662966908953        0.32658351779229        0.00459270021111
C            0.02317913262229        1.47926999902795       -0.00585827690046
O            0.37833856761975        2.63885560464692       -0.02459672207118
N           -1.32765703373984        1.11125040211330        0.00256515850601
C           -2.31304185516727        2.17764863152860        0.00267664718938
C           -1.85078026209285       -0.17104998662350        0.00558884282632
O           -3.03807011858957       -0.37155794585970        0.01076135390920
N           -0.94204594713225       -1.24139704438444        0.00070085181039
C           -1.44942181838795       -2.59675245289835       -0.00548907981726
H            3.66723359092884        1.39697840235061        0.98785186120376
H            3.93943434565333        1.19238581356617       -0.74365365771334
H            2.61868574166352        2.25086445605047       -0.16610347307395
H            3.71099951623448       -3.78251445950582       -0.00914629525181
H           -1.78629811704517        3.13086966035728        0.01207244056946
H           -2.94427104298594        2.10424249213392       -0.88515854250652
H           -2.95565560660144        2.09112248805475        0.88100633377402
H           -1.10962683504460       -3.13492125041935        0.88105344174614
H           -1.12251655822625       -3.12197358515159       -0.90465971671196
H           -2.53820668584748       -2.54695130835145        0.00256146551428
H            1.45459669796182       -2.81383062696359       -0.01401606559006

          :  Hamiltonian                  GFN2-xTB          :
         :: total energy             -42.124955443336 Eh    ::
         :: gradient norm              0.003055604144 Eh/a0 ::
         :: HOMO-LUMO gap              1.115317871018 eV    ::
         :: SCC energy               -42.626722711361 Eh    ::
         :: -> dispersion             -0.022559445695 Eh    ::
         :: repulsion energy           0.501666364503 Eh    ::

    * Orbital Energies and Occupations

         #    Occupation            Energy/Eh            Energy/eV
      -------------------------------------------------------------
         1        2.0000           -0.9009051             -24.5149
       ...           ...                  ...                  ...
        25        1.9974           -0.6727100             -18.3054
        26        1.9971           -0.6705016             -18.2453
        27        1.9933           -0.6504504             -17.6997
        28        1.9895           -0.6399495             -17.4139
        29        1.9840           -0.6297240             -17.1357
        30        1.9773           -0.6214165             -16.9096
        31        1.9765           -0.6205389             -16.8857
        32        1.9624           -0.6092378             -16.5782
        33        1.9463           -0.6005782             -16.3426
        34        1.8958           -0.5841841             -15.8965
        35        1.8869           -0.5821243             -15.8404
        36        1.7259           -0.5589848             -15.2107
        37        1.6639           -0.5532719             -15.0553 (HOMO)
        38        0.9369           -0.5122847             -13.9400 (LUMO)
        39        0.0526           -0.4295215             -11.6879
        40        0.0150           -0.3992686             -10.8647
        41        0.0063           -0.3786567             -10.3038
        42        0.0002           -0.3012605              -8.1977
        43        0.0000           -0.2171461              -5.9088
        44        0.0000           -0.1709638              -4.6522
        45        0.0000           -0.1482181              -4.0332
        46        0.0000           -0.1391875              -3.7875
        47                         -0.0710396              -1.9331
        48                         -0.0459659              -1.2508
       ...                                ...                  ...
        67                          0.5249313              14.2841
      -------------------------------------------------------------
                  HL-Gap            0.0409872 Eh            1.1153 eV

     #   Z          covCN         q      C6AA      α(0)
     1   6 C        3.692    -0.083    22.275     6.754
     2   7 N        2.843     0.079    19.865     6.620
     3   6 C        2.073    -0.046    32.155     9.160
     4   7 N        2.809    -0.058    22.357     7.023
     5   6 C        3.017     0.115    25.455     8.276
     6   6 C        3.094    -0.010    28.152     8.696
     7   6 C        2.764     0.270    22.447     7.759
     8   8 O        0.858    -0.331    20.357     6.049
     9   7 N        2.745    -0.069    22.572     7.056
    10   6 C        3.708    -0.061    21.822     6.677
    11   6 C        2.729     0.317    21.618     7.612
    12   8 O        0.860    -0.334    20.402     6.056
    13   7 N        2.738    -0.041    22.035     6.972
    14   6 C        3.697    -0.071    22.030     6.714
    15   1 H        0.924     0.118     1.631     1.997
    16   1 H        0.924     0.119     1.621     1.991
    17   1 H        0.925     0.127     1.559     1.952
    18   1 H        0.000     0.047     5.877     4.433
    19   1 H        0.925     0.128     1.550     1.947
    20   1 H        0.924     0.117     1.634     1.999
    21   1 H        0.924     0.118     1.632     1.998
    22   1 H        0.924     0.098     1.805     2.101
    23   1 H        0.924     0.098     1.803     2.100
    24   1 H        0.925     0.132     1.519     1.927
    25   1 H        0.860     0.221     1.004     1.570

Wiberg/Mayer (AO) data.
largest (>0.10) Wiberg bond orders for each atom

     #   Z sym  total        # sym  WBO       # sym  WBO       # sym  WBO
 ---------------------------------------------------------------------------
     1   6 C    3.876 --     2 N    1.000    17 H    0.950    16 H    0.947
                            15 H    0.938
     2   7 N    3.626 --     3 C    1.358     6 C    1.157     1 C    1.000
     3   6 C    2.814 --     2 N    1.358     4 N    1.281
     4   7 N    3.564 --     3 C    1.281     5 C    1.198    25 H    0.918
     5   6 C    3.878 --     6 C    1.311     4 N    1.198    13 N    1.197
     6   6 C    3.805 --     5 C    1.311     2 N    1.157     7 C    1.084
     7   6 C    3.920 --     8 O    1.658     9 N    1.084     6 C    1.084
     8   8 O    1.941 --     7 C    1.658     9 N    0.119
     9   7 N    3.484 --    11 C    1.117     7 C    1.084    10 C    0.979
                             8 O    0.119    12 O    0.117
    10   6 C    3.853 --     9 N    0.979    19 H    0.951    21 H    0.941
                            20 H    0.940
    11   6 C    3.941 --    12 O    1.674     9 N    1.117    13 N    1.058
    12   8 O    1.972 --    11 C    1.674     9 N    0.117    13 N    0.107
    13   7 N    3.487 --     5 C    1.197    11 C    1.058    14 C    0.979
                            12 O    0.107
    14   6 C    3.893 --    13 N    0.979    22 H    0.957    23 H    0.957
                            24 H    0.956
    15   1 H    0.963 --     1 C    0.938
    16   1 H    0.966 --     1 C    0.947
    17   1 H    0.971 --     1 C    0.950
    18   1 H    0.018
    19   1 H    0.969 --    10 C    0.951
    20   1 H    0.957 --    10 C    0.940
    21   1 H    0.958 --    10 C    0.941
    22   1 H    0.974 --    14 C    0.957
    23   1 H    0.973 --    14 C    0.957
    24   1 H    0.976 --    14 C    0.956
    25   1 H    0.949 --     4 N    0.918
 ---------------------------------------------------------------------------

molecular dipole:
                 x           y           z       tot (Debye)
 q only:        1.293      -1.318       0.012
   full:        1.091      -1.569       0.021       4.859

           -------------------------------------------------
          | TOTAL ENERGY              -42.124955443336 Eh   |
          | GRADIENT NORM               0.003055604144 Eh/α |
          | HOMO-LUMO GAP               1.115317871018 eV   |
           -------------------------------------------------

 * finished run on 2024/06/05 at 19:58:41.979
