   * xtb version 6.6.1 (8d0f1dd) compiled by 'conda@1efc2f54142f' on 2023-08-01
          program call               : xtb struc.xyz --opt loose --input .xc1 --gfn2

   ID    Z sym.   atoms
    1    7 N      1, 17
    2    6 C      2-6, 8, 9, 11-16, 18-23, 25, 26, 28-33
    3    8 O      7, 10, 24, 27
    4    1 H      34-72
constraining bond 21 26 to    6.0000000 Å, actual value:    2.7820703 Å

          :  Hamiltonian                  GFN2-xTB          :
 * total energy  :   -97.5551996 Eh     change       -0.4035485E-08 Eh
 * total energy  :   -97.9361749 Eh     change       -0.3809752E+00 Eh
 * total energy  :   -98.1781665 Eh     change       -0.2419917E+00 Eh
 * total energy  :   -98.3185378 Eh     change       -0.1403713E+00 Eh
 * total energy  :   -98.3949320 Eh     change       -0.7639413E-01 Eh
 * total energy  :   -98.4346913 Eh     change       -0.3975933E-01 Eh
 * total energy  :   -98.4550953 Eh     change       -0.2040397E-01 Eh
 * total energy  :   -98.4721672 Eh     change       -0.1707191E-01 Eh
 * total energy  :   -98.5036338 Eh     change       -0.3146658E-01 Eh
 * total energy  :   -98.5338960 Eh     change       -0.3026226E-01 Eh
 * total energy  :   -99.3734229 Eh     change       -0.1156361E-03 Eh
 * total energy  :   -99.3735277 Eh     change       -0.1047732E-03 Eh
 * total energy  :   -99.3736632 Eh     change       -0.1355600E-03 Eh
 * total energy  :   -99.3738018 Eh     change       -0.1385891E-03 Eh
 * total energy  :   -99.3739442 Eh     change       -0.1423492E-03 Eh
 * total energy  :   -99.3740815 Eh     change       -0.1373435E-03 Eh
 * total energy  :   -99.3742006 Eh     change       -0.1190451E-03 Eh
 * total energy  :   -99.3742826 Eh     change       -0.8205886E-04 Eh
 * total energy  :   -99.3743293 Eh     change       -0.4673033E-04 Eh
   *** GEOMETRY OPTIMIZATION CONVERGED AFTER 122 ITERATIONS ***

 final structure:
================
72
 xtb: 6.6.1 (8d0f1dd)
N           -1.31545613591579        3.18530172634077        1.74621739694403
C           -1.49542193960584        2.08887354159727        1.16893734111055
C           -2.52465611132668        1.88642937089259        0.08812496337880
C           -3.20012451478981        0.53518755970740        0.24488622332187
C           -3.92174332848579       -0.01026561343862       -0.81910626775068
C           -4.58315691387960       -1.22149294336513       -0.70575618969070
O           -5.30317702575197       -1.80787144935266       -1.68508764516573
C           -5.53348214118928       -1.10636613742150       -2.88428072808625
C           -4.52641251953528       -1.93750071364594        0.52040787312439
O           -5.17826840100918       -3.11675734681768        0.53570236825026
C           -5.24943138340731       -3.84554872959429        1.73991774483628
C           -3.83395772165280       -1.37861491961005        1.58279020866951
C           -3.18560716850030       -0.15717577304176        1.44741348230022
C           -1.75019453396255        1.97338069583299       -1.25400061118565
C           -0.85657829116782        0.75951341953924       -1.58796224951642
C            0.37760807262853        0.67348426603034       -0.76024632408737
N            0.65019717368259       -0.38549290693494       -0.00986333215029
C            1.83873401325974       -0.46732801881089        0.83118115752157
C            2.88692881582899       -1.35277394000167        0.22715070236711
C            4.19352605979177       -1.04161388426904        0.08454941605701
C            1.33663789801420        1.80764200893575       -0.85231681563063
C            4.88613558040034        0.18891361865327        0.41513832294413
C            6.21232009058424        0.01755984382961        0.14718210007496
O            7.25209881222422        0.83757630675195        0.28051945270034
C            6.99802890913322        2.12900699324788        0.78944505168247
C            6.41177846024791       -1.34541721503439       -0.37375445796175
O            7.63304182633907       -1.76054172243800       -0.69926042979967
C            7.76397450845908       -3.08853602402488       -1.16215825143455
C            5.19777345448887       -1.96144334124696       -0.42017850955477
C           -0.19580274389045       -1.56015901138174        0.00516066358445
C           -3.65211284792584        2.96624597101722        0.10183584066387
C           -4.35465452178352        3.01248455058424        1.45683625164357
C           -3.17679716691854        4.36796736847128       -0.27174465138888
H           -3.98311921364174        0.53071574432197       -1.74875615761023
H           -6.03298410928461       -0.15044027867300       -2.69888724942559
H           -6.18694664948182       -1.74480042044263       -3.47519510788145
H           -4.60418498712387       -0.93364406195234       -3.43720011054797
H           -5.75674991164778       -3.27376004573277        2.52273602827220
H           -5.83112201548329       -4.73556973603215        1.50839864882914
H           -4.25585852415704       -4.14364509352497        2.08967560795474
H           -3.80278491295060       -1.88059310737227        2.53618345889174
H           -2.69025893266104        0.25770491915797        2.31183257726302
H           -2.47428679482975        2.07827667526227       -2.06176273197006
H           -1.14675549422444        2.87926275957437       -1.23623069170470
H           -1.45617830570501       -0.14523111734581       -1.52802432643955
H           -0.54073927235478        0.88472416540980       -2.62968410492408
H           -0.88400096329855        1.19550043684144        1.36593231828876
H            1.35445414598121        2.40128060839071        0.06389676444834
H            1.52106636383568       -0.88856188021183        1.79431074401201
H            2.23775361247508        0.52577969752213        1.01891548539147
H            2.34867905124056        1.44622793785697       -1.03854808156091
H            2.55708806149753       -2.33596534114325       -0.07508695759299
H            1.05513439529560        2.46900619169093       -1.66621871467995
H            4.42505117356700        1.07042178382435        0.81585701834317
H            6.53652396282083        2.07748050273673        1.77991943454517
H            6.34674826313432        2.69363190631384        0.11490301462024
H            7.96472579007159        2.62258046858590        0.86176874508956
H            8.82640127580598       -3.24238113269440       -1.33953724892073
H            7.40816933235137       -3.80110835710971       -0.41286645206022
H            7.20883263598171       -3.23562161636722       -2.09284879469139
H            4.97930823818068       -2.95990298073316       -0.74381852346834
H           -0.28386689808896       -1.99320482526832       -0.99239383312923
H           -1.19548557999010       -1.32024968421825        0.37769631926702
H            0.24392139877955       -2.30671518586221        0.66137368351393
H           -4.38729429907747        2.64510992100054       -0.64553220026714
H           -3.67947319893917        3.39527384729407        2.21638016335068
H           -4.70365214015363        2.02666426291840        1.75519554537572
H           -5.21465947439705        3.67425195999932        1.39961496477777
H           -2.38383312247643        4.68515749154391        0.39754144175684
H           -2.82775805859427        4.42165920815331       -1.29927427304973
H           -4.00905645015118        5.05974093688202       -0.17004305447682
H           -0.57804105979160        3.23041541086476        2.44336139531735

          :  Hamiltonian                  GFN2-xTB          :
         :: total energy             -99.374329348651 Eh    ::
         :: gradient norm              0.001638316088 Eh/a0 ::
         :: HOMO-LUMO gap              1.747114420514 eV    ::
         :: SCC energy              -100.751082383832 Eh    ::
         :: -> dispersion             -0.077082196392 Eh    ::
         :: repulsion energy           1.375132180589 Eh    ::

    * Orbital Energies and Occupations

         #    Occupation            Energy/Eh            Energy/eV
      -------------------------------------------------------------
         1        2.0000           -0.8124106             -22.1068
       ...           ...                  ...                  ...
        78        1.9987           -0.5347949             -14.5525
        79        1.9984           -0.5312920             -14.4572
        80        1.9984           -0.5306241             -14.4390
        81        1.9983           -0.5302020             -14.4275
        82        1.9974           -0.5232856             -14.2393
        83        1.9958           -0.5158264             -14.0364
        84        1.9952           -0.5137532             -13.9799
        85        1.9945           -0.5114743             -13.9179
        86        1.9802           -0.4911188             -13.3640
        87        1.9350           -0.4719263             -12.8418
        88        1.9296           -0.4706288             -12.8065
        89        1.8707           -0.4605068             -12.5310
        90        1.8394           -0.4568036             -12.4303 (HOMO)
        91        0.3314           -0.3925983             -10.6831 (LUMO)
        92        0.1237           -0.3751433             -10.2082
        93        0.0147           -0.3405136              -9.2658
        94        0.0035           -0.3177668              -8.6469
        95        0.0030           -0.3149995              -8.5716
        96        0.0000           -0.2333591              -6.3500
        97        0.0000           -0.2270592              -6.1786
        98        0.0000           -0.1925236              -5.2388
        99                         -0.1396811              -3.8009
       100                         -0.0733491              -1.9959
       101                         -0.0695791              -1.8933
       ...                                ...                  ...
       171                          0.6137159              16.7001
      -------------------------------------------------------------
                  HL-Gap            0.0642053 Eh            1.7471 eV

     #   Z          covCN         q      C6AA      α(0)
     1   7 N        1.774    -0.281    28.097     7.849
     2   6 C        2.826     0.100    25.766     8.318
     3   6 C        3.907     0.006    20.416     6.423
     4   6 C        2.973    -0.003    28.103     8.696
     5   6 C        2.921    -0.082    30.048     8.989
     6   6 C        2.862     0.129    25.178     8.225
     7   8 O        1.706    -0.231    17.832     5.701
     8   6 C        3.644     0.028    20.438     6.498
     9   6 C        2.864     0.129    25.174     8.224
    10   8 O        1.706    -0.228    17.789     5.695
    11   6 C        3.645     0.027    20.461     6.501
    12   6 C        2.913    -0.075    29.861     8.961
    13   6 C        2.922    -0.054    29.335     8.882
    14   6 C        3.811    -0.064    21.717     6.633
    15   6 C        3.804    -0.078    21.995     6.677
    16   6 C        2.888     0.070    26.441     8.430
    17   7 N        2.733     0.007    21.144     6.829
    18   6 C        3.752    -0.018    20.952     6.528
    19   6 C        2.894    -0.063    29.566     8.915
    20   6 C        3.072     0.013    27.650     8.622
    21   6 C        3.756    -0.127    22.990     6.836
    22   6 C        2.982    -0.109    30.738     9.094
    23   6 C        2.972     0.138    24.985     8.199
    24   8 O        1.705    -0.211    17.503     5.649
    25   6 C        3.657     0.024    20.454     6.492
    26   6 C        2.964     0.138    24.991     8.200
    27   8 O        1.704    -0.210    17.493     5.647
    28   6 C        3.657     0.023    20.484     6.497
    29   6 C        2.990    -0.103    30.575     9.070
    30   6 C        3.700    -0.071    22.030     6.712
    31   6 C        3.854    -0.007    20.668     6.466
    32   6 C        3.756    -0.115    22.753     6.801
    33   6 C        3.755    -0.123    22.907     6.824
    34   1 H        0.926     0.051     2.312     2.378
    35   1 H        0.924     0.053     2.280     2.361
    36   1 H        0.925     0.081     1.967     2.193
    37   1 H        0.924     0.046     2.368     2.407
    38   1 H        0.924     0.056     2.251     2.346
    39   1 H        0.925     0.081     1.966     2.193
    40   1 H        0.924     0.049     2.331     2.388
    41   1 H        0.926     0.053     2.286     2.364
    42   1 H        0.926     0.041     2.435     2.440
    43   1 H        0.925     0.062     2.173     2.305
    44   1 H        0.925     0.062     2.171     2.304
    45   1 H        0.925     0.067     2.124     2.279
    46   1 H        0.924     0.078     2.000     2.212
    47   1 H        0.923    -0.002     3.099     2.753
    48   1 H        0.924     0.076     2.020     2.222
    49   1 H        0.923     0.072     2.059     2.244
    50   1 H        0.925     0.078     1.998     2.210
    51   1 H        0.924     0.081     1.964     2.192
    52   1 H        0.926     0.049     2.326     2.385
    53   1 H        0.925     0.079     1.993     2.208
    54   1 H        0.926     0.036     2.507     2.476
    55   1 H        0.924     0.056     2.248     2.345
    56   1 H        0.924     0.054     2.270     2.356
    57   1 H        0.925     0.084     1.942     2.179
    58   1 H        0.925     0.084     1.941     2.179
    59   1 H        0.924     0.059     2.213     2.327
    60   1 H        0.924     0.058     2.219     2.329
    61   1 H        0.926     0.050     2.325     2.384
    62   1 H        0.924     0.075     2.032     2.229
    63   1 H        0.924     0.077     2.010     2.217
    64   1 H        0.925     0.084     1.935     2.175
    65   1 H        0.924     0.037     2.494     2.470
    66   1 H        0.925     0.059     2.216     2.328
    67   1 H        0.925     0.035     2.520     2.483
    68   1 H        0.925     0.051     2.312     2.378
    69   1 H        0.925     0.070     2.085     2.258
    70   1 H        0.925     0.035     2.511     2.478
    71   1 H        0.925     0.054     2.266     2.354
    72   1 H        0.860     0.150     1.400     1.853

Wiberg/Mayer (AO) data.
largest (>0.10) Wiberg bond orders for each atom

     #   Z sym  total        # sym  WBO       # sym  WBO       # sym  WBO
 ---------------------------------------------------------------------------
     1   7 N    3.013 --     2 C    1.948    72 H    0.945
     2   6 C    3.939 --     1 N    1.948     3 C    0.994    47 H    0.930
     3   6 C    3.977 --     2 C    0.994     4 C    0.982    14 C    0.951
                            31 C    0.939
     4   6 C    3.949 --    13 C    1.410     5 C    1.369     3 C    0.982
     5   6 C    3.962 --     6 C    1.401     4 C    1.369    34 H    0.957
     6   6 C    3.905 --     5 C    1.401     9 C    1.222     7 O    1.098
     7   8 O    2.252 --     6 C    1.098     8 C    0.978
     8   6 C    3.933 --     7 O    0.978    36 H    0.977    35 H    0.974
                            37 H    0.973
     9   6 C    3.902 --    12 C    1.391     6 C    1.222    10 O    1.103
    10   8 O    2.253 --     9 C    1.103    11 C    0.977
    11   6 C    3.931 --    39 H    0.977    10 O    0.977    40 H    0.973
                            38 H    0.973
    12   6 C    3.962 --    13 C    1.403     9 C    1.391    41 H    0.964
    13   6 C    3.954 --     4 C    1.410    12 C    1.403    42 H    0.963
    14   6 C    3.967 --    15 C    0.972    44 H    0.970    43 H    0.965
                             3 C    0.951
    15   6 C    3.987 --    16 C    1.042    14 C    0.972    45 H    0.962
                            46 H    0.940
    16   6 C    3.648 --    17 N    1.424    21 C    1.048    15 C    1.042
    17   7 N    3.500 --    16 C    1.424    30 C    0.996    18 C    0.966
    18   6 C    3.954 --    19 C    1.009    17 N    0.966    50 H    0.960
                            49 H    0.944
    19   6 C    3.855 --    20 C    1.645    18 C    1.009    52 H    0.963
    20   6 C    3.952 --    19 C    1.645    22 C    1.116    29 C    1.109
    21   6 C    3.986 --    16 C    1.048    53 H    0.975    51 H    0.957
                            48 H    0.948
    22   6 C    3.840 --    23 C    1.543    20 C    1.116    54 H    0.967
                            24 O    0.102
    23   6 C    3.870 --    22 C    1.543    24 O    1.136    26 C    1.039
    24   8 O    2.289 --    23 C    1.136    25 C    0.971    22 C    0.102
    25   6 C    3.928 --    57 H    0.978    55 H    0.974    56 H    0.974
                            24 O    0.971
    26   6 C    3.866 --    29 C    1.546    27 O    1.136    23 C    1.039
    27   8 O    2.284 --    26 C    1.136    28 C    0.969    29 C    0.101
    28   6 C    3.925 --    58 H    0.978    59 H    0.974    60 H    0.973
                            27 O    0.969
    29   6 C    3.833 --    26 C    1.546    20 C    1.109    61 H    0.969
                            27 O    0.101
    30   6 C    3.956 --    17 N    0.996    64 H    0.976    62 H    0.969
                            63 H    0.958
    31   6 C    3.975 --    32 C    1.009    33 C    1.008    65 H    0.961
                             3 C    0.939
    32   6 C    3.983 --    31 C    1.009    68 H    0.982    67 H    0.981
                            66 H    0.979
    33   6 C    3.979 --    31 C    1.008    70 H    0.983    71 H    0.979
                            69 H    0.973
    34   1 H    0.996 --     5 C    0.957
    35   1 H    0.993 --     8 C    0.974
    36   1 H    0.993 --     8 C    0.977
    37   1 H    0.994 --     8 C    0.973
    38   1 H    0.992 --    11 C    0.973
    39   1 H    0.993 --    11 C    0.977
    40   1 H    0.993 --    11 C    0.973
    41   1 H    0.995 --    12 C    0.964
    42   1 H    0.998 --    13 C    0.963
    43   1 H    0.994 --    14 C    0.965
    44   1 H    0.995 --    14 C    0.970
    45   1 H    0.995 --    15 C    0.962
    46   1 H    0.979 --    15 C    0.940
    47   1 H    0.987 --     2 C    0.930
    48   1 H    0.979 --    21 C    0.948
    49   1 H    0.980 --    18 C    0.944
    50   1 H    0.993 --    18 C    0.960
    51   1 H    0.983 --    21 C    0.957
    52   1 H    0.997 --    19 C    0.963
    53   1 H    0.993 --    21 C    0.975
    54   1 H    0.998 --    22 C    0.967
    55   1 H    0.993 --    25 C    0.974
    56   1 H    0.991 --    25 C    0.974
    57   1 H    0.992 --    25 C    0.978
    58   1 H    0.992 --    28 C    0.978
    59   1 H    0.992 --    28 C    0.974
    60   1 H    0.992 --    28 C    0.973
    61   1 H    0.996 --    29 C    0.969
    62   1 H    0.988 --    30 C    0.969
    63   1 H    0.988 --    30 C    0.958
    64   1 H    0.993 --    30 C    0.976
    65   1 H    0.993 --    31 C    0.961
    66   1 H    0.993 --    32 C    0.979
    67   1 H    0.997 --    32 C    0.981
    68   1 H    0.995 --    32 C    0.982
    69   1 H    0.991 --    33 C    0.973
    70   1 H    0.997 --    33 C    0.983
    71   1 H    0.994 --    33 C    0.979
    72   1 H    0.973 --     1 N    0.945
 ---------------------------------------------------------------------------

molecular dipole:
                 x           y           z       tot (Debye)
 q only:        0.786      -0.276      -0.470
   full:        0.890      -0.585      -0.287       2.803

           -------------------------------------------------
          | TOTAL ENERGY              -99.374329348651 Eh   |
          | GRADIENT NORM               0.001638316088 Eh/α |
          | HOMO-LUMO GAP               1.747114420514 eV   |
           -------------------------------------------------

 * finished run on 2024/04/06 at 11:14:20.876
