   * xtb version 6.6.1 (8d0f1dd) compiled by 'conda@1efc2f54142f' on 2023-08-01
          program call               : xtb xtbopt.xyz --opt crude --input .xc2 --gfn2

   ID    Z sym.   atoms
    1    6 C      1, 3, 5-7, 10, 11, 14
    2    7 N      2, 4, 9, 13
    3    8 O      8, 12
    4    1 H      15-25
########################################################################
[WARNING] Please study the warnings concerning your input carefully
-1- readin_getIntValue: could not parse ''
########################################################################

          :  Hamiltonian                  GFN2-xTB          :
 * total energy  :   -40.4247204 Eh     change       -0.4263256E-13 Eh
 * total energy  :   -42.1174821 Eh     change       -0.1692762E+01 Eh
 * total energy  :   -42.1466268 Eh     change       -0.2914471E-01 Eh
 * total energy  :   -42.1532925 Eh     change       -0.6665712E-02 Eh
 * total energy  :   -42.1566412 Eh     change       -0.3348726E-02 Eh
 * total energy  :   -42.1573445 Eh     change       -0.7032490E-03 Eh
 * total energy  :   -42.1580861 Eh     change       -0.7415843E-03 Eh
 * total energy  :   -42.1585948 Eh     change       -0.5087148E-03 Eh
 * total energy  :   -42.1591457 Eh     change       -0.5509027E-03 Eh
 * total energy  :   -42.1593479 Eh     change       -0.2022129E-03 Eh
   *** GEOMETRY OPTIMIZATION CONVERGED AFTER 10 ITERATIONS ***

 final structure:
================
25
 xtb: 6.6.1 (8d0f1dd)
C            2.93887104831443        1.09188111096306       -0.27923388763992
N            2.12317443794996       -0.06864964656525       -0.03888660973630
C            2.57268352913132       -1.30439348379867        0.11306274877730
N            1.54078159004288       -2.13248395269198        0.31325387285950
C            0.36617659119475       -1.40365545392210        0.26085100767706
C            0.74809003400377       -0.08464677349729        0.01092645230613
C           -0.06188412356472        1.15808583425219        0.12634310124699
O            0.39446821165891        2.12783617976254        0.69125724465837
N           -1.34448316758930        1.10605918384749       -0.35651466579818
C           -2.28415569329181        2.12969049110267        0.06590540302097
C           -1.79256883314167        0.22521251389679       -1.32278104582912
O           -2.92719652002687        0.18287313792629       -1.68926073545067
N           -0.88056851775150       -1.89248477591009        0.32947881834590
C           -1.29281403988479       -2.88909850693196        0.99753005797392
H            3.96322862699045        0.89083943649992        0.02640517436069
H            2.92493496070245        1.34933726349211       -1.34042500078351
H            2.54154598315146        1.93612832380326        0.28636003735546
H            3.60432331393535       -1.59794322933542        0.07412013935852
H           -1.82574876342045        2.73384470780726        0.84473932223613
H           -2.55619371146743        2.76329444339256       -0.77870845519533
H           -3.18968697490723        1.64918620295784        0.43648158561358
H           -0.69938619817547       -3.44534634276586        1.72229088188901
H           -0.99043441582672       -0.38588519866723       -1.75802159285432
H           -2.31925604521420       -3.18894344940548        0.85265730130777
H            1.60653019128478       -3.13249947461379        0.44334046220013

          :  Hamiltonian                  GFN2-xTB          :
         :: total energy             -42.159347900431 Eh    ::
         :: gradient norm              0.004201099151 Eh/a0 ::
         :: HOMO-LUMO gap              2.495553104062 eV    ::
         :: SCC energy               -42.700898330889 Eh    ::
         :: -> dispersion             -0.022338361927 Eh    ::
         :: repulsion energy           0.541343960756 Eh    ::

    * Orbital Energies and Occupations

         #    Occupation            Energy/Eh            Energy/eV
      -------------------------------------------------------------
         1        2.0000           -0.9125068             -24.8306
       ...           ...                  ...                  ...
        25        2.0000           -0.6649664             -18.0947
        26        1.9999           -0.6599672             -17.9586
        27        1.9999           -0.6541935             -17.8015
        28        1.9999           -0.6483529             -17.6426
        29        1.9998           -0.6384685             -17.3736
        30        1.9995           -0.6270504             -17.0629
        31        1.9991           -0.6174586             -16.8019
        32        1.9971           -0.5991556             -16.3039
        33        1.9963           -0.5953571             -16.2005
        34        1.9841           -0.5721217             -15.5682
        35        1.9633           -0.5587115             -15.2033
        36        1.9429           -0.5515502             -15.0084
        37        1.9281           -0.5477923             -14.9062 (HOMO)
        38        0.1513           -0.4560824             -12.4106 (LUMO)
        39        0.0350           -0.4319263             -11.7533
        40        0.0036           -0.3957351             -10.7685
        41        0.0003           -0.3579252              -9.7396
        42        0.0000           -0.3224123              -8.7733
        43                         -0.1909206              -5.1952
        44                         -0.1735113              -4.7215
        45                         -0.1239362              -3.3725
        46                         -0.0675004              -1.8368
        47                         -0.0546110              -1.4860
        48                         -0.0363414              -0.9889
       ...                                ...                  ...
        67                          0.5273237              14.3492
      -------------------------------------------------------------
                  HL-Gap            0.0917099 Eh            2.4956 eV

     #   Z          covCN         q      C6AA      α(0)
     1   6 C        3.693    -0.095    22.502     6.787
     2   7 N        2.844     0.087    19.731     6.597
     3   6 C        3.025     0.061    26.598     8.460
     4   7 N        2.803    -0.062    22.432     7.034
     5   6 C        3.017     0.126    25.224     8.238
     6   6 C        3.088    -0.015    28.275     8.716
     7   6 C        2.765     0.273    22.379     7.747
     8   8 O        0.859    -0.355    20.798     6.114
     9   7 N        2.734    -0.054    22.289     7.012
    10   6 C        3.708    -0.064    21.881     6.686
    11   6 C        2.713     0.249    22.814     7.819
    12   8 O        0.858    -0.279    19.400     5.905
    13   7 N        1.824    -0.155    25.134     7.429
    14   6 C        2.794     0.038    27.126     8.532
    15   1 H        0.925     0.103     1.757     2.073
    16   1 H        0.924     0.108     1.710     2.045
    17   1 H        0.924     0.140     1.463     1.892
    18   1 H        0.926     0.125     1.575     1.963
    19   1 H        0.925     0.106     1.735     2.060
    20   1 H        0.924     0.100     1.789     2.092
    21   1 H        0.925     0.103     1.754     2.071
    22   1 H        0.925     0.069     2.099     2.266
    23   1 H        0.923     0.045     2.388     2.417
    24   1 H        0.926     0.117     1.634     1.999
    25   1 H        0.860     0.227     0.977     1.548

Wiberg/Mayer (AO) data.
largest (>0.10) Wiberg bond orders for each atom

     #   Z sym  total        # sym  WBO       # sym  WBO       # sym  WBO
 ---------------------------------------------------------------------------
     1   6 C    3.915 --     2 N    0.986    15 H    0.972    16 H    0.954
                            17 H    0.950
     2   7 N    3.709 --     3 C    1.393     6 C    1.184     1 C    0.986
     3   6 C    3.904 --     2 N    1.393     4 N    1.320    18 H    0.950
     4   7 N    3.595 --     3 C    1.320     5 C    1.145    25 H    0.920
     5   6 C    3.918 --     6 C    1.372    13 N    1.220     4 N    1.145
     6   6 C    3.882 --     5 C    1.372     2 N    1.184     7 C    0.997
     7   6 C    3.939 --     8 O    1.697     9 N    1.155     6 C    0.997
     8   8 O    2.030 --     7 C    1.697     9 N    0.140
     9   7 N    3.561 --     7 C    1.155    11 C    1.125    10 C    0.970
                             8 O    0.140    12 O    0.132
    10   6 C    3.911 --    19 H    0.971     9 N    0.970    20 H    0.961
                            21 H    0.960
    11   6 C    3.932 --    12 O    1.838     9 N    1.125    23 H    0.911
    12   8 O    2.084 --    11 C    1.838     9 N    0.132
    13   7 N    3.155 --    14 C    1.787     5 C    1.220
    14   6 C    3.809 --    13 N    1.787    24 H    0.956    22 H    0.948
    15   1 H    0.988 --     1 C    0.972
    16   1 H    0.986 --     1 C    0.954
    17   1 H    0.979 --     1 C    0.950
    18   1 H    0.984 --     3 C    0.950
    19   1 H    0.986 --    10 C    0.971
    20   1 H    0.980 --    10 C    0.961
    21   1 H    0.980 --    10 C    0.960
    22   1 H    0.983 --    14 C    0.948
    23   1 H    0.980 --    11 C    0.911
    24   1 H    0.981 --    14 C    0.956
    25   1 H    0.948 --     4 N    0.920
 ---------------------------------------------------------------------------

molecular dipole:
                 x           y           z       tot (Debye)
 q only:        2.412      -1.848       0.341
   full:        2.899      -2.497       0.477       9.800

           -------------------------------------------------
          | TOTAL ENERGY              -42.159347900431 Eh   |
          | GRADIENT NORM               0.004201099151 Eh/α |
          | HOMO-LUMO GAP               2.495553104062 eV   |
           -------------------------------------------------

 * finished run on 2024/06/05 at 20:00:29.366
