   * xtb version 6.6.1 (8d0f1dd) compiled by 'conda@1efc2f54142f' on 2023-08-01
          program call               : xtb xtbopt.xyz --opt crude --input .xc2 --gfn2

   ID    Z sym.   atoms
    1    6 C      1, 3, 5-7, 10, 11, 14
    2    7 N      2, 4, 9, 13
    3    8 O      8, 12
    4    1 H      15-25
########################################################################
[WARNING] Please study the warnings concerning your input carefully
-1- readin_getIntValue: could not parse ''
########################################################################

          :  Hamiltonian                  GFN2-xTB          :
 * total energy  :   -42.1465471 Eh     change       -0.7815970E-13 Eh
 * total energy  :   -42.1559244 Eh     change       -0.9377299E-02 Eh
 * total energy  :   -42.1636685 Eh     change       -0.7744075E-02 Eh
 * total energy  :   -42.1690298 Eh     change       -0.5361372E-02 Eh
 * total energy  :   -42.1733293 Eh     change       -0.4299500E-02 Eh
 * total energy  :   -42.1764378 Eh     change       -0.3108484E-02 Eh
 * total energy  :   -42.1779267 Eh     change       -0.1488851E-02 Eh
 * total energy  :   -42.1783342 Eh     change       -0.4075220E-03 Eh
   *** GEOMETRY OPTIMIZATION CONVERGED AFTER 8 ITERATIONS ***

 final structure:
================
25
 xtb: 6.6.1 (8d0f1dd)
C            3.76730243217116        0.58799225536984        0.12262764460177
N            2.69267136297004       -0.18919277593579        0.04143308432539
C            2.69489753144649       -1.54187239450980       -0.01753571065732
N            1.40664878204496       -2.01600472700334       -0.05962076192231
C            0.57201798569233       -0.96843216789581       -0.03400180849404
C            1.34727264942390        0.20919899011352        0.01297341547139
C            0.66659060318218        1.43946868493843       -0.01308594685538
O            1.18509255979103        2.64942341502460       -0.06022882732913
N           -0.67574813597861        1.40172681960570        0.00021195760261
C           -3.39034553899768        1.52553158704176        0.07827763865462
C           -1.36479437837304        0.30237862207088       -0.00392239955458
O           -2.67364468830873        0.29498583185235        0.01731463207975
N           -0.79073115848206       -0.95685824281330       -0.04549953953501
C           -1.55436721752973       -2.18678632070083       -0.09262663721012
H            3.68359033073679        1.64560958922642        0.25345827075046
H            4.73234200213029        0.12462355806681        0.14279493551073
H            2.14525718980144        2.66948889618779       -0.15901073439450
H            3.56806315493227       -2.15515527448357       -0.01757313098502
H           -2.72410515118115        2.38044054716148        0.01882144999790
H           -4.08707678578197        1.53245513387110       -0.75604186296890
H           -3.93940574596121        1.54529608750996        1.01813158516186
H           -1.29353687856950       -2.82382305249402        0.75391100290577
H           -1.35878756315690       -2.71781714979540       -1.02596644427637
H           -2.61138076765868       -1.94208495668320       -0.03914684507918
H            1.16260893975618       -2.99235441412591       -0.10452334990091

          :  Hamiltonian                  GFN2-xTB          :
         :: total energy             -42.178334181298 Eh    ::
         :: gradient norm              0.007989784138 Eh/a0 ::
         :: HOMO-LUMO gap              1.525839069472 eV    ::
         :: SCC energy               -42.697288260156 Eh    ::
         :: -> dispersion             -0.022432516651 Eh    ::
         :: repulsion energy           0.518907240428 Eh    ::

    * Orbital Energies and Occupations

         #    Occupation            Energy/Eh            Energy/eV
      -------------------------------------------------------------
         1        2.0000           -0.8906208             -24.2350
       ...           ...                  ...                  ...
        25        2.0000           -0.6656737             -18.1139
        26        2.0000           -0.6537371             -17.7891
        27        2.0000           -0.6532730             -17.7765
        28        2.0000           -0.6453190             -17.5600
        29        2.0000           -0.6303377             -17.1524
        30        2.0000           -0.6302365             -17.1496
        31        1.9999           -0.6084501             -16.5568
        32        1.9998           -0.5981886             -16.2775
        33        1.9998           -0.5950062             -16.1909
        34        1.9995           -0.5796558             -15.7732
        35        1.9977           -0.5565324             -15.1440
        36        1.9965           -0.5495439             -14.9539
        37        1.6930           -0.4762436             -12.9592 (HOMO)
        38        0.2755           -0.4201700             -11.4334 (LUMO)
        39        0.0334           -0.3846658             -10.4673
        40        0.0050           -0.3543234              -9.6416
        41        0.0000           -0.2740989              -7.4586
        42        0.0000           -0.1899129              -5.1678
        43                         -0.1569490              -4.2708
        44                         -0.1393724              -3.7925
        45                         -0.1189045              -3.2356
        46                         -0.1071214              -2.9149
        47                         -0.0367119              -0.9990
        48                         -0.0328664              -0.8943
       ...                                ...                  ...
        67                          0.5060857              13.7713
      -------------------------------------------------------------
                  HL-Gap            0.0560736 Eh            1.5258 eV

     #   Z          covCN         q      C6AA      α(0)
     1   6 C        2.791    -0.118    30.972     9.116
     2   7 N        2.796     0.102    19.478     6.555
     3   6 C        3.039    -0.007    28.168     8.705
     4   7 N        2.766    -0.068    22.554     7.053
     5   6 C        3.051     0.106    25.605     8.299
     6   6 C        3.082    -0.037    28.837     8.803
     7   6 C        2.800     0.235    23.086     7.871
     8   8 O        1.663    -0.306    19.111     5.902
     9   7 N        1.842    -0.270    27.851     7.821
    10   6 C        3.648    -0.001    20.925     6.572
    11   6 C        2.790     0.292    22.059     7.693
    12   8 O        1.707    -0.197    17.289     5.614
    13   7 N        2.738    -0.047    22.143     6.989
    14   6 C        3.693    -0.072    22.073     6.722
    15   1 H        0.927     0.064     2.151     2.294
    16   1 H        0.926     0.081     1.972     2.196
    17   1 H        0.805     0.343     0.604     1.221
    18   1 H        0.927     0.101     1.780     2.086
    19   1 H        0.925     0.101     1.774     2.083
    20   1 H        0.925     0.099     1.790     2.092
    21   1 H        0.925     0.097     1.810     2.104
    22   1 H        0.924     0.086     1.918     2.166
    23   1 H        0.924     0.087     1.909     2.161
    24   1 H        0.925     0.114     1.660     2.015
    25   1 H        0.860     0.214     1.035     1.594

Wiberg/Mayer (AO) data.
largest (>0.10) Wiberg bond orders for each atom

     #   Z sym  total        # sym  WBO       # sym  WBO       # sym  WBO
 ---------------------------------------------------------------------------
     1   6 C    3.585 --     2 N    1.324    16 H    0.971    15 H    0.965
                             3 C    0.179
     2   7 N    3.730 --     1 C    1.324     3 C    1.239     6 C    1.071
     3   6 C    3.694 --     2 N    1.239     4 N    1.169    18 H    0.961
                             1 C    0.179
     4   7 N    3.556 --     5 C    1.264     3 C    1.169    25 H    0.925
     5   6 C    3.881 --     4 N    1.264     6 C    1.259    13 N    1.156
     6   6 C    3.891 --     5 C    1.259     7 C    1.250     2 N    1.071
     7   6 C    3.796 --     9 N    1.262     6 C    1.250     8 O    1.180
     8   8 O    2.214 --     7 C    1.180    17 H    0.847
     9   7 N    3.045 --    11 C    1.431     7 C    1.262
    10   6 C    3.878 --    19 H    0.973    20 H    0.970    21 H    0.969
                            12 O    0.928
    11   6 C    3.874 --     9 N    1.431    12 O    1.197    13 N    1.116
    12   8 O    2.342 --    11 C    1.197    10 C    0.928
    13   7 N    3.512 --     5 C    1.156    11 C    1.116    14 C    0.977
    14   6 C    3.932 --    13 N    0.977    24 H    0.970    22 H    0.970
                            23 H    0.969
    15   1 H    0.996 --     1 C    0.965
    16   1 H    0.992 --     1 C    0.971
    17   1 H    0.881 --     8 O    0.847
    18   1 H    0.989 --     3 C    0.961
    19   1 H    0.990 --    10 C    0.973
    20   1 H    0.987 --    10 C    0.970
    21   1 H    0.987 --    10 C    0.969
    22   1 H    0.988 --    14 C    0.970
    23   1 H    0.988 --    14 C    0.969
    24   1 H    0.986 --    14 C    0.970
    25   1 H    0.953 --     4 N    0.925
 ---------------------------------------------------------------------------

molecular dipole:
                 x           y           z       tot (Debye)
 q only:        0.668      -1.236      -0.084
   full:        1.077      -1.776      -0.092       5.284

           -------------------------------------------------
          | TOTAL ENERGY              -42.178334181298 Eh   |
          | GRADIENT NORM               0.007989784138 Eh/α |
          | HOMO-LUMO GAP               1.525839069472 eV   |
           -------------------------------------------------

 * finished run on 2024/06/05 at 19:58:00.763
