   * xtb version 6.6.1 (8d0f1dd) compiled by 'conda@1efc2f54142f' on 2023-08-01
          program call               : xtb struc.xyz --opt loose --input .xc1 --gfn2

   ID    Z sym.   atoms
    1    6 C      1, 3, 5-7, 10, 11, 14
    2    7 N      2, 4, 9, 13
    3    8 O      8, 12
    4    1 H      15-25
constraining bond 11 24 to    3.7133300 Å, actual value:    2.4695195 Å

          :  Hamiltonian                  GFN2-xTB          :
 * total energy  :   -45.0076168 Eh     change       -0.6633627E-10 Eh
 * total energy  :   -49.1251671 Eh     change       -0.4117550E+01 Eh
 * total energy  :   -55.0429497 Eh     change       -0.5917783E+01 Eh
 * total energy  :   -57.9436202 Eh     change       -0.2900670E+01 Eh
 * total energy  :   -58.2234741 Eh     change       -0.2798540E+00 Eh
 * total energy  :   -58.9583472 Eh     change       -0.7348730E+00 Eh
 * total energy  :   -58.3009434 Eh     change        0.6574038E+00 Eh
 * total energy  :   -59.3830483 Eh     change       -0.1082105E+01 Eh
 * total energy  :   -59.4626739 Eh     change       -0.7962554E-01 Eh
 * total energy  :   -59.4945881 Eh     change       -0.3191428E-01 Eh
 * total energy  :   -59.6871065 Eh     change       -0.7114231E-04 Eh
 * total energy  :   -59.6871812 Eh     change       -0.7466963E-04 Eh
 * total energy  :   -59.6872331 Eh     change       -0.5186658E-04 Eh
 * total energy  :   -59.6872918 Eh     change       -0.5874102E-04 Eh
 * total energy  :   -59.6873553 Eh     change       -0.6349643E-04 Eh
 * total energy  :   -59.6874251 Eh     change       -0.6979462E-04 Eh
 * total energy  :   -59.6874524 Eh     change       -0.2726893E-04 Eh
 * total energy  :   -59.6874900 Eh     change       -0.3762327E-04 Eh
 * total energy  :   -59.6875149 Eh     change       -0.2490223E-04 Eh
   *** GEOMETRY OPTIMIZATION CONVERGED AFTER 82 ITERATIONS ***

 final structure:
================
25
 xtb: 6.6.1 (8d0f1dd)
C            2.96970662116427        1.17089590255620       -0.12296889967568
N            2.10443443159172        0.02320805583940       -0.16170017773186
C            2.47687382478725       -1.22986866121955       -0.37425858811237
N            1.40026865627791       -2.02269133388297       -0.34268752182286
C            0.29766662438990       -1.24632687504535       -0.10516634799290
C            0.74436393669539        0.05617997007504       -0.00330342045897
C           -0.00986179480701        1.30244770490702        0.35689422510204
O            0.50312879184783        2.19601437171638        0.99533843023849
N           -1.28147645522807        1.27320355321229       -0.05910101329602
C           -2.24379530941322        2.31487685180383        0.16712847656502
C           -2.08942656363653       -0.96292578213454       -0.29529931958748
O           -1.66709037092401        0.21968881438745       -0.93823591446142
N           -0.99046183541696       -1.76929638144657        0.02544647977820
C           -1.12441891469409       -3.01944197379603        0.44854741288427
H            2.71363023835163        1.78816053136453        0.74073093853374
H            4.00658726739657        0.84825657915776       -0.06723189948880
H            2.82426480662866        1.77821731450950       -1.01832391366855
H            3.48330532288191       -1.56221701862861       -0.54284420093802
H           -1.75829909062013        3.08898496915843        0.75584994398759
H           -2.57786167988191        2.72291278173973       -0.78652684900343
H           -3.10208726016133        1.91915365697516        0.71000900838262
H           -2.11368511467162       -3.42474069683746        0.51974482318227
H           -0.29634472098649       -3.55481939781700        0.86448183327963
H           -2.49547118595191       -1.06941977005389       -0.23502462515655
H            1.38648128848080       -3.02221462494323       -0.50032726263924

          :  Hamiltonian                  GFN2-xTB          :
         :: total energy             -59.687514905873 Eh    ::
         :: gradient norm              0.002944183917 Eh/a0 ::
         :: HOMO-LUMO gap              1.378247890224 eV    ::
         :: SCC energy               -42.624922580631 Eh    ::
         :: -> dispersion             -0.023061077792 Eh    ::
         :: repulsion energy           2.255182887814 Eh    ::

    * Orbital Energies and Occupations

         #    Occupation            Energy/Eh            Energy/eV
      -------------------------------------------------------------
         1        2.0000           -0.9213067             -25.0700
       ...           ...                  ...                  ...
        25        2.0000           -0.6702367             -18.2381
        26        2.0000           -0.6577711             -17.8989
        27        2.0000           -0.6532819             -17.7767
        28        2.0000           -0.6409871             -17.4421
        29        2.0000           -0.6256608             -17.0251
        30        2.0000           -0.6233119             -16.9612
        31        2.0000           -0.6157803             -16.7562
        32        2.0000           -0.6002100             -16.3325
        33        2.0000           -0.5972056             -16.2508
        34        2.0000           -0.5913764             -16.0922
        35        1.9999           -0.5513478             -15.0029
        36        1.9996           -0.5346717             -14.5492
        37        1.9132           -0.4924525             -13.4003 (HOMO)
        38        0.0708           -0.4418028             -12.0221 (LUMO)
        39        0.0165           -0.4300401             -11.7020
        40        0.0000           -0.3747809             -10.1983
        41                         -0.3211146              -8.7380
        42                         -0.2461083              -6.6969
        43                         -0.1961008              -5.3362
        44                         -0.1862442              -5.0680
        45                         -0.1274850              -3.4690
        46                         -0.0908679              -2.4726
        47                         -0.0665991              -1.8123
        48                         -0.0572137              -1.5569
       ...                                ...                  ...
        67                         10.4481964             284.3099
      -------------------------------------------------------------
                  HL-Gap            0.0506497 Eh            1.3782 eV

     #   Z          covCN         q      C6AA      α(0)
     1   6 C        3.693    -0.095    22.499     6.787
     2   7 N        2.857     0.092    19.651     6.584
     3   6 C        3.055     0.060    26.606     8.459
     4   7 N        2.811    -0.046    22.134     6.988
     5   6 C        3.066     0.108    25.557     8.290
     6   6 C        3.110     0.013    27.573     8.603
     7   6 C        2.752     0.261    22.599     7.784
     8   8 O        0.858    -0.399    21.652     6.239
     9   7 N        2.746     0.043    20.500     6.725
    10   6 C        3.689    -0.069    22.028     6.717
    11   6 C        2.730    -0.003    28.070     8.674
    12   8 O        1.761    -0.266    18.400     5.792
    13   7 N        2.739     0.058    20.236     6.681
    14   6 C        2.817    -0.103    30.596     9.063
    15   1 H        0.924     0.145     1.423     1.866
    16   1 H        0.925     0.102     1.765     2.077
    17   1 H        0.924     0.117     1.635     2.000
    18   1 H        0.926     0.131     1.527     1.933
    19   1 H        0.925     0.110     1.697     2.037
    20   1 H        0.925     0.095     1.827     2.114
    21   1 H        0.925     0.088     1.899     2.155
    22   1 H        0.926     0.094     1.840     2.121
    23   1 H        0.927     0.069     2.097     2.265
    24   1 H        0.938     0.156     1.348     1.815
    25   1 H        0.860     0.239     0.928     1.509

Wiberg/Mayer (AO) data.
largest (>0.10) Wiberg bond orders for each atom

     #   Z sym  total        # sym  WBO       # sym  WBO       # sym  WBO
 ---------------------------------------------------------------------------
     1   6 C    3.912 --     2 N    0.985    16 H    0.974    17 H    0.952
                            15 H    0.947
     2   7 N    3.726 --     3 C    1.394     6 C    1.197     1 C    0.985
     3   6 C    3.915 --     2 N    1.394     4 N    1.327    18 H    0.950
     4   7 N    3.615 --     3 C    1.327     5 C    1.189    25 H    0.911
     5   6 C    3.923 --     6 C    1.458     4 N    1.189    13 N    1.066
     6   6 C    3.923 --     5 C    1.458     2 N    1.197     7 C    0.966
     7   6 C    3.966 --     8 O    1.644     9 N    1.266     6 C    0.966
     8   8 O    2.035 --     7 C    1.644     9 N    0.228
     9   7 N    3.515 --     7 C    1.266    10 C    0.990    12 O    0.916
                             8 O    0.228
    10   6 C    3.936 --     9 N    0.990    20 H    0.967    21 H    0.966
                            19 H    0.961
    11   6 C    3.649 --    13 N    1.181    12 O    1.011    24 H    0.964
                            14 C    0.387
    12   8 O    2.069 --    11 C    1.011     9 N    0.916
    13   7 N    3.713 --    14 C    1.366    11 C    1.181     5 C    1.066
    14   6 C    3.811 --    13 N    1.366    23 H    0.971    22 H    0.970
                            11 C    0.387
    15   1 H    0.978 --     1 C    0.947
    16   1 H    0.989 --     1 C    0.974
    17   1 H    0.985 --     1 C    0.952
    18   1 H    0.982 --     3 C    0.950
    19   1 H    0.985 --    10 C    0.961
    20   1 H    0.990 --    10 C    0.967
    21   1 H    0.990 --    10 C    0.966
    22   1 H    0.990 --    14 C    0.970
    23   1 H    0.995 --    14 C    0.971
    24   1 H    0.976 --    11 C    0.964
    25   1 H    0.942 --     4 N    0.911
 ---------------------------------------------------------------------------

molecular dipole:
                 x           y           z       tot (Debye)
 q only:        1.975      -1.978      -0.378
   full:        2.142      -2.433      -0.423       8.309

           -------------------------------------------------
          | TOTAL ENERGY              -59.687514905873 Eh   |
          | GRADIENT NORM               0.002944183917 Eh/α |
          | HOMO-LUMO GAP               1.378247890224 eV   |
           -------------------------------------------------

 * finished run on 2024/06/05 at 19:58:09.722
