   * xtb version 6.6.1 (8d0f1dd) compiled by 'conda@1efc2f54142f' on 2023-08-01
          program call               : xtb xtbopt.xyz --opt crude --input .xc2 --gfn2

   ID    Z sym.   atoms
    1    6 C      1, 3, 5-7, 10, 11, 14
    2    7 N      2, 4, 9, 13
    3    8 O      8, 12
    4    1 H      15-25
########################################################################
[WARNING] Please study the warnings concerning your input carefully
-1- readin_getIntValue: could not parse ''
########################################################################

          :  Hamiltonian                  GFN2-xTB          :
 * total energy  :   -40.3695814 Eh     change       -0.3538503E-11 Eh
 * total energy  :   -42.0686758 Eh     change       -0.1699094E+01 Eh
 * total energy  :   -42.0870140 Eh     change       -0.1833824E-01 Eh
 * total energy  :   -42.0908731 Eh     change       -0.3859078E-02 Eh
 * total energy  :   -42.0917323 Eh     change       -0.8591987E-03 Eh
 * total energy  :   -42.0920663 Eh     change       -0.3340101E-03 Eh
 * total energy  :   -42.0923889 Eh     change       -0.3225524E-03 Eh
 * total energy  :   -42.0926282 Eh     change       -0.2393294E-03 Eh
 * total energy  :   -42.0928234 Eh     change       -0.1951862E-03 Eh
   *** GEOMETRY OPTIMIZATION CONVERGED AFTER 9 ITERATIONS ***

 final structure:
================
25
 xtb: 6.6.1 (8d0f1dd)
C            2.97706140252141        1.18443524847002       -0.13523513298104
N            2.12124401775893        0.02953828797909       -0.15872552268675
C            2.50031898316318       -1.22420672193704       -0.36099424336635
N            1.42581053377730       -2.02197931597302       -0.33341236732995
C            0.31847015152443       -1.24848152737102       -0.10828245039686
C            0.75918213773205        0.05745069680789       -0.00969628883587
C            0.00053305661247        1.29718448960961        0.36633038142564
O            0.51342219000921        2.17480569269179        1.02601174059652
N           -1.27386136712364        1.27710842336002       -0.04360247203311
C           -2.22131652935598        2.32976226708180        0.18062776399836
C           -1.97080755284155       -0.94410051946369       -0.36808986461363
O           -1.65460076443533        0.21855536573190       -0.96414286587573
N           -0.97236162277842       -1.77195735683267        0.00141744223368
C           -1.11711767544963       -3.01647356458043        0.44565165004827
H            2.70222975563996        1.81956369733876        0.70879884773557
H            4.01545272835082        0.87316795096763       -0.05540117072923
H            2.84144593178125        1.76691032820214       -1.04825440426595
H            3.50958896319314       -1.55173954428406       -0.52054788149983
H           -1.71762605685000        3.10188863188452        0.75988268346967
H           -2.55615136957003        2.73690685573352       -0.77333373994203
H           -3.08014929654710        1.95202861725514        0.73609903634548
H           -2.10479725836175       -3.42257808159619        0.51739597084228
H           -0.29070300240444       -3.54713992225170        0.87001977694872
H           -2.99059846087308       -1.22880763979070       -0.22618349972429
H            1.42576261862733       -3.02360381743582       -0.47516177146384

          :  Hamiltonian                  GFN2-xTB          :
         :: total energy             -42.092823384987 Eh    ::
         :: gradient norm              0.007777977388 Eh/a0 ::
         :: HOMO-LUMO gap              1.335437397381 eV    ::
         :: SCC energy               -42.607513791878 Eh    ::
         :: -> dispersion             -0.023021189541 Eh    ::
         :: repulsion energy           0.514533599485 Eh    ::

    * Orbital Energies and Occupations

         #    Occupation            Energy/Eh            Energy/eV
      -------------------------------------------------------------
         1        2.0000           -0.9195746             -25.0229
       ...           ...                  ...                  ...
        25        2.0000           -0.6691861             -18.2095
        26        2.0000           -0.6542694             -17.8036
        27        2.0000           -0.6519381             -17.7401
        28        2.0000           -0.6395933             -17.4042
        29        2.0000           -0.6254355             -17.0190
        30        2.0000           -0.6198974             -16.8683
        31        2.0000           -0.6145904             -16.7239
        32        2.0000           -0.6003723             -16.3370
        33        2.0000           -0.5957648             -16.2116
        34        2.0000           -0.5903492             -16.0642
        35        2.0000           -0.5518893             -15.0177
        36        1.9998           -0.5356449             -14.5756
        37        1.8985           -0.4852503             -13.2043 (HOMO)
        38        0.0733           -0.4361739             -11.8689 (LUMO)
        39        0.0284           -0.4284869             -11.6597
        40        0.0000           -0.3689174             -10.0388
        41                         -0.3225736              -8.7777
        42                         -0.2553093              -6.9473
        43                         -0.1936124              -5.2685
        44                         -0.1847682              -5.0278
        45                         -0.1229196              -3.3448
        46                         -0.0847665              -2.3066
        47                         -0.0605166              -1.6467
        48                         -0.0379165              -1.0318
       ...                                ...                  ...
        67                          0.5147342              14.0066
      -------------------------------------------------------------
                  HL-Gap            0.0490764 Eh            1.3354 eV

     #   Z          covCN         q      C6AA      α(0)
     1   6 C        3.693    -0.095    22.498     6.787
     2   7 N        2.855     0.090    19.682     6.589
     3   6 C        3.052     0.058    26.649     8.466
     4   7 N        2.809    -0.046    22.134     6.987
     5   6 C        3.090     0.107    25.548     8.285
     6   6 C        3.107     0.011    27.621     8.611
     7   6 C        2.752     0.263    22.560     7.778
     8   8 O        0.858    -0.398    21.647     6.238
     9   7 N        2.743     0.028    20.767     6.768
    10   6 C        3.689    -0.068    22.009     6.714
    11   6 C        2.766     0.060    26.643     8.453
    12   8 O        1.757    -0.231    17.824     5.701
    13   7 N        2.732     0.082    19.828     6.613
    14   6 C        2.817    -0.120    31.026     9.126
    15   1 H        0.924     0.145     1.425     1.867
    16   1 H        0.925     0.102     1.767     2.079
    17   1 H        0.924     0.115     1.651     2.009
    18   1 H        0.926     0.130     1.535     1.937
    19   1 H        0.925     0.113     1.674     2.023
    20   1 H        0.925     0.096     1.826     2.113
    21   1 H        0.924     0.087     1.905     2.158
    22   1 H        0.927     0.088     1.900     2.156
    23   1 H        0.927     0.067     2.122     2.278
    24   1 H        0.927     0.079     1.985     2.203
    25   1 H        0.860     0.239     0.929     1.510

Wiberg/Mayer (AO) data.
largest (>0.10) Wiberg bond orders for each atom

     #   Z sym  total        # sym  WBO       # sym  WBO       # sym  WBO
 ---------------------------------------------------------------------------
     1   6 C    3.913 --     2 N    0.985    16 H    0.974    17 H    0.952
                            15 H    0.947
     2   7 N    3.718 --     3 C    1.390     6 C    1.195     1 C    0.985
     3   6 C    3.902 --     2 N    1.390     4 N    1.322    18 H    0.950
     4   7 N    3.609 --     3 C    1.322     5 C    1.190    25 H    0.911
     5   6 C    3.917 --     6 C    1.458     4 N    1.190    13 N    1.058
     6   6 C    3.920 --     5 C    1.458     2 N    1.195     7 C    0.967
     7   6 C    3.963 --     8 O    1.643     9 N    1.267     6 C    0.967
     8   8 O    2.035 --     7 C    1.643     9 N    0.227
     9   7 N    3.500 --     7 C    1.267    10 C    0.993    12 O    0.872
                             8 O    0.227
    10   6 C    3.934 --     9 N    0.993    21 H    0.967    20 H    0.966
                            19 H    0.957
    11   6 C    3.732 --    13 N    1.231    12 O    1.078    24 H    0.952
                            14 C    0.371
    12   8 O    2.108 --    11 C    1.078     9 N    0.872
    13   7 N    3.727 --    14 C    1.330    11 C    1.231     5 C    1.058
    14   6 C    3.776 --    13 N    1.330    23 H    0.972    22 H    0.971
                            11 C    0.371
    15   1 H    0.978 --     1 C    0.947
    16   1 H    0.989 --     1 C    0.974
    17   1 H    0.985 --     1 C    0.952
    18   1 H    0.982 --     3 C    0.950
    19   1 H    0.983 --    10 C    0.957
    20   1 H    0.990 --    10 C    0.966
    21   1 H    0.990 --    10 C    0.967
    22   1 H    0.992 --    14 C    0.971
    23   1 H    0.995 --    14 C    0.972
    24   1 H    0.993 --    11 C    0.952
    25   1 H    0.942 --     4 N    0.911
 ---------------------------------------------------------------------------

molecular dipole:
                 x           y           z       tot (Debye)
 q only:        1.966      -1.849      -0.453
   full:        2.020      -2.321      -0.487       7.918

           -------------------------------------------------
          | TOTAL ENERGY              -42.092823384987 Eh   |
          | GRADIENT NORM               0.007777977388 Eh/α |
          | HOMO-LUMO GAP               1.335437397381 eV   |
           -------------------------------------------------

 * finished run on 2024/06/05 at 19:58:10.106
