   * xtb version 6.6.1 (8d0f1dd) compiled by 'conda@1efc2f54142f' on 2023-08-01
          program call               : xtb struc.xyz --opt loose --input .xc1 --gfn2

   ID    Z sym.   atoms
    1    6 C      1, 3, 5-7, 10, 11, 14
    2    7 N      2, 4, 9, 13
    3    8 O      8, 12
    4    1 H      15-25
constraining bond 6 14 to    6.0000000 Å, actual value:    3.7374765 Å

          :  Hamiltonian                  GFN2-xTB          :
 * total energy  :   -33.1051222 Eh     change       -0.6633627E-10 Eh
 * total energy  :   -36.9257864 Eh     change       -0.3820664E+01 Eh
 * total energy  :   -39.6397592 Eh     change       -0.2713973E+01 Eh
 * total energy  :   -41.1416006 Eh     change       -0.1501841E+01 Eh
 * total energy  :   -41.6445907 Eh     change       -0.5029901E+00 Eh
 * total energy  :   -41.7106434 Eh     change       -0.6605264E-01 Eh
 * total energy  :   -41.7401451 Eh     change       -0.2950175E-01 Eh
 * total energy  :   -41.7867981 Eh     change       -0.4665299E-01 Eh
 * total energy  :   -41.8083364 Eh     change       -0.2153823E-01 Eh
 * total energy  :   -41.8269707 Eh     change       -0.1863434E-01 Eh
 * total energy  :   -42.1399346 Eh     change       -0.1178371E-01 Eh
 * total energy  :   -42.1467186 Eh     change       -0.6784037E-02 Eh
 * total energy  :   -42.1530371 Eh     change       -0.6318499E-02 Eh
 * total energy  :   -42.1569100 Eh     change       -0.3872863E-02 Eh
 * total energy  :   -42.1583675 Eh     change       -0.1457538E-02 Eh
 * total energy  :   -42.1586532 Eh     change       -0.2856889E-03 Eh
 * total energy  :   -42.1586831 Eh     change       -0.2988132E-04 Eh
 * total energy  :   -42.1587708 Eh     change       -0.8773394E-04 Eh
 * total energy  :   -42.1587778 Eh     change       -0.6995979E-05 Eh
   *** GEOMETRY OPTIMIZATION CONVERGED AFTER 52 ITERATIONS ***

 final structure:
================
25
 xtb: 6.6.1 (8d0f1dd)
C            3.52237413167511        1.80176863137039        0.01834868193000
N            2.81547189887094        0.54739571831323        0.01047542580289
C            3.32432453034027       -0.67962167352941        0.01025880557660
N            2.34478245424030       -1.59877782397696        0.00891397601690
C            1.13094437023478       -0.96130455746233        0.00813892420008
C            1.47088941309062        0.42864712590177        0.01059354724547
C            0.22877277112722        1.22591819664758        0.00020231527707
O            0.18432172449575        2.43026152883148       -0.00763279908391
N           -1.01045722151919        0.46262691795276       -0.00212039011879
C           -2.21882793041141        1.27648230056470       -0.00843304695706
C           -1.18287068425254       -0.92684412352430       -0.00180784896226
O           -2.46478371564221       -1.31339865907614       -0.00828618541549
N           -0.05131988510928       -1.62164620566687        0.00328697632006
C           -3.70139093972605       -2.53318185647048       -0.01519714803260
H            4.07124756244595        1.92379326355923        0.95283608336316
H            4.22663768073255        1.84798953455763       -0.81188016744552
H            2.79488530967751        2.60748417024274       -0.07543888524535
H            4.37396040887258       -0.90388650074809        0.01071846952824
H           -1.93447366549503        2.32578749366136       -0.00474399104077
H           -2.80529002623167        1.05528572916615       -0.89907372040097
H           -2.81619652193486        1.05149515308552        0.87397012222670
H           -3.57191581096303       -3.04782752043481        0.92477168080083
H           -3.50309102714572       -3.12157430826390       -0.89843509044768
H           -4.53661946861972       -1.85632969966362       -0.07430394679857
H            2.46905615534535       -2.60230429343940        0.00600982956359

          :  Hamiltonian                  GFN2-xTB          :
         :: total energy             -42.158777793991 Eh    ::
         :: gradient norm              0.001203839526 Eh/a0 ::
         :: HOMO-LUMO gap              3.107073935369 eV    ::
         :: SCC energy               -42.650844498898 Eh    ::
         :: -> dispersion             -0.021178901349 Eh    ::
         :: repulsion energy           0.489248409247 Eh    ::

    * Orbital Energies and Occupations

         #    Occupation            Energy/Eh            Energy/eV
      -------------------------------------------------------------
         1        2.0000           -0.8924494             -24.2848
       ...           ...                  ...                  ...
        25        2.0000           -0.6479743             -17.6323
        26        2.0000           -0.6414060             -17.4535
        27        2.0000           -0.6408375             -17.4381
        28        2.0000           -0.6280074             -17.0890
        29        2.0000           -0.6231161             -16.9559
        30        2.0000           -0.6108887             -16.6231
        31        2.0000           -0.5994920             -16.3130
        32        2.0000           -0.5982161             -16.2783
        33        2.0000           -0.5876283             -15.9902
        34        1.9999           -0.5556863             -15.1210
        35        1.9999           -0.5542892             -15.0830
        36        1.9993           -0.5367461             -14.6056
        37        1.9988           -0.5332190             -14.5096 (HOMO)
        38        0.0019           -0.4190362             -11.4026 (LUMO)
        39        0.0001           -0.3965760             -10.7914
        40        0.0001           -0.3941952             -10.7266
        41        0.0000           -0.3591789              -9.7738
        42                         -0.2787534              -7.5853
        43                         -0.2015210              -5.4837
        44                         -0.1690226              -4.5993
        45                         -0.1365926              -3.7169
        46                         -0.0721455              -1.9632
        47                         -0.0459779              -1.2511
        48                         -0.0333107              -0.9064
       ...                                ...                  ...
        67                          0.5265612              14.3285
      -------------------------------------------------------------
                  HL-Gap            0.1141829 Eh            3.1071 eV

     #   Z          covCN         q      C6AA      α(0)
     1   6 C        3.692    -0.089    22.387     6.770
     2   7 N        2.811     0.098    19.555     6.568
     3   6 C        3.075     0.057    26.640     8.463
     4   7 N        2.796    -0.047    22.149     6.990
     5   6 C        3.040     0.131    25.089     8.216
     6   6 C        3.142    -0.025    28.372     8.716
     7   6 C        2.776     0.274    22.365     7.746
     8   8 O        0.857    -0.364    20.979     6.141
     9   7 N        2.740    -0.084    22.872     7.103
    10   6 C        3.700    -0.063    21.878     6.689
    11   6 C        2.732     0.322    21.535     7.598
    12   8 O        1.474    -0.307    19.288     5.920
    13   7 N        1.835    -0.295    28.484     7.909
    14   6 C        3.396     0.010    24.019     7.582
    15   1 H        0.924     0.106     1.729     2.056
    16   1 H        0.925     0.104     1.745     2.066
    17   1 H        0.925     0.127     1.555     1.950
    18   1 H        0.926     0.122     1.597     1.976
    19   1 H        0.925     0.113     1.672     2.022
    20   1 H        0.925     0.085     1.932     2.174
    21   1 H        0.925     0.085     1.931     2.173
    22   1 H        0.926     0.131     1.529     1.934
    23   1 H        0.926     0.130     1.534     1.937
    24   1 H        0.926     0.143     1.437     1.875
    25   1 H        0.860     0.236     0.940     1.519

Wiberg/Mayer (AO) data.
largest (>0.10) Wiberg bond orders for each atom

     #   Z sym  total        # sym  WBO       # sym  WBO       # sym  WBO
 ---------------------------------------------------------------------------
     1   6 C    3.923 --     2 N    0.983    17 H    0.969    16 H    0.964
                            15 H    0.960
     2   7 N    3.729 --     3 C    1.390     6 C    1.202     1 C    0.983
     3   6 C    3.934 --     2 N    1.390     4 N    1.323    18 H    0.952
     4   7 N    3.634 --     3 C    1.323     5 C    1.184    25 H    0.916
     5   6 C    3.958 --     6 C    1.303    13 N    1.279     4 N    1.184
     6   6 C    3.943 --     5 C    1.303     2 N    1.202     7 C    1.076
     7   6 C    3.956 --     8 O    1.721     6 C    1.076     9 N    1.052
     8   8 O    2.090 --     7 C    1.721     9 N    0.157
     9   7 N    3.574 --    11 C    1.168     7 C    1.052    10 C    0.981
                             8 O    0.157
    10   6 C    3.933 --     9 N    0.981    21 H    0.968    20 H    0.968
                            19 H    0.966
    11   6 C    3.943 --    13 N    1.382    12 O    1.238     9 N    1.168
    12   8 O    2.262 --    11 C    1.238    14 C    0.775    13 N    0.108
    13   7 N    3.027 --    11 C    1.382     5 C    1.279    12 O    0.108
    14   6 C    3.766 --    23 H    0.978    22 H    0.978    24 H    0.974
                            12 O    0.775
    15   1 H    0.988 --     1 C    0.960
    16   1 H    0.988 --     1 C    0.964
    17   1 H    0.984 --     1 C    0.969
    18   1 H    0.984 --     3 C    0.952
    19   1 H    0.987 --    10 C    0.966
    20   1 H    0.992 --    10 C    0.968
    21   1 H    0.992 --    10 C    0.968
    22   1 H    0.982 --    14 C    0.978
    23   1 H    0.983 --    14 C    0.978
    24   1 H    0.979 --    14 C    0.974
    25   1 H    0.944 --     4 N    0.916
 ---------------------------------------------------------------------------

molecular dipole:
                 x           y           z       tot (Debye)
 q only:        1.529      -1.778       0.010
   full:        1.834      -2.030       0.014       6.953

           -------------------------------------------------
          | TOTAL ENERGY              -42.158777793991 Eh   |
          | GRADIENT NORM               0.001203839526 Eh/α |
          | HOMO-LUMO GAP               3.107073935369 eV   |
           -------------------------------------------------

 * finished run on 2024/06/05 at 19:58:01.185
