   * xtb version 6.6.1 (8d0f1dd) compiled by 'conda@1efc2f54142f' on 2023-08-01
          program call               : xtb xtbopt.xyz --opt crude --input .xc2 --gfn2

   ID    Z sym.   atoms
    1    6 C      1, 3, 5-7, 10, 11, 14
    2    7 N      2, 4, 9, 13
    3    8 O      8, 12
    4    1 H      15-25
########################################################################
[WARNING] Please study the warnings concerning your input carefully
-1- readin_getIntValue: could not parse ''
########################################################################

          :  Hamiltonian                  GFN2-xTB          :
 * total energy  :   -42.1615871 Eh     change       -0.6394885E-13 Eh
 * total energy  :   -42.1923974 Eh     change       -0.3081033E-01 Eh
 * total energy  :   -42.2162683 Eh     change       -0.2387092E-01 Eh
 * total energy  :   -42.2248368 Eh     change       -0.8568500E-02 Eh
 * total energy  :   -42.2307811 Eh     change       -0.5944307E-02 Eh
 * total energy  :   -42.2351371 Eh     change       -0.4356012E-02 Eh
 * total energy  :   -42.2381904 Eh     change       -0.3053281E-02 Eh
 * total energy  :   -42.2402989 Eh     change       -0.2108476E-02 Eh
 * total energy  :   -42.2414285 Eh     change       -0.1129630E-02 Eh
 * total energy  :   -42.2417359 Eh     change       -0.3073692E-03 Eh
 * total energy  :   -42.2421487 Eh     change       -0.4127730E-03 Eh
   *** GEOMETRY OPTIMIZATION CONVERGED AFTER 11 ITERATIONS ***

 final structure:
================
25
 xtb: 6.6.1 (8d0f1dd)
C            3.29167817351218        1.61387022433611        0.01869073556572
N            2.56740915687366        0.36813547150855        0.00932753294139
C            3.05833983303828       -0.86031316457567        0.00913600067603
N            2.05970455187006       -1.76056772270701        0.00708336540589
C            0.87581255236322       -1.08283939339757        0.00608612999754
C            1.19852865830965        0.26976148077024        0.00783175131785
C            0.16053523896002        1.27607740821577       -0.00164714957236
O            0.31422067111043        2.47236736359617       -0.01033444772770
N           -1.10941232495141        0.67177882236354       -0.00279367431229
C           -2.26332371134444        1.55552517044106       -0.00991204406244
C           -1.31385322897165       -0.67633016097712       -0.00135369385580
O           -2.57157573258558       -1.02961576651566       -0.00881281234679
N           -0.35884308856859       -1.57997692313488        0.00239337029248
C           -2.88166974129997       -2.42016958545960       -0.01079836216871
H            3.84519692628720        1.72519983217093        0.95160175662808
H            3.99446991751040        1.65393485050718       -0.81279716862800
H            2.57376096452061        2.42887508212532       -0.06938547474286
H            4.10247925733888       -1.10907446496254        0.00961434011760
H           -1.89326301118627        2.57917617623183       -0.00800362758488
H           -2.86418813073627        1.37988647643645       -0.90043734793846
H           -2.87441198528717        1.37979222623287        0.87357420797231
H           -2.51807786458786       -2.89093862385965        0.90451691974676
H           -2.42984609935169       -2.91013923953675       -0.87377895787394
H           -3.96527554255075       -2.46973621115012       -0.06424682166323
H            2.16203607382507       -2.76644078706135        0.00561708971850

          :  Hamiltonian                  GFN2-xTB          :
         :: total energy             -42.242148672733 Eh    ::
         :: gradient norm              0.005854443964 Eh/a0 ::
         :: HOMO-LUMO gap              3.281788636351 eV    ::
         :: SCC energy               -42.764241275905 Eh    ::
         :: -> dispersion             -0.022041860951 Eh    ::
         :: repulsion energy           0.522034161491 Eh    ::

    * Orbital Energies and Occupations

         #    Occupation            Energy/Eh            Energy/eV
      -------------------------------------------------------------
         1        2.0000           -0.9028091             -24.5667
       ...           ...                  ...                  ...
        25        2.0000           -0.6653830             -18.1060
        26        2.0000           -0.6531817             -17.7740
        27        2.0000           -0.6467512             -17.5990
        28        2.0000           -0.6374398             -17.3456
        29        2.0000           -0.6312169             -17.1763
        30        2.0000           -0.6129823             -16.6801
        31        2.0000           -0.6081854             -16.5496
        32        2.0000           -0.6004738             -16.3397
        33        2.0000           -0.5972086             -16.2509
        34        1.9999           -0.5670434             -15.4300
        35        1.9999           -0.5635317             -15.3345
        36        1.9997           -0.5560025             -15.1296
        37        1.9992           -0.5480804             -14.9140 (HOMO)
        38        0.0012           -0.4274769             -11.6322 (LUMO)
        39        0.0000           -0.4016112             -10.9284
        40        0.0000           -0.3690927             -10.0435
        41                         -0.2742107              -7.4617
        42                         -0.1877956              -5.1102
        43                         -0.1740073              -4.7350
        44                         -0.1346417              -3.6638
        45                         -0.1107501              -3.0137
        46                         -0.0671174              -1.8264
        47                         -0.0346319              -0.9424
        48                         -0.0191293              -0.5205
       ...                                ...                  ...
        67                          0.5439711              14.8022
      -------------------------------------------------------------
                  HL-Gap            0.1206035 Eh            3.2818 eV

     #   Z          covCN         q      C6AA      α(0)
     1   6 C        3.691    -0.094    22.495     6.787
     2   7 N        2.833     0.087    19.738     6.599
     3   6 C        3.072     0.063    26.522     8.444
     4   7 N        2.802    -0.051    22.218     7.001
     5   6 C        3.125     0.144    24.693     8.137
     6   6 C        3.138    -0.031    28.527     8.742
     7   6 C        2.769     0.275    22.355     7.743
     8   8 O        0.858    -0.375    21.194     6.172
     9   7 N        2.748    -0.070    22.598     7.060
    10   6 C        3.703    -0.067    21.954     6.699
    11   6 C        2.841     0.304    21.848     7.660
    12   8 O        1.708    -0.189    17.159     5.593
    13   7 N        1.832    -0.300    28.610     7.926
    14   6 C        3.655     0.005    20.797     6.547
    15   1 H        0.924     0.107     1.719     2.050
    16   1 H        0.925     0.105     1.736     2.061
    17   1 H        0.925     0.136     1.489     1.908
    18   1 H        0.926     0.126     1.568     1.958
    19   1 H        0.925     0.118     1.629     1.996
    20   1 H        0.925     0.093     1.850     2.127
    21   1 H        0.925     0.093     1.850     2.127
    22   1 H        0.924     0.088     1.903     2.157
    23   1 H        0.924     0.087     1.904     2.158
    24   1 H        0.925     0.108     1.712     2.046
    25   1 H        0.860     0.238     0.932     1.513

Wiberg/Mayer (AO) data.
largest (>0.10) Wiberg bond orders for each atom

     #   Z sym  total        # sym  WBO       # sym  WBO       # sym  WBO
 ---------------------------------------------------------------------------
     1   6 C    3.917 --     2 N    0.982    16 H    0.962    17 H    0.962
                            15 H    0.958
     2   7 N    3.727 --     3 C    1.419     6 C    1.168     1 C    0.982
     3   6 C    3.936 --     2 N    1.419     4 N    1.313    18 H    0.951
     4   7 N    3.626 --     3 C    1.313     5 C    1.180    25 H    0.916
     5   6 C    3.965 --     6 C    1.334    13 N    1.270     4 N    1.180
     6   6 C    3.942 --     5 C    1.334     2 N    1.168     7 C    1.087
     7   6 C    3.963 --     8 O    1.698     6 C    1.087     9 N    1.077
     8   8 O    2.072 --     7 C    1.698     9 N    0.151
     9   7 N    3.601 --    11 C    1.203     7 C    1.077    10 C    0.972
                             8 O    0.151
    10   6 C    3.924 --     9 N    0.972    21 H    0.967    20 H    0.967
                            19 H    0.967
    11   6 C    3.951 --    13 N    1.384    12 O    1.209     9 N    1.203
    12   8 O    2.371 --    11 C    1.209    14 C    0.932
    13   7 N    3.015 --    11 C    1.384     5 C    1.270
    14   6 C    3.886 --    24 H    0.975    23 H    0.973    22 H    0.973
                            12 O    0.932
    15   1 H    0.988 --     1 C    0.958
    16   1 H    0.988 --     1 C    0.962
    17   1 H    0.981 --     1 C    0.962
    18   1 H    0.983 --     3 C    0.951
    19   1 H    0.986 --    10 C    0.967
    20   1 H    0.990 --    10 C    0.967
    21   1 H    0.990 --    10 C    0.967
    22   1 H    0.992 --    14 C    0.973
    23   1 H    0.992 --    14 C    0.973
    24   1 H    0.988 --    14 C    0.975
    25   1 H    0.943 --     4 N    0.916
 ---------------------------------------------------------------------------

molecular dipole:
                 x           y           z       tot (Debye)
 q only:        1.929      -1.604       0.013
   full:        2.242      -1.821       0.019       7.341

           -------------------------------------------------
          | TOTAL ENERGY              -42.242148672733 Eh   |
          | GRADIENT NORM               0.005854443964 Eh/α |
          | HOMO-LUMO GAP               3.281788636351 eV   |
           -------------------------------------------------

 * finished run on 2024/06/05 at 19:58:01.958
