   * xtb version 6.6.1 (8d0f1dd) compiled by 'conda@1efc2f54142f' on 2023-08-01
          program call               : xtb struc.xyz --opt loose --input .xc1 --gfn2

   ID    Z sym.   atoms
    1    7 N      1, 17
    2    6 C      2-6, 8, 9, 11-16, 18-23, 25, 26, 28-33
    3    8 O      7, 10, 24, 27
    4    1 H      34-72
constraining bond 27 58 to    2.6333300 Å, actual value:    1.9958920 Å

          :  Hamiltonian                  GFN2-xTB          :
 * total energy  :   -99.4766819 Eh     change       -0.4035485E-08 Eh
 * total energy  :   -99.5939222 Eh     change       -0.1172403E+00 Eh
 * total energy  :   -99.7279866 Eh     change       -0.1340644E+00 Eh
 * total energy  :   -98.1004802 Eh     change        0.1627506E+01 Eh
 * total energy  :   -99.7804494 Eh     change       -0.1679969E+01 Eh
 * total energy  :   -99.8113357 Eh     change       -0.3088630E-01 Eh
 * total energy  :   -99.8116798 Eh     change       -0.3441498E-03 Eh
 * total energy  :   -99.8198817 Eh     change       -0.8201861E-02 Eh
 * total energy  :   -99.8229066 Eh     change       -0.3024872E-02 Eh
 * total energy  :   -99.8256409 Eh     change       -0.2734338E-02 Eh
 * total energy  :   -99.8515689 Eh     change       -0.1088616E-03 Eh
 * total energy  :   -99.8516585 Eh     change       -0.8950354E-04 Eh
 * total energy  :   -99.8517415 Eh     change       -0.8300222E-04 Eh
 * total energy  :   -99.8518300 Eh     change       -0.8850803E-04 Eh
 * total energy  :   -99.8519226 Eh     change       -0.9268839E-04 Eh
 * total energy  :   -99.8520120 Eh     change       -0.8936057E-04 Eh
 * total energy  :   -99.8521001 Eh     change       -0.8808844E-04 Eh
 * total energy  :   -99.8521700 Eh     change       -0.6992678E-04 Eh
 * total energy  :   -99.8522147 Eh     change       -0.4464760E-04 Eh
   *** GEOMETRY OPTIMIZATION CONVERGED AFTER 37 ITERATIONS ***

 final structure:
================
72
 xtb: 6.6.1 (8d0f1dd)
N           -2.00120000501836        2.98612579968383        2.20541241017001
C           -1.92356341910788        2.24328875578085        1.20262938433326
C           -3.05712935611623        1.96833113749577        0.25371152612449
C           -3.44124771887662        0.49901551981001        0.33320576618557
C           -4.33290446458367       -0.03515622255963       -0.59985082575398
C           -4.74346330541180       -1.35539963364879       -0.53537007035743
O           -5.61284317529600       -1.94404273721230       -1.38701949420892
C           -6.25902338212807       -1.15685561458675       -2.35878006404621
C           -4.23956133301973       -2.19534387739818        0.49206281953303
O           -4.69224349642105       -3.46813346900568        0.47720866430559
C           -4.31803182078536       -4.33616591112582        1.52062751531110
C           -3.35239919576476       -1.66185663591134        1.41187278417528
C           -2.96245907036122       -0.32980560695613        1.33452183430001
C           -2.51630243904346        2.30906256409366       -1.16030974882279
C           -1.54899810991997        1.26598895266905       -1.75126934155293
C           -0.21576708942825        1.25925186872802       -1.10945230202185
N            0.45158857073963        0.16591191477246       -0.72885254287474
C            1.82035576413598        0.25661367115415       -0.28369049817815
C            2.80909419839108       -0.22019816067555       -1.36648477548300
C            4.22341027689093       -0.11977752582778       -0.87315278197162
C            5.01971232230299        0.97636872988977       -1.17574216789415
C            6.32573479228498        1.07725930567054       -0.71859769277464
C            6.86824961421517        0.06827727754669        0.06776824693920
O            8.12975684855983        0.01810563765138        0.57475765289053
C            9.02383543388331        1.06831862819850        0.26779480918978
C            6.05261420919140       -1.02653032394405        0.38147983579154
O            6.63721130509376       -2.04952919680252        1.21233763642080
C            6.36568114811400       -3.45892558744642        0.90514666240185
C            4.75693243195941       -1.12969059483388       -0.07650859849663
C           -0.13816108877789       -1.14949866603310       -0.80006798769984
C           -4.33180085145698        2.81353530042971        0.54807672385479
C           -4.94125147543554        2.45342813477817        1.90105214867433
C           -4.08734713245928        4.31838084432387        0.47727535791143
H           -4.72423881604639        0.59897952076656       -1.37790902826998
H           -6.82159966898822       -0.33711466059609       -1.90152091882842
H           -6.94960330961596       -1.82797193907254       -2.86568096105896
H           -5.54965305214709       -0.75248638976851       -3.08849550435410
H           -4.61625295554863       -3.94236561135480        2.49698601664705
H           -4.84832795409293       -5.26721525207307        1.33013552287682
H           -3.23973695304109       -4.52726507780394        1.51771746807650
H           -2.96574569842198       -2.27134749295068        2.21259795962350
H           -2.29809078806825        0.05834544005641        2.09117054366659
H           -3.36029943915147        2.40729440098591       -1.84217992086160
H           -2.01312950544070        3.27581699503113       -1.11803839220447
H           -2.01271030019886        0.28190417807428       -1.71999690726026
H           -1.40864856140184        1.53608327763084       -2.80663943443747
H           -0.99107987573416        1.74441689211174        0.87808063304876
H            0.32363669404954        2.19289188337529       -1.06261618920920
H            1.94560556877781       -0.35368450258374        0.61536404881052
H            2.04850543073619        1.29283932653241       -0.02685742847027
H            2.68095623228922        0.39708944597566       -2.25589947331935
H            2.58333615923229       -1.25414147311504       -1.62971828370672
H            4.62563056861860        1.76721987598480       -1.79452828241448
H            6.91582181036276        1.93848699121529       -0.98364891697473
H            8.67380365477570        2.01754264019117        0.68024274708450
H            9.16725452937908        1.16217445575041       -0.81077994471048
H            9.96608623134308        0.79430300463586        0.73716593350952
H            7.40902022185852       -1.93148759430942        1.24645237850593
H            5.39323915610444       -3.73710162594760        1.28375726574261
H            6.52091121724632       -3.68370888428041       -0.14218964326046
H            4.17679687874003       -2.00412776058231        0.17275320816578
H           -0.31464507950392       -1.44906528297443       -1.83556868246789
H           -1.08918169026628       -1.17148782485461       -0.26153405824927
H            0.53395823772035       -1.86973883574713       -0.34096965911406
H           -5.06095693913178        2.55310381957871       -0.22775447701557
H           -4.25597456156958        2.71736949704526        2.69974093873680
H           -5.16299721473107        1.39069339576732        1.96176618583217
H           -5.86747674806638        3.00436888800457        2.04140957485159
H           -3.34319569765140        4.61356871248124        1.21020621851552
H           -3.76215694779202        4.63071944299942       -0.51157380520274
H           -5.01367778493421        4.84018112546083        0.70335946724796
H           -1.15714643906269        3.11870224213970        2.75466575667785

          :  Hamiltonian                  GFN2-xTB          :
         :: total energy             -99.852214682445 Eh    ::
         :: gradient norm              0.003000864711 Eh/a0 ::
         :: HOMO-LUMO gap              1.060994644984 eV    ::
         :: SCC energy              -100.682876588370 Eh    ::
         :: -> dispersion             -0.075642862567 Eh    ::
         :: repulsion energy           1.441668461653 Eh    ::

    * Orbital Energies and Occupations

         #    Occupation            Energy/Eh            Energy/eV
      -------------------------------------------------------------
         1        2.0000           -0.8772390             -23.8709
       ...           ...                  ...                  ...
        78        1.9993           -0.5262110             -14.3189
        79        1.9990           -0.5211576             -14.1814
        80        1.9988           -0.5187995             -14.1173
        81        1.9988           -0.5180111             -14.0958
        82        1.9982           -0.5120657             -13.9340
        83        1.9972           -0.5047238             -13.7342
        84        1.9967           -0.5021086             -13.6631
        85        1.9960           -0.4992868             -13.5863
        86        1.9943           -0.4935451             -13.4300
        87        1.9860           -0.4793960             -13.0450
        88        1.9527           -0.4597973             -12.5117
        89        1.9079           -0.4488783             -12.2146
        90        1.5809           -0.4219076             -11.4807 (HOMO)
        91        0.4865           -0.3829168             -10.4197 (LUMO)
        92        0.0540           -0.3441160              -9.3639
        93        0.0303           -0.3348114              -9.1107
        94        0.0184           -0.3267559              -8.8915
        95        0.0048           -0.3055040              -8.3132
        96        0.0039           -0.3020730              -8.2198
        97        0.0000           -0.2147771              -5.8444
        98        0.0000           -0.1794858              -4.8841
        99        0.0000           -0.1689587              -4.5976
       100                         -0.1289915              -3.5100
       101                         -0.0846377              -2.3031
       ...                                ...                  ...
       171                          0.5839895              15.8912
      -------------------------------------------------------------
                  HL-Gap            0.0389908 Eh            1.0610 eV

     #   Z          covCN         q      C6AA      α(0)
     1   7 N        1.774    -0.277    28.006     7.837
     2   6 C        2.827     0.101    25.756     8.316
     3   6 C        3.907     0.006    20.419     6.423
     4   6 C        2.974     0.001    28.006     8.681
     5   6 C        2.921    -0.081    30.017     8.985
     6   6 C        2.863     0.127    25.209     8.230
     7   8 O        1.706    -0.236    17.915     5.715
     8   6 C        3.645     0.030    20.412     6.494
     9   6 C        2.864     0.126    25.234     8.234
    10   8 O        1.706    -0.235    17.898     5.712
    11   6 C        3.645     0.029    20.419     6.494
    12   6 C        2.914    -0.076    29.896     8.966
    13   6 C        2.922    -0.054    29.352     8.884
    14   6 C        3.812    -0.063    21.706     6.632
    15   6 C        3.802    -0.068    21.797     6.647
    16   6 C        2.841    -0.003    28.086     8.685
    17   7 N        2.729    -0.002    21.294     6.854
    18   6 C        3.754    -0.014    20.887     6.517
    19   6 C        3.807    -0.074    21.902     6.662
    20   6 C        2.971     0.004    27.941     8.671
    21   6 C        2.923    -0.043    29.075     8.843
    22   6 C        2.918    -0.064    29.599     8.922
    23   6 C        2.860     0.124    25.265     8.239
    24   8 O        1.705    -0.274    18.540     5.814
    25   6 C        3.643     0.028    20.449     6.501
    26   6 C        2.850     0.073    26.360     8.415
    27   8 O        2.498    -0.116    16.027     5.407
    28   6 C        2.697    -0.137    31.492     9.185
    29   6 C        2.920    -0.055    29.359     8.885
    30   6 C        3.699    -0.068    21.978     6.705
    31   6 C        3.853    -0.007    20.672     6.467
    32   6 C        3.756    -0.117    22.804     6.809
    33   6 C        3.755    -0.118    22.816     6.811
    34   1 H        0.926     0.050     2.326     2.385
    35   1 H        0.924     0.051     2.304     2.374
    36   1 H        0.925     0.078     2.000     2.211
    37   1 H        0.924     0.044     2.390     2.418
    38   1 H        0.924     0.052     2.295     2.369
    39   1 H        0.925     0.078     2.000     2.212
    40   1 H        0.924     0.045     2.384     2.415
    41   1 H        0.926     0.048     2.340     2.392
    42   1 H        0.926     0.036     2.502     2.473
    43   1 H        0.925     0.057     2.229     2.335
    44   1 H        0.924     0.051     2.310     2.377
    45   1 H        0.925     0.064     2.151     2.294
    46   1 H        0.923     0.073     2.054     2.241
    47   1 H        0.922     0.002     3.029     2.722
    48   1 H        0.926     0.061     2.190     2.314
    49   1 H        0.924     0.064     2.149     2.293
    50   1 H        0.924     0.065     2.145     2.290
    51   1 H        0.925     0.059     2.206     2.323
    52   1 H        0.924     0.061     2.186     2.312
    53   1 H        0.926     0.058     2.223     2.332
    54   1 H        0.926     0.066     2.129     2.282
    55   1 H        0.924     0.055     2.253     2.347
    56   1 H        0.924     0.056     2.250     2.346
    57   1 H        0.925     0.079     1.991     2.206
    58   1 H        0.811     0.358     0.570     1.185
    59   1 H        0.926     0.031     2.573     2.509
    60   1 H        0.925     0.020     2.738     2.588
    61   1 H        0.926     0.069     2.098     2.265
    62   1 H        0.924     0.072     2.065     2.247
    63   1 H        0.924     0.079     1.993     2.207
    64   1 H        0.925     0.075     2.036     2.231
    65   1 H        0.924     0.034     2.525     2.485
    66   1 H        0.925     0.066     2.125     2.280
    67   1 H        0.925     0.034     2.532     2.489
    68   1 H        0.925     0.048     2.344     2.394
    69   1 H        0.925     0.061     2.192     2.315
    70   1 H        0.925     0.033     2.550     2.497
    71   1 H        0.925     0.051     2.302     2.373
    72   1 H        0.860     0.151     1.395     1.850

Wiberg/Mayer (AO) data.
largest (>0.10) Wiberg bond orders for each atom

     #   Z sym  total        # sym  WBO       # sym  WBO       # sym  WBO
 ---------------------------------------------------------------------------
     1   7 N    3.031 --     2 C    1.950    72 H    0.945
     2   6 C    3.927 --     1 N    1.950     3 C    0.996    47 H    0.907
     3   6 C    3.979 --     2 C    0.996     4 C    0.971    14 C    0.956
                            31 C    0.944
     4   6 C    3.957 --    13 C    1.420     5 C    1.366     3 C    0.971
     5   6 C    3.966 --     6 C    1.406     4 C    1.366    34 H    0.958
     6   6 C    3.913 --     5 C    1.406     9 C    1.229     7 O    1.091
     7   8 O    2.252 --     6 C    1.091     8 C    0.980
     8   6 C    3.935 --     7 O    0.980    36 H    0.977    35 H    0.974
                            37 H    0.974
     9   6 C    3.910 --    12 C    1.398     6 C    1.229    10 O    1.093
    10   8 O    2.250 --     9 C    1.093    11 C    0.980
    11   6 C    3.935 --    10 O    0.980    39 H    0.977    40 H    0.974
                            38 H    0.974
    12   6 C    3.967 --    13 C    1.399     9 C    1.398    41 H    0.964
    13   6 C    3.962 --     4 C    1.420    12 C    1.399    42 H    0.963
    14   6 C    3.971 --    15 C    0.980    44 H    0.973    43 H    0.969
                             3 C    0.956
    15   6 C    3.988 --    16 C    1.060    14 C    0.980    45 H    0.962
                            46 H    0.931
    16   6 C    3.528 --    17 N    1.358    15 C    1.060    48 H    0.959
    17   7 N    3.436 --    16 C    1.358    30 C    0.999    18 C    0.995
    18   6 C    3.963 --    17 N    0.995    50 H    0.969    19 C    0.968
                            49 H    0.964
    19   6 C    3.978 --    20 C    1.012    51 H    0.973    52 H    0.968
                            18 C    0.968
    20   6 C    3.963 --    21 C    1.410    29 C    1.378    19 C    1.012
    21   6 C    3.953 --    22 C    1.425    20 C    1.410    53 H    0.967
    22   6 C    3.955 --    21 C    1.425    23 C    1.368    54 H    0.963
    23   6 C    3.915 --    22 C    1.368    26 C    1.302    24 O    1.072
    24   8 O    2.229 --    23 C    1.072    25 C    0.969
    25   6 C    3.928 --    57 H    0.977    55 H    0.977    56 H    0.977
                            24 O    0.969
    26   6 C    3.826 --    29 C    1.427    23 C    1.302    27 O    0.877
    27   8 O    2.616 --    26 C    0.877    58 H    0.853    28 C    0.799
    28   6 C    2.822 --    59 H    0.980    60 H    0.980    27 O    0.799
    29   6 C    3.946 --    26 C    1.427    20 C    1.378    61 H    0.959
    30   6 C    3.960 --    17 N    0.999    64 H    0.978    62 H    0.968
                            63 H    0.961
    31   6 C    3.976 --    33 C    1.009    32 C    1.009    65 H    0.961
                             3 C    0.944
    32   6 C    3.983 --    31 C    1.009    67 H    0.983    68 H    0.983
                            66 H    0.976
    33   6 C    3.986 --    31 C    1.009    70 H    0.984    71 H    0.981
                            69 H    0.977
    34   1 H    0.996 --     5 C    0.958
    35   1 H    0.995 --     8 C    0.974
    36   1 H    0.993 --     8 C    0.977
    37   1 H    0.995 --     8 C    0.974
    38   1 H    0.994 --    11 C    0.974
    39   1 H    0.993 --    11 C    0.977
    40   1 H    0.995 --    11 C    0.974
    41   1 H    0.996 --    12 C    0.964
    42   1 H    0.998 --    13 C    0.963
    43   1 H    0.995 --    14 C    0.969
    44   1 H    0.997 --    14 C    0.973
    45   1 H    0.995 --    15 C    0.962
    46   1 H    0.968 --    15 C    0.931
    47   1 H    0.990 --     2 C    0.907
    48   1 H    0.996 --    16 C    0.959
    49   1 H    0.990 --    18 C    0.964
    50   1 H    0.995 --    18 C    0.969
    51   1 H    0.996 --    19 C    0.973
    52   1 H    0.995 --    19 C    0.968
    53   1 H    0.996 --    21 C    0.967
    54   1 H    0.994 --    22 C    0.963
    55   1 H    0.996 --    25 C    0.977
    56   1 H    0.996 --    25 C    0.977
    57   1 H    0.993 --    25 C    0.977
    58   1 H    0.871 --    27 O    0.853
    59   1 H    0.990 --    28 C    0.980
    60   1 H    0.990 --    28 C    0.980
    61   1 H    0.994 --    29 C    0.959
    62   1 H    0.985 --    30 C    0.968
    63   1 H    0.986 --    30 C    0.961
    64   1 H    0.994 --    30 C    0.978
    65   1 H    0.994 --    31 C    0.961
    66   1 H    0.993 --    32 C    0.976
    67   1 H    0.997 --    32 C    0.983
    68   1 H    0.995 --    32 C    0.983
    69   1 H    0.994 --    33 C    0.977
    70   1 H    0.998 --    33 C    0.984
    71   1 H    0.995 --    33 C    0.981
    72   1 H    0.973 --     1 N    0.945
 ---------------------------------------------------------------------------

molecular dipole:
                 x           y           z       tot (Debye)
 q only:        3.268       0.182      -0.718
   full:        3.792       0.436      -1.001      10.031

           -------------------------------------------------
          | TOTAL ENERGY              -99.852214682445 Eh   |
          | GRADIENT NORM               0.003000864711 Eh/α |
          | HOMO-LUMO GAP               1.060994644984 eV   |
           -------------------------------------------------

 * finished run on 2024/04/06 at 11:16:11.722
