   * xtb version 6.6.1 (8d0f1dd) compiled by 'conda@1efc2f54142f' on 2023-08-01
          program call               : xtb xtbopt.xyz --opt crude --input .xc2 --gfn2

   ID    Z sym.   atoms
    1    7 N      1, 17
    2    6 C      2-6, 8, 9, 11-16, 18-23, 25, 26, 28-33
    3    8 O      7, 10, 24, 27
    4    1 H      34-72
########################################################################
[WARNING] Please study the warnings concerning your input carefully
-1- readin_getIntValue: could not parse ''
########################################################################

          :  Hamiltonian                  GFN2-xTB          :
 * total energy  :   -99.2399256 Eh     change       -0.2389839E-09 Eh
 * total energy  :   -99.2883419 Eh     change       -0.4841630E-01 Eh
 * total energy  :   -99.2853105 Eh     change        0.3031357E-02 Eh
 * total energy  :   -99.2879783 Eh     change       -0.2667797E-02 Eh
 * total energy  :   -99.2888535 Eh     change       -0.8751745E-03 Eh
 * total energy  :   -99.2891274 Eh     change       -0.2738767E-03 Eh
   *** GEOMETRY OPTIMIZATION CONVERGED AFTER 6 ITERATIONS ***

 final structure:
================
72
 xtb: 6.6.1 (8d0f1dd)
N           -1.96412924854450        2.93811277441140        2.20055866642024
C           -1.91362688525808        2.21110840387650        1.18433011470490
C           -3.06284366291170        1.95710720793162        0.24841154102250
C           -3.45520851138893        0.48837132815504        0.31308835381626
C           -4.34444909590818       -0.04507536387382       -0.62267869191828
C           -4.75564975813543       -1.36571512014758       -0.55671706311350
O           -5.62379719714316       -1.95939815486299       -1.40584747116676
C           -6.28889506026767       -1.18045088066602       -2.37109789764803
C           -4.25314001051363       -2.20668146986331        0.47082678726380
O           -4.70175204788621       -3.48094581985552        0.45298815488413
C           -4.31100438866623       -4.35261696496480        1.48699781094013
C           -3.37232557030641       -1.67250273130814        1.39591085755965
C           -2.98380429572641       -0.34055322521162        1.31844087618109
C           -2.53919697323681        2.31598509287155       -1.16630096413336
C           -1.55679935318740        1.29511340726670       -1.77214273364486
C           -0.22139372463565        1.29835756226637       -1.13337608784898
N            0.45215595322383        0.21001400348631       -0.74579648675447
C            1.82115869299883        0.30750136236462       -0.30648037566353
C            2.80171285873752       -0.21013493909370       -1.37783099146496
C            4.21611728794517       -0.12023708496725       -0.88356446109661
C            5.03467804196005        0.94996513376939       -1.21980614933019
C            6.34085097982229        1.04116214407646       -0.76061893602634
C            6.85641697764366        0.05179000571884        0.06677389754373
O            8.11509297037350       -0.01129503183691        0.58478528552812
C            9.02837778034304        1.01870467498907        0.25849867874391
C            6.01952034506465       -1.01203672922514        0.41976074238510
O            6.57058548057537       -1.99995317022847        1.30179351356119
C            6.37834472297388       -3.41341249213470        0.97057776197333
C            4.72410414914730       -1.11065260513792       -0.04602738784695
C           -0.14638477631687       -1.10270930705914       -0.76906363295329
C           -4.32545550723566        2.80691977380079        0.57718227090718
C           -4.90172775905882        2.44761256323608        1.94492707746094
C           -4.06939695252721        4.31006900857596        0.50631446253357
H           -4.73471903711992        0.58701629462321       -1.40357716072473
H           -6.85250778390519       -0.36382413378337       -1.90968186988743
H           -6.98059392165900       -1.85964822422717       -2.86598650611128
H           -5.59368622402622       -0.77301534966579       -3.11238013354098
H           -4.61083313102430       -3.97200694830007        2.46801239305393
H           -4.82820133042438       -5.28977884679273        1.29100021884018
H           -3.23009134594186       -4.52742588910470        1.47798584272047
H           -2.98992665968895       -2.27939036713903        2.20031180739055
H           -2.32450308047976        0.04899594287839        2.07870214909512
H           -3.38938177220988        2.40276282965184       -1.84242538520422
H           -2.05253301879792        3.29102370533305       -1.12097330583534
H           -2.00576454279408        0.30413891019500       -1.75542264743982
H           -1.42096467732105        1.58448641758401       -2.82266630823548
H           -0.98928156454892        1.71722865977251        0.83076694920676
H            0.31763132090295        2.23297005514016       -1.10325989671592
H            1.94666250928774       -0.27578739629118        0.61108164131832
H            2.05679426608993        1.34969718401019       -0.08177836609666
H            2.68122265676212        0.38610998630514       -2.28299049735803
H            2.55907752540939       -1.24692796295127       -1.61438400189826
H            4.65818137462681        1.72698710819656       -1.86677217859220
H            6.94841004943933        1.87981256448065       -1.05562400080808
H            8.67978820376490        1.98449443360998        0.63153468366695
H            9.19084319721890        1.07355936360273       -0.82044569417250
H            9.95920333404960        0.75212709166610        0.75424578150578
H            7.53083410364495       -1.82383633752269        1.34207329322851
H            5.41739205929860       -3.74040050447881        1.34211874715421
H            6.54884755709539       -3.62053492247188       -0.07764656638549
H            4.12695595066998       -1.96460764360738        0.23209606427645
H           -0.33355612476200       -1.43569656940729       -1.79202278738828
H           -1.09293046751031       -1.10013990488299       -0.22210553114116
H            0.52537046958534       -1.81163825312445       -0.29200840443468
H           -5.07599717263355        2.55316458740962       -0.18011557131956
H           -4.19273343750874        2.70294522120047        2.72522800693742
H           -5.13153853951999        1.38676511767970        2.00856198684707
H           -5.81814165180523        3.00679341133702        2.11253165711920
H           -3.30156164110623        4.59348317086491        1.21942820738484
H           -3.76926413337339        4.62469537985725       -0.48960754524051
H           -4.98328078172569        4.84060846438364        0.76079584360829
H           -1.10684240293529        3.05540952009960        2.73184640496299

          :  Hamiltonian                  GFN2-xTB          :
         :: total energy             -99.289127389756 Eh    ::
         :: gradient norm              0.006478265609 Eh/a0 ::
         :: HOMO-LUMO gap              1.040583580979 eV    ::
         :: SCC energy              -100.660916037748 Eh    ::
         :: -> dispersion             -0.075713827722 Eh    ::
         :: repulsion energy           1.370508334476 Eh    ::

    * Orbital Energies and Occupations

         #    Occupation            Energy/Eh            Energy/eV
      -------------------------------------------------------------
         1        2.0000           -0.8679903             -23.6192
       ...           ...                  ...                  ...
        78        1.9993           -0.5253659             -14.2959
        79        1.9991           -0.5210854             -14.1795
        80        1.9989           -0.5183109             -14.1040
        81        1.9988           -0.5175268             -14.0826
        82        1.9983           -0.5112659             -13.9123
        83        1.9973           -0.5043125             -13.7230
        84        1.9968           -0.5018392             -13.6557
        85        1.9961           -0.4986001             -13.5676
        86        1.9949           -0.4942495             -13.4492
        87        1.9865           -0.4786896             -13.0258
        88        1.9548           -0.4593381             -12.4992
        89        1.9096           -0.4480098             -12.1910
        90        1.5672           -0.4200811             -11.4310 (HOMO)
        91        0.4889           -0.3818403             -10.3904 (LUMO)
        92        0.0568           -0.3437727              -9.3545
        93        0.0320           -0.3344927              -9.1020
        94        0.0193           -0.3264051              -8.8819
        95        0.0049           -0.3046815              -8.2908
        96        0.0040           -0.3014090              -8.2018
        97        0.0000           -0.2148763              -5.8471
        98        0.0000           -0.1787859              -4.8650
        99        0.0000           -0.1749329              -4.7602
       100                         -0.1276921              -3.4747
       101                         -0.0902213              -2.4550
       ...                                ...                  ...
       171                          0.5842772              15.8990
      -------------------------------------------------------------
                  HL-Gap            0.0382407 Eh            1.0406 eV

     #   Z          covCN         q      C6AA      α(0)
     1   7 N        1.773    -0.278    28.029     7.840
     2   6 C        2.828     0.100    25.768     8.318
     3   6 C        3.907     0.006    20.416     6.422
     4   6 C        2.974     0.000    28.016     8.682
     5   6 C        2.920    -0.080    30.006     8.983
     6   6 C        2.862     0.127    25.208     8.230
     7   8 O        1.706    -0.236    17.919     5.715
     8   6 C        3.644     0.030    20.413     6.495
     9   6 C        2.865     0.126    25.232     8.234
    10   8 O        1.706    -0.235    17.897     5.712
    11   6 C        3.646     0.029    20.415     6.493
    12   6 C        2.914    -0.076    29.898     8.966
    13   6 C        2.922    -0.055    29.360     8.886
    14   6 C        3.812    -0.063    21.705     6.631
    15   6 C        3.802    -0.067    21.792     6.646
    16   6 C        2.841    -0.003    28.090     8.686
    17   7 N        2.729    -0.003    21.323     6.858
    18   6 C        3.754    -0.014    20.874     6.515
    19   6 C        3.808    -0.073    21.897     6.661
    20   6 C        2.970     0.004    27.941     8.670
    21   6 C        2.923    -0.044    29.084     8.844
    22   6 C        2.918    -0.064    29.592     8.920
    23   6 C        2.861     0.121    25.329     8.249
    24   8 O        1.705    -0.278    18.614     5.825
    25   6 C        3.643     0.028    20.450     6.501
    26   6 C        2.851     0.077    26.282     8.402
    27   8 O        2.494    -0.116    16.038     5.409
    28   6 C        2.698    -0.132    31.345     9.163
    29   6 C        2.920    -0.054    29.338     8.882
    30   6 C        3.699    -0.068    21.973     6.704
    31   6 C        3.853    -0.007    20.669     6.466
    32   6 C        3.756    -0.118    22.813     6.810
    33   6 C        3.755    -0.118    22.812     6.810
    34   1 H        0.926     0.049     2.333     2.389
    35   1 H        0.924     0.051     2.307     2.376
    36   1 H        0.925     0.078     2.001     2.212
    37   1 H        0.924     0.045     2.389     2.417
    38   1 H        0.924     0.052     2.297     2.370
    39   1 H        0.925     0.078     2.002     2.213
    40   1 H        0.924     0.045     2.387     2.416
    41   1 H        0.926     0.048     2.341     2.393
    42   1 H        0.926     0.036     2.500     2.472
    43   1 H        0.925     0.057     2.230     2.335
    44   1 H        0.924     0.051     2.306     2.375
    45   1 H        0.925     0.063     2.159     2.298
    46   1 H        0.923     0.072     2.059     2.244
    47   1 H        0.922     0.003     3.011     2.714
    48   1 H        0.926     0.060     2.198     2.318
    49   1 H        0.924     0.063     2.160     2.298
    50   1 H        0.924     0.064     2.152     2.294
    51   1 H        0.924     0.059     2.208     2.324
    52   1 H        0.924     0.061     2.187     2.313
    53   1 H        0.926     0.058     2.224     2.332
    54   1 H        0.926     0.065     2.136     2.285
    55   1 H        0.924     0.057     2.239     2.340
    56   1 H        0.924     0.057     2.236     2.339
    57   1 H        0.925     0.079     1.994     2.208
    58   1 H        0.803     0.366     0.552     1.167
    59   1 H        0.926     0.031     2.567     2.505
    60   1 H        0.925     0.017     2.775     2.605
    61   1 H        0.926     0.067     2.116     2.275
    62   1 H        0.924     0.071     2.071     2.251
    63   1 H        0.924     0.079     1.994     2.208
    64   1 H        0.925     0.074     2.045     2.236
    65   1 H        0.924     0.034     2.526     2.485
    66   1 H        0.925     0.067     2.117     2.275
    67   1 H        0.925     0.034     2.532     2.488
    68   1 H        0.925     0.048     2.345     2.395
    69   1 H        0.925     0.060     2.203     2.321
    70   1 H        0.925     0.033     2.549     2.497
    71   1 H        0.925     0.051     2.303     2.373
    72   1 H        0.860     0.151     1.397     1.852

Wiberg/Mayer (AO) data.
largest (>0.10) Wiberg bond orders for each atom

     #   Z sym  total        # sym  WBO       # sym  WBO       # sym  WBO
 ---------------------------------------------------------------------------
     1   7 N    3.032 --     2 C    1.948    72 H    0.945
     2   6 C    3.924 --     1 N    1.948     3 C    0.995    47 H    0.904
     3   6 C    3.979 --     2 C    0.995     4 C    0.970    14 C    0.957
                            31 C    0.944
     4   6 C    3.957 --    13 C    1.419     5 C    1.367     3 C    0.970
     5   6 C    3.967 --     6 C    1.405     4 C    1.367    34 H    0.959
     6   6 C    3.913 --     5 C    1.405     9 C    1.230     7 O    1.091
     7   8 O    2.252 --     6 C    1.091     8 C    0.980
     8   6 C    3.935 --     7 O    0.980    36 H    0.977    35 H    0.975
                            37 H    0.974
     9   6 C    3.910 --    12 C    1.398     6 C    1.230    10 O    1.093
    10   8 O    2.251 --     9 C    1.093    11 C    0.980
    11   6 C    3.935 --    10 O    0.980    39 H    0.977    40 H    0.975
                            38 H    0.974
    12   6 C    3.967 --    13 C    1.399     9 C    1.398    41 H    0.964
    13   6 C    3.962 --     4 C    1.419    12 C    1.399    42 H    0.962
    14   6 C    3.970 --    15 C    0.979    44 H    0.973    43 H    0.969
                             3 C    0.957
    15   6 C    3.988 --    16 C    1.059    14 C    0.979    45 H    0.963
                            46 H    0.932
    16   6 C    3.528 --    17 N    1.353    15 C    1.059    48 H    0.960
    17   7 N    3.434 --    16 C    1.353    30 C    1.000    18 C    0.995
    18   6 C    3.963 --    17 N    0.995    50 H    0.969    19 C    0.968
                            49 H    0.963
    19   6 C    3.978 --    20 C    1.012    51 H    0.973    52 H    0.968
                            18 C    0.968
    20   6 C    3.962 --    21 C    1.409    29 C    1.379    19 C    1.012
    21   6 C    3.951 --    22 C    1.423    20 C    1.409    53 H    0.967
    22   6 C    3.953 --    21 C    1.423    23 C    1.370    54 H    0.963
    23   6 C    3.912 --    22 C    1.370    26 C    1.305    24 O    1.065
    24   8 O    2.228 --    23 C    1.065    25 C    0.965
    25   6 C    3.927 --    57 H    0.978    55 H    0.977    56 H    0.977
                            24 O    0.965
    26   6 C    3.831 --    29 C    1.421    23 C    1.305    27 O    0.891
    27   8 O    2.611 --    26 C    0.891    58 H    0.827    28 C    0.806
    28   6 C    2.824 --    60 H    0.980    59 H    0.977    27 O    0.806
    29   6 C    3.944 --    26 C    1.421    20 C    1.379    61 H    0.961
    30   6 C    3.960 --    17 N    1.000    64 H    0.978    62 H    0.968
                            63 H    0.960
    31   6 C    3.976 --    33 C    1.009    32 C    1.009    65 H    0.962
                             3 C    0.944
    32   6 C    3.983 --    31 C    1.009    67 H    0.983    68 H    0.983
                            66 H    0.976
    33   6 C    3.986 --    31 C    1.009    70 H    0.984    71 H    0.981
                            69 H    0.978
    34   1 H    0.996 --     5 C    0.959
    35   1 H    0.995 --     8 C    0.975
    36   1 H    0.993 --     8 C    0.977
    37   1 H    0.995 --     8 C    0.974
    38   1 H    0.994 --    11 C    0.974
    39   1 H    0.993 --    11 C    0.977
    40   1 H    0.995 --    11 C    0.975
    41   1 H    0.996 --    12 C    0.964
    42   1 H    0.998 --    13 C    0.962
    43   1 H    0.995 --    14 C    0.969
    44   1 H    0.997 --    14 C    0.973
    45   1 H    0.996 --    15 C    0.963
    46   1 H    0.969 --    15 C    0.932
    47   1 H    0.990 --     2 C    0.904
    48   1 H    0.996 --    16 C    0.960
    49   1 H    0.990 --    18 C    0.963
    50   1 H    0.995 --    18 C    0.969
    51   1 H    0.996 --    19 C    0.973
    52   1 H    0.995 --    19 C    0.968
    53   1 H    0.996 --    21 C    0.967
    54   1 H    0.995 --    22 C    0.963
    55   1 H    0.996 --    25 C    0.977
    56   1 H    0.996 --    25 C    0.977
    57   1 H    0.993 --    25 C    0.978
    58   1 H    0.863 --    27 O    0.827
    59   1 H    0.990 --    28 C    0.977
    60   1 H    0.990 --    28 C    0.980
    61   1 H    0.995 --    29 C    0.961
    62   1 H    0.985 --    30 C    0.968
    63   1 H    0.986 --    30 C    0.960
    64   1 H    0.994 --    30 C    0.978
    65   1 H    0.995 --    31 C    0.962
    66   1 H    0.993 --    32 C    0.976
    67   1 H    0.998 --    32 C    0.983
    68   1 H    0.995 --    32 C    0.983
    69   1 H    0.994 --    33 C    0.978
    70   1 H    0.998 --    33 C    0.984
    71   1 H    0.995 --    33 C    0.981
    72   1 H    0.973 --     1 N    0.945
 ---------------------------------------------------------------------------

molecular dipole:
                 x           y           z       tot (Debye)
 q only:        3.485       0.199      -0.665
   full:        3.963       0.438      -0.973      10.432

           -------------------------------------------------
          | TOTAL ENERGY              -99.289127389756 Eh   |
          | GRADIENT NORM               0.006478265609 Eh/α |
          | HOMO-LUMO GAP               1.040583580979 eV   |
           -------------------------------------------------

 * finished run on 2024/04/06 at 11:16:13.003
