   * xtb version 6.6.1 (8d0f1dd) compiled by 'conda@1efc2f54142f' on 2023-08-01
          program call               : xtb struc.xyz --opt loose --input .xc1 --gfn2

   ID    Z sym.   atoms
    1    6 C      1, 3, 5-7, 10, 11, 14
    2    7 N      2, 4, 9, 13
    3    8 O      8, 12
    4    1 H      15-25
constraining bond 13 24 to    4.0600000 Å, actual value:    2.0566599 Å

          :  Hamiltonian                  GFN2-xTB          :
 * total energy  :   -35.0818547 Eh     change       -0.6650680E-10 Eh
 * total energy  :   -38.1130821 Eh     change       -0.3031227E+01 Eh
 * total energy  :   -40.2719311 Eh     change       -0.2158849E+01 Eh
 * total energy  :   -41.3973548 Eh     change       -0.1125424E+01 Eh
 * total energy  :   -41.7500041 Eh     change       -0.3526494E+00 Eh
 * total energy  :   -41.8052082 Eh     change       -0.5520409E-01 Eh
 * total energy  :   -41.8408816 Eh     change       -0.3567340E-01 Eh
 * total energy  :   -41.9021941 Eh     change       -0.6131245E-01 Eh
 * total energy  :   -41.9499327 Eh     change       -0.4773865E-01 Eh
 * total energy  :   -41.9741471 Eh     change       -0.2421435E-01 Eh
 * total energy  :   -42.1016478 Eh     change       -0.2103730E-02 Eh
 * total energy  :   -42.1021402 Eh     change       -0.4924250E-03 Eh
 * total energy  :   -42.1030487 Eh     change       -0.9085509E-03 Eh
 * total energy  :   -42.1034251 Eh     change       -0.3763788E-03 Eh
 * total energy  :   -42.1036096 Eh     change       -0.1845039E-03 Eh
 * total energy  :   -42.1037527 Eh     change       -0.1431269E-03 Eh
 * total energy  :   -42.1035715 Eh     change        0.1812385E-03 Eh
 * total energy  :   -42.1039186 Eh     change       -0.3471124E-03 Eh
 * total energy  :   -42.1039611 Eh     change       -0.4245173E-04 Eh
   *** GEOMETRY OPTIMIZATION CONVERGED AFTER 55 ITERATIONS ***

 final structure:
================
25
 xtb: 6.6.1 (8d0f1dd)
C            3.28579903005537        1.26875364797596        0.07267167294404
N            2.38196079468075        0.14961820668776        0.03277679329608
C            2.71116566569299       -1.13733303103217        0.03144906345143
N            1.59792057279289       -1.89994635265738        0.01085986975277
C            0.51215251730026       -1.06004829148150       -0.00467912435981
C            1.01105685851079        0.23796993223611        0.00972929675477
C            0.15090394713827        1.39953037400460       -0.00593987882981
O            0.51480408336195        2.55359594987870        0.01052525308182
N           -1.19816484766336        1.02846271361889       -0.04475255054506
C           -2.18195180998083        2.10625751923402       -0.08556581640967
C           -1.73663115749972       -0.22832146594106       -0.05981454810152
O           -2.91099612252963       -0.45403298547266       -0.10404077752248
N           -0.80830064982127       -1.35337336871008       -0.01077710751643
C           -1.33285613911005       -2.58938286435781        0.02281894248574
H            3.85657385906744        1.25955383814591        1.00155664979695
H            3.97975725710319        1.22615591339719       -0.76617975837484
H            2.70450063336055        2.18873684588816        0.01867877401125
H            3.71268725340745       -1.52040111529932        0.04439196976550
H           -1.64545056372140        3.05105011827026       -0.05774500691757
H           -2.77171491409042        2.03296915067094       -0.99825976253263
H           -2.85234282248131        2.02671486287562        0.76856670917253
H           -0.70137764443664       -3.45042765604729        0.10364033226306
H           -2.40862020964135       -2.67821264191214        0.03771850704856
H           -4.29593467643588       -3.43026969580882        0.00455795450649
H            1.58549059903994       -2.90938106256374       -0.00101583932126

          :  Hamiltonian                  GFN2-xTB          :
         :: total energy             -42.103961067308 Eh    ::
         :: gradient norm              0.003305747062 Eh/a0 ::
         :: HOMO-LUMO gap              0.040949486461 eV    ::
         :: SCC energy               -42.626405102303 Eh    ::
         :: -> dispersion             -0.022792759643 Eh    ::
         :: repulsion energy           0.522367784514 Eh    ::

    * Orbital Energies and Occupations

         #    Occupation            Energy/Eh            Energy/eV
      -------------------------------------------------------------
         1        2.0000           -0.9167243             -24.9453
       ...           ...                  ...                  ...
        25        2.0000           -0.6686966             -18.1962
        26        2.0000           -0.6682147             -18.1830
        27        2.0000           -0.6595878             -17.9483
        28        1.9999           -0.6353010             -17.2874
        29        1.9998           -0.6324233             -17.2091
        30        1.9998           -0.6282103             -17.0945
        31        1.9997           -0.6195400             -16.8585
        32        1.9987           -0.5988661             -16.2960
        33        1.9976           -0.5890131             -16.0279
        34        1.9969           -0.5850076             -15.9189
        35        1.9883           -0.5637405             -15.3402
        36        1.9876           -0.5628216             -15.3152
        37        0.9828           -0.4819369             -13.1142 (HOMO)
        38        0.9354           -0.4804320             -13.0732 (LUMO)
        39        0.1012           -0.4360550             -11.8657
        40        0.0104           -0.3992680             -10.8646
        41        0.0020           -0.3732783             -10.1574
        42        0.0000           -0.2883176              -7.8455
        43                         -0.2133411              -5.8053
        44                         -0.2004770              -5.4553
        45                         -0.1502803              -4.0893
        46                         -0.1341530              -3.6505
        47                         -0.0664058              -1.8070
        48                         -0.0398246              -1.0837
       ...                                ...                  ...
        67                          0.5562845              15.1373
      -------------------------------------------------------------
                  HL-Gap            0.0015049 Eh            0.0409 eV

     #   Z          covCN         q      C6AA      α(0)
     1   6 C        3.691    -0.097    22.540     6.794
     2   7 N        2.831     0.085    19.774     6.604
     3   6 C        3.051     0.054    26.749     8.482
     4   7 N        2.790    -0.057    22.340     7.020
     5   6 C        3.038     0.093    25.906     8.348
     6   6 C        3.114    -0.017    28.263     8.709
     7   6 C        2.763     0.267    22.503     7.769
     8   8 O        0.858    -0.367    21.029     6.148
     9   7 N        2.744    -0.079    22.771     7.087
    10   6 C        3.713    -0.064    21.865     6.681
    11   6 C        2.733     0.311    21.722     7.630
    12   8 O        0.859    -0.339    20.503     6.071
    13   7 N        2.735     0.008    21.113     6.824
    14   6 C        2.797    -0.059    29.452     8.890
    15   1 H        0.924     0.109     1.707     2.043
    16   1 H        0.925     0.108     1.716     2.048
    17   1 H        0.925     0.140     1.464     1.892
    18   1 H        0.926     0.127     1.555     1.950
    19   1 H        0.925     0.116     1.644     2.005
    20   1 H        0.925     0.098     1.802     2.099
    21   1 H        0.925     0.098     1.799     2.097
    22   1 H        0.926     0.086     1.917     2.165
    23   1 H        0.926     0.132     1.516     1.926
    24   1 H        0.000     0.018     6.895     4.801
    25   1 H        0.860     0.229     0.969     1.542

Wiberg/Mayer (AO) data.
largest (>0.10) Wiberg bond orders for each atom

     #   Z sym  total        # sym  WBO       # sym  WBO       # sym  WBO
 ---------------------------------------------------------------------------
     1   6 C    3.912 --     2 N    0.984    16 H    0.960    17 H    0.959
                            15 H    0.957
     2   7 N    3.671 --     3 C    1.385     6 C    1.165     1 C    0.984
     3   6 C    3.840 --     2 N    1.385     4 N    1.287    18 H    0.952
     4   7 N    3.553 --     3 C    1.287     5 C    1.166    25 H    0.918
     5   6 C    3.885 --     6 C    1.336     4 N    1.166    13 N    1.166
     6   6 C    3.857 --     5 C    1.336     2 N    1.165     7 C    1.076
     7   6 C    3.916 --     8 O    1.673     9 N    1.080     6 C    1.076
     8   8 O    1.986 --     7 C    1.673     9 N    0.138
     9   7 N    3.569 --    11 C    1.171     7 C    1.080    10 C    0.963
                            12 O    0.151     8 O    0.138
    10   6 C    3.912 --    19 H    0.968    21 H    0.966    20 H    0.966
                             9 N    0.963
    11   6 C    3.924 --    12 O    1.726     9 N    1.171    13 N    0.933
    12   8 O    2.054 --    11 C    1.726     9 N    0.151
    13   7 N    3.622 --    14 C    1.298     5 C    1.166    11 C    0.933
    14   6 C    3.314 --    13 N    1.298    22 H    0.969    23 H    0.935
    15   1 H    0.985 --     1 C    0.957
    16   1 H    0.985 --     1 C    0.960
    17   1 H    0.980 --     1 C    0.959
    18   1 H    0.983 --     3 C    0.952
    19   1 H    0.985 --    10 C    0.968
    20   1 H    0.987 --    10 C    0.966
    21   1 H    0.987 --    10 C    0.966
    22   1 H    0.991 --    14 C    0.969
    23   1 H    0.982 --    14 C    0.935
    24   1 H    0.026
    25   1 H    0.947 --     4 N    0.918
 ---------------------------------------------------------------------------

molecular dipole:
                 x           y           z       tot (Debye)
 q only:        2.714      -1.823       0.065
   full:        3.011      -2.397       0.077       9.786

           -------------------------------------------------
          | TOTAL ENERGY              -42.103961067308 Eh   |
          | GRADIENT NORM               0.003305747062 Eh/α |
          | HOMO-LUMO GAP               0.040949486461 eV   |
           -------------------------------------------------

 * finished run on 2024/06/05 at 19:58:07.767
