   * xtb version 6.6.1 (8d0f1dd) compiled by 'conda@1efc2f54142f' on 2023-08-01
          program call               : xtb struc.xyz --opt loose --input .xc1 --gfn2

   ID    Z sym.   atoms
    1    6 C      1, 3, 5-7, 10, 11, 14
    2    7 N      2, 4, 9, 13
    3    8 O      8, 12
    4    1 H      15-25
constraining bond 12 19 to    4.6333300 Å, actual value:    3.7175586 Å

          :  Hamiltonian                  GFN2-xTB          :
 * total energy  :   -43.7452722 Eh     change       -0.6650680E-10 Eh
 * total energy  :   -46.9495811 Eh     change       -0.3204309E+01 Eh
 * total energy  :   -51.2379130 Eh     change       -0.4288332E+01 Eh
 * total energy  :   -56.7552703 Eh     change       -0.5517357E+01 Eh
 * total energy  :   -63.3300032 Eh     change       -0.6574733E+01 Eh
 * total energy  :   -68.1626186 Eh     change       -0.4832615E+01 Eh
 * total energy  :   -71.0082836 Eh     change       -0.2845665E+01 Eh
 * total energy  :   -66.3753747 Eh     change        0.4632909E+01 Eh
 * total energy  :   -71.3687005 Eh     change       -0.4993326E+01 Eh
 * total energy  :   -71.5062506 Eh     change       -0.1375501E+00 Eh
 * total energy  :   -72.1376370 Eh     change       -0.9667656E-04 Eh
 * total energy  :   -72.1376608 Eh     change       -0.2381263E-04 Eh
 * total energy  :   -72.1376758 Eh     change       -0.1492634E-04 Eh
 * total energy  :   -72.1377191 Eh     change       -0.4331086E-04 Eh
 * total energy  :   -72.1377341 Eh     change       -0.1497539E-04 Eh
 * total energy  :   -72.1377393 Eh     change       -0.5262931E-05 Eh
 * total energy  :   -72.1377654 Eh     change       -0.2605996E-04 Eh
 * total energy  :   -72.1377734 Eh     change       -0.7988311E-05 Eh
 * total energy  :   -72.1377826 Eh     change       -0.9249757E-05 Eh
   *** GEOMETRY OPTIMIZATION CONVERGED AFTER 114 ITERATIONS ***

 final structure:
================
25
 xtb: 6.6.1 (8d0f1dd)
C            2.83194150414322        1.30947799948851        0.02929260282018
N            2.17144462818869        0.03238904905751       -0.01173442554237
C            2.74890708954464       -1.16471463753229       -0.09242419178092
N            1.79742846582755       -2.12975017529439       -0.09933468522906
C            0.57673786341067       -1.52054984886248       -0.01858872356982
C            0.80867469369366       -0.15139124842305        0.03615505476674
C           -0.29895327011077        0.79617558534805        0.12766913703254
O           -0.20388558746428        2.00646312064106        0.15894669457435
N           -1.50244029855844        0.11627071405973        0.17290747772768
C           -2.91415834149358        3.53229101208217       -0.21330593650225
C           -1.66907881954028       -1.13566074946046        0.11862621460315
O           -2.94888477350246        2.53822749115854        0.63466389204200
N           -0.66810086257013       -2.05223062871745        0.01412192010999
C           -0.91555644054398       -3.47426305388261       -0.05383851508238
H            3.49152674797519        1.36820276628336        0.89548015302773
H            3.42272987009168        1.46117015452434       -0.87442831150190
H            2.07202816607323        2.08710655593547        0.09972572127735
H            3.80319981915607       -1.34478367871137       -0.14611751971562
H           -2.64313971503898        2.28939600847168        0.73379661594280
H           -3.81015768974916        4.10813346575027       -0.38992953804613
H           -1.98937844177468        3.77289798979031       -0.72458670998565
H           -0.42182969145385       -3.99164287105209        0.77069029953630
H           -0.56491127211886       -3.88186797584437       -1.00387923754379
H           -1.98884155384720       -3.63169820782267        0.02275577571954
H            1.97512942376684       -3.12141029547087       -0.15549214664520

          :  Hamiltonian                  GFN2-xTB          :
         :: total energy             -72.137782613659 Eh    ::
         :: gradient norm              0.003903073743 Eh/a0 ::
         :: HOMO-LUMO gap              0.670437074519 eV    ::
         :: SCC energy               -42.648363661106 Eh    ::
         :: -> dispersion             -0.021092978561 Eh    ::
         :: repulsion energy           2.411385957503 Eh    ::

    * Orbital Energies and Occupations

         #    Occupation            Energy/Eh            Energy/eV
      -------------------------------------------------------------
         1        2.0000           -0.8896934             -24.2098
       ...           ...                  ...                  ...
        25        2.0000           -0.6652503             -18.1024
        26        2.0000           -0.6587115             -17.9245
        27        2.0000           -0.6421333             -17.4733
        28        1.9999           -0.6208199             -16.8934
        29        1.9999           -0.6159071             -16.7597
        30        1.9999           -0.6110235             -16.6268
        31        1.9998           -0.6012568             -16.3610
        32        1.9993           -0.5799135             -15.7802
        33        1.9991           -0.5757981             -15.6683
        34        1.9952           -0.5497608             -14.9598
        35        1.9913           -0.5402155             -14.7000
        36        1.9882           -0.5354909             -14.5714
        37        1.2918           -0.4637835             -12.6202 (HOMO)
        38        0.5557           -0.4391454             -11.9498 (LUMO)
        39        0.1588           -0.4154636             -11.3053
        40        0.0155           -0.3774703             -10.2715
        41        0.0056           -0.3611837              -9.8283
        42        0.0000           -0.2510502              -6.8314
        43                         -0.1780302              -4.8444
        44                         -0.1538137              -4.1855
        45                         -0.1165693              -3.1720
        46                         -0.0616519              -1.6776
        47                         -0.0264569              -0.7199
        48                         -0.0114419              -0.3114
       ...                                ...                  ...
        67                          5.3511707             145.6128
      -------------------------------------------------------------
                  HL-Gap            0.0246381 Eh            0.6704 eV

     #   Z          covCN         q      C6AA      α(0)
     1   6 C        3.691    -0.086    22.330     6.762
     2   7 N        2.830     0.064    20.132     6.664
     3   6 C        3.041     0.047    26.899     8.507
     4   7 N        2.790    -0.072    22.640     7.067
     5   6 C        3.076     0.110    25.497     8.279
     6   6 C        3.111    -0.015    28.238     8.705
     7   6 C        2.774     0.283    22.204     7.718
     8   8 O        0.857    -0.410    21.875     6.271
     9   7 N        1.845    -0.227    26.801     7.672
    10   6 C        2.816     0.067    26.485     8.432
    11   6 C        1.918     0.013    30.756     8.956
    12   8 O        1.664    -0.237    17.940     5.718
    13   7 N        2.741     0.004    21.200     6.838
    14   6 C        3.695    -0.069    22.003     6.710
    15   1 H        0.924     0.098     1.804     2.100
    16   1 H        0.924     0.098     1.804     2.100
    17   1 H        0.925     0.129     1.544     1.943
    18   1 H        0.926     0.112     1.679     2.027
    19   1 H        0.919     0.374     0.526     1.134
    20   1 H        0.926     0.124     1.578     1.964
    21   1 H        0.925     0.113     1.667     2.019
    22   1 H        0.924     0.074     2.040     2.234
    23   1 H        0.924     0.075     2.027     2.226
    24   1 H        0.925     0.109     1.706     2.042
    25   1 H        0.860     0.220     1.010     1.574

Wiberg/Mayer (AO) data.
largest (>0.10) Wiberg bond orders for each atom

     #   Z sym  total        # sym  WBO       # sym  WBO       # sym  WBO
 ---------------------------------------------------------------------------
     1   6 C    3.924 --     2 N    0.988    17 H    0.963    16 H    0.963
                            15 H    0.963
     2   7 N    3.644 --     3 C    1.370     6 C    1.152     1 C    0.988
     3   6 C    3.811 --     2 N    1.370     4 N    1.262    18 H    0.956
     4   7 N    3.556 --     3 C    1.262     5 C    1.177    25 H    0.923
     5   6 C    3.927 --     6 C    1.365    13 N    1.193     4 N    1.177
     6   6 C    3.888 --     5 C    1.365     2 N    1.152     7 C    1.057
     7   6 C    3.883 --     8 O    1.652     9 N    1.096     6 C    1.057
     8   8 O    1.973 --     7 C    1.652     9 N    0.115
     9   7 N    3.051 --    11 C    1.702     7 C    1.096     8 O    0.115
    10   6 C    3.278 --    12 O    1.353    20 H    0.963    21 H    0.957
    11   6 C    3.033 --     9 N    1.702    13 N    1.173
    12   8 O    2.242 --    10 C    1.353    19 H    0.851
    13   7 N    3.572 --     5 C    1.193    11 C    1.173    14 C    0.985
    14   6 C    3.944 --    13 N    0.985    24 H    0.974    22 H    0.972
                            23 H    0.971
    15   1 H    0.987 --     1 C    0.963
    16   1 H    0.987 --     1 C    0.963
    17   1 H    0.983 --     1 C    0.963
    18   1 H    0.986 --     3 C    0.956
    19   1 H    0.860 --    12 O    0.851
    20   1 H    0.984 --    10 C    0.963
    21   1 H    0.987 --    10 C    0.957
    22   1 H    0.992 --    14 C    0.972
    23   1 H    0.991 --    14 C    0.971
    24   1 H    0.987 --    14 C    0.974
    25   1 H    0.951 --     4 N    0.923
 ---------------------------------------------------------------------------

molecular dipole:
                 x           y           z       tot (Debye)
 q only:        1.234      -0.805      -0.262
   full:        2.104      -1.564      -0.277       6.701

           -------------------------------------------------
          | TOTAL ENERGY              -72.137782613659 Eh   |
          | GRADIENT NORM               0.003903073743 Eh/α |
          | HOMO-LUMO GAP               0.670437074519 eV   |
           -------------------------------------------------

 * finished run on 2024/06/05 at 19:58:01.610
