   * xtb version 6.6.1 (8d0f1dd) compiled by 'conda@1efc2f54142f' on 2023-08-01
          program call               : xtb struc.xyz --opt loose --input .xc1 --gfn2

   ID    Z sym.   atoms
    1    6 C      1, 3, 5-7, 10, 11, 14
    2    7 N      2, 4, 9, 13
    3    8 O      8, 12
    4    1 H      15-25
constraining bond 1 2 to    3.9200000 Å, actual value:    1.4397841 Å

          :  Hamiltonian                  GFN2-xTB          :
 * total energy  :   -20.2805614 Eh     change       -0.6650680E-10 Eh
 * total energy  :   -29.7196708 Eh     change       -0.9439109E+01 Eh
 * total energy  :   -36.0857046 Eh     change       -0.6366034E+01 Eh
 * total energy  :   -39.7562121 Eh     change       -0.3670507E+01 Eh
 * total energy  :   -41.1944359 Eh     change       -0.1438224E+01 Eh
 * total energy  :   -41.3798413 Eh     change       -0.1854055E+00 Eh
 * total energy  :   -41.4459242 Eh     change       -0.6608288E-01 Eh
 * total energy  :   -41.4671058 Eh     change       -0.2118158E-01 Eh
 * total energy  :   -41.5252744 Eh     change       -0.5816860E-01 Eh
 * total energy  :   -41.5899281 Eh     change       -0.6465364E-01 Eh
 * total energy  :   -42.1354897 Eh     change       -0.2800830E-04 Eh
 * total energy  :   -42.1355516 Eh     change       -0.6192470E-04 Eh
 * total energy  :   -42.1356154 Eh     change       -0.6379222E-04 Eh
 * total energy  :   -42.1356959 Eh     change       -0.8048625E-04 Eh
 * total energy  :   -42.1357671 Eh     change       -0.7119634E-04 Eh
 * total energy  :   -42.1358457 Eh     change       -0.7856890E-04 Eh
 * total energy  :   -42.1359094 Eh     change       -0.6373260E-04 Eh
 * total energy  :   -42.1359659 Eh     change       -0.5652874E-04 Eh
 * total energy  :   -42.1360006 Eh     change       -0.3472946E-04 Eh
   *** GEOMETRY OPTIMIZATION CONVERGED AFTER 65 ITERATIONS ***

 final structure:
================
25
 xtb: 6.6.1 (8d0f1dd)
C            3.92041341570716        2.86610406425784        0.11534248565331
N            2.20621704563956       -0.65584853542803       -0.04422363592014
C            2.25897503047861       -1.95254436336262       -0.08292658433476
N            1.01180515110683       -2.52225445248919       -0.09207881290353
C            0.12709696709484       -1.49508846764406       -0.05931447373355
C            0.89337982114794       -0.32168365129612       -0.03008789429735
C            0.25747058201328        0.97508375586147        0.01468403977432
O            0.82147371146928        2.04626183594174        0.03878764325491
N           -1.13519293629037        0.87220413496343        0.02786902091209
C           -1.90217320753630        2.10694722794139        0.08138949472497
C           -1.90031046982661       -0.28119915861654        0.00586777180715
O           -3.10195233800652       -0.24901407023272        0.03038314549758
N           -1.21623693334006       -1.50813007310244       -0.04877347147420
C           -1.97947543799141       -2.73693386484392       -0.07975079887180
H            4.34199550881220        3.11671865096124        1.07134170025116
H            4.56533220371131        2.77325635633851       -0.73808563067433
H            2.85926061950107        2.70447019228472        0.01871059470620
H            3.16472192352920       -2.52449429438748       -0.10077278149125
H           -1.20786482911673        2.94235376359206        0.02823439128044
H           -2.60605444788698        2.14131219748482       -0.75059157819383
H           -2.47332610910846        2.15131171154135        1.00977345246489
H           -1.74169436701657       -3.35487314586133        0.78781849978254
H           -1.77192905182604       -3.29102686821389       -0.99643424723590
H           -3.03706409884873       -2.47470961452851       -0.05227167774681
H            0.80556376068320       -3.50998478956218       -0.12371903533152

          :  Hamiltonian                  GFN2-xTB          :
         :: total energy             -42.136000644172 Eh    ::
         :: gradient norm              0.002632919849 Eh/a0 ::
         :: HOMO-LUMO gap              1.097950951039 eV    ::
         :: SCC energy               -42.660821774629 Eh    ::
         :: -> dispersion             -0.020984341616 Eh    ::
         :: repulsion energy           0.524744345599 Eh    ::

    * Orbital Energies and Occupations

         #    Occupation            Energy/Eh            Energy/eV
      -------------------------------------------------------------
         1        2.0000           -0.8863459             -24.1187
       ...           ...                  ...                  ...
        25        1.9996           -0.6551965             -17.8288
        26        1.9988           -0.6370804             -17.3358
        27        1.9980           -0.6291308             -17.1195
        28        1.9978           -0.6271586             -17.0659
        29        1.9973           -0.6242022             -16.9854
        30        1.9970           -0.6224466             -16.9376
        31        1.9929           -0.6088931             -16.5688
        32        1.9923           -0.6075244             -16.5316
        33        1.9736           -0.5878598             -15.9965
        34        1.9223           -0.5703591             -15.5203
        35        1.9128           -0.5684469             -15.4682
        36        1.8744           -0.5623607             -15.3026
        37        1.7099           -0.5476435             -14.9021 (HOMO)
        38        0.6311           -0.5072946             -13.8042 (LUMO)
        39        0.0021           -0.4107976             -11.1784
        40        0.0006           -0.3916477             -10.6573
        41        0.0001           -0.3622418              -9.8571
        42        0.0000           -0.2811825              -7.6514
        43                         -0.1996303              -5.4322
        44                         -0.1574746              -4.2851
        45                         -0.1321529              -3.5961
        46                         -0.0688595              -1.8738
        47                         -0.0465066              -1.2655
        48                         -0.0308882              -0.8405
       ...                                ...                  ...
        67                          0.5483122              14.9203
      -------------------------------------------------------------
                  HL-Gap            0.0403490 Eh            1.0980 eV

     #   Z          covCN         q      C6AA      α(0)
     1   6 C        2.778    -0.068    29.680     8.923
     2   7 N        1.904    -0.162    25.291     7.456
     3   6 C        3.157     0.105    25.390     8.239
     4   7 N        2.788    -0.080    22.794     7.091
     5   6 C        3.056     0.115    25.411     8.267
     6   6 C        3.204     0.023    26.902     8.449
     7   6 C        2.764     0.275    22.348     7.742
     8   8 O        0.858    -0.340    20.524     6.074
     9   7 N        2.745    -0.075    22.687     7.074
    10   6 C        3.710    -0.061    21.822     6.676
    11   6 C        2.731     0.319    21.581     7.605
    12   8 O        0.860    -0.344    20.590     6.084
    13   7 N        2.737    -0.042    22.060     6.976
    14   6 C        3.697    -0.070    22.020     6.712
    15   1 H        0.926     0.137     1.481     1.903
    16   1 H        0.926     0.137     1.485     1.905
    17   1 H        0.926     0.162     1.315     1.793
    18   1 H        0.926     0.109     1.703     2.041
    19   1 H        0.925     0.116     1.642     2.004
    20   1 H        0.924     0.109     1.706     2.042
    21   1 H        0.924     0.108     1.718     2.050
    22   1 H        0.924     0.091     1.867     2.137
    23   1 H        0.924     0.092     1.862     2.134
    24   1 H        0.925     0.128     1.552     1.948
    25   1 H        0.860     0.216     1.029     1.589

Wiberg/Mayer (AO) data.
largest (>0.10) Wiberg bond orders for each atom

     #   Z sym  total        # sym  WBO       # sym  WBO       # sym  WBO
 ---------------------------------------------------------------------------
     1   6 C    2.921 --    16 H    0.978    15 H    0.978    17 H    0.958
     2   7 N    3.002 --     3 C    1.560     6 C    1.270
     3   6 C    3.848 --     2 N    1.560     4 N    1.211    18 H    0.955
     4   7 N    3.577 --     5 C    1.225     3 C    1.211    25 H    0.924
     5   6 C    3.896 --     6 C    1.275     4 N    1.225    13 N    1.212
     6   6 C    3.833 --     5 C    1.275     2 N    1.270     7 C    1.070
     7   6 C    3.945 --     8 O    1.674     9 N    1.100     6 C    1.070
     8   8 O    1.973 --     7 C    1.674     9 N    0.126
     9   7 N    3.514 --    11 C    1.121     7 C    1.100    10 C    0.975
                             8 O    0.126    12 O    0.123
    10   6 C    3.885 --     9 N    0.975    19 H    0.963    20 H    0.953
                            21 H    0.950
    11   6 C    3.954 --    12 O    1.688     9 N    1.121    13 N    1.053
    12   8 O    1.995 --    11 C    1.688     9 N    0.123    13 N    0.108
    13   7 N    3.496 --     5 C    1.212    11 C    1.053    14 C    0.978
                            12 O    0.108
    14   6 C    3.910 --    13 N    0.978    24 H    0.962    22 H    0.962
                            23 H    0.962
    15   1 H    0.980 --     1 C    0.978
    16   1 H    0.980 --     1 C    0.978
    17   1 H    0.971 --     1 C    0.958
    18   1 H    0.986 --     3 C    0.955
    19   1 H    0.981 --    10 C    0.963
    20   1 H    0.970 --    10 C    0.953
    21   1 H    0.968 --    10 C    0.950
    22   1 H    0.979 --    14 C    0.962
    23   1 H    0.979 --    14 C    0.962
    24   1 H    0.982 --    14 C    0.962
    25   1 H    0.952 --     4 N    0.924
 ---------------------------------------------------------------------------

molecular dipole:
                 x           y           z       tot (Debye)
 q only:        1.917      -1.038      -0.022
   full:        1.811      -1.728      -0.039       6.364

           -------------------------------------------------
          | TOTAL ENERGY              -42.136000644172 Eh   |
          | GRADIENT NORM               0.002632919849 Eh/α |
          | HOMO-LUMO GAP               1.097950951039 eV   |
           -------------------------------------------------

 * finished run on 2024/06/05 at 19:59:07.284
