   * xtb version 6.6.1 (8d0f1dd) compiled by 'conda@1efc2f54142f' on 2023-08-01
          program call               : xtb struc.xyz --opt loose --input .xc1 --gfn2

   ID    Z sym.   atoms
    1    6 C      1, 3, 5-7, 10, 11, 14
    2    7 N      2, 4, 9, 13
    3    8 O      8, 12
    4    1 H      15-25
constraining bond 3 17 to    5.1400000 Å, actual value:    3.3163079 Å

          :  Hamiltonian                  GFN2-xTB          :
 * total energy  :   -36.3216334 Eh     change       -0.2401990E-09 Eh
 * total energy  :   -39.1612635 Eh     change       -0.2839630E+01 Eh
 * total energy  :   -41.0199226 Eh     change       -0.1858659E+01 Eh
 * total energy  :   -41.8190134 Eh     change       -0.7990908E+00 Eh
 * total energy  :   -41.9809315 Eh     change       -0.1619181E+00 Eh
 * total energy  :   -41.9929015 Eh     change       -0.1196997E-01 Eh
 * total energy  :   -42.0065546 Eh     change       -0.1365310E-01 Eh
 * total energy  :   -42.0195338 Eh     change       -0.1297921E-01 Eh
 * total energy  :   -42.0259826 Eh     change       -0.6448758E-02 Eh
 * total energy  :   -42.0304548 Eh     change       -0.4472205E-02 Eh
 * total energy  :   -42.1142003 Eh     change       -0.8072737E-02 Eh
 * total energy  :   -42.1165865 Eh     change       -0.2386211E-02 Eh
 * total energy  :   -42.1194859 Eh     change       -0.2899377E-02 Eh
 * total energy  :   -42.1205840 Eh     change       -0.1098177E-02 Eh
 * total energy  :   -42.1250693 Eh     change       -0.4485311E-02 Eh
 * total energy  :   -42.1263249 Eh     change       -0.1255582E-02 Eh
 * total energy  :   -42.1265115 Eh     change       -0.1865817E-03 Eh
 * total energy  :   -42.1266134 Eh     change       -0.1019277E-03 Eh
 * total energy  :   -42.1266282 Eh     change       -0.1478752E-04 Eh
   *** GEOMETRY OPTIMIZATION CONVERGED AFTER 26 ITERATIONS ***

 final structure:
================
25
 xtb: 6.6.1 (8d0f1dd)
C            3.11970002403597        1.57367927333545        0.02355733389062
N            2.37504123302216        0.39024095110478       -0.01706305854337
C            2.51394941059121       -2.60077145253060       -0.02214010305973
N            1.25865494974957       -2.30764231102815       -0.01120711767535
C            0.52590009911867       -1.11986501868590       -0.00970158236514
C            1.09429988952960        0.18669353186528       -0.00645314790948
C            0.14786912802683        1.34990529593941        0.00100598528241
O            0.53449839166690        2.50044888161915        0.00977192896251
N           -1.19212371086030        1.04901293132744       -0.00718286270992
C           -2.15331366132770        2.14129040552860       -0.00982021636161
C           -1.73596069421743       -0.21621004884272       -0.00492007084150
O           -2.92926724663687       -0.39192016575185       -0.00333897376803
N           -0.83825900580822       -1.28359541972965       -0.00323620666686
C           -1.45412892018518       -2.60137151353205        0.00579278952774
H            3.67212958688824        1.59347572256673        0.97110041264527
H            3.86339147145734        1.53100608118868       -0.77964904855028
H            2.55644174099527        2.53276568328881       -0.06266266184288
H            3.28161475567548       -1.83910859395638       -0.03467108571727
H           -1.60960907998068        3.08364929882871       -0.00338699319361
H           -2.78355934880356        2.07328028923208       -0.89784590364723
H           -2.79518738972191        2.06781584016732        0.86937563969621
H           -1.19449030952001       -3.15817795496776        0.90890196296156
H           -1.20552554343911       -3.16627943845735       -0.89529555186613
H           -2.53518811202471       -2.44470106234830        0.01163999346413
H            0.64355385586850       -3.12538266456169       -0.00139984381209

          :  Hamiltonian                  GFN2-xTB          :
         :: total energy             -42.126628222273 Eh    ::
         :: gradient norm              0.001229190481 Eh/a0 ::
         :: HOMO-LUMO gap              0.163750873744 eV    ::
         :: SCC energy               -42.628026206319 Eh    ::
         :: -> dispersion             -0.022082892184 Eh    ::
         :: repulsion energy           0.501202481033 Eh    ::

    * Orbital Energies and Occupations

         #    Occupation            Energy/Eh            Energy/eV
      -------------------------------------------------------------
         1        2.0000           -0.8955262             -24.3685
       ...           ...                  ...                  ...
        25        1.9981           -0.6736158             -18.3300
        26        1.9972           -0.6648377             -18.0912
        27        1.9947           -0.6493786             -17.6705
        28        1.9930           -0.6429962             -17.4968
        29        1.9899           -0.6342208             -17.2580
        30        1.9875           -0.6290728             -17.1179
        31        1.9837           -0.6227287             -16.9453
        32        1.9718           -0.6095057             -16.5855
        33        1.9588           -0.6003898             -16.3374
        34        1.9456           -0.5936232             -16.1533
        35        1.9194           -0.5839620             -15.8904
        36        1.6298           -0.5438548             -14.7990
        37        1.2757           -0.5220983             -14.2070 (HOMO)
        38        1.1551           -0.5160806             -14.0433 (LUMO)
        39        0.1738           -0.4527822             -12.3208
        40        0.0220           -0.4017752             -10.9329
        41        0.0107           -0.3844458             -10.4613
        42        0.0003           -0.2994685              -8.1490
        43        0.0000           -0.2095868              -5.7031
        44        0.0000           -0.1680169              -4.5720
        45        0.0000           -0.1516822              -4.1275
        46                         -0.0949633              -2.5841
        47                         -0.0857239              -2.3327
        48                         -0.0506133              -1.3773
       ...                                ...                  ...
        67                          0.5237898              14.2530
      -------------------------------------------------------------
                  HL-Gap            0.0060177 Eh            0.1638 eV

     #   Z          covCN         q      C6AA      α(0)
     1   6 C        3.685    -0.050    21.684     6.667
     2   7 N        1.831    -0.126    24.505     7.336
     3   6 C        1.841    -0.063    32.866     9.261
     4   7 N        2.687     0.001    21.256     6.847
     5   6 C        2.832     0.084    26.115     8.374
     6   6 C        2.884     0.052    26.829     8.492
     7   6 C        2.769     0.262    22.588     7.784
     8   8 O        0.859    -0.328    20.285     6.038
     9   7 N        2.739    -0.061    22.413     7.031
    10   6 C        3.709    -0.061    21.817     6.676
    11   6 C        2.727     0.315    21.643     7.616
    12   8 O        0.860    -0.348    20.659     6.094
    13   7 N        2.743    -0.047    22.140     6.988
    14   6 C        3.702    -0.082    22.226     6.741
    15   1 H        0.924     0.125     1.577     1.964
    16   1 H        0.924     0.123     1.590     1.972
    17   1 H        0.921     0.140     1.461     1.890
    18   1 H        0.925     0.129     1.539     1.940
    19   1 H        0.925     0.123     1.593     1.974
    20   1 H        0.924     0.114     1.660     2.015
    21   1 H        0.924     0.115     1.658     2.014
    22   1 H        0.924     0.096     1.824     2.112
    23   1 H        0.924     0.096     1.822     2.111
    24   1 H        0.924     0.142     1.447     1.881
    25   1 H        0.859     0.248     0.892     1.480

Wiberg/Mayer (AO) data.
largest (>0.10) Wiberg bond orders for each atom

     #   Z sym  total        # sym  WBO       # sym  WBO       # sym  WBO
 ---------------------------------------------------------------------------
     1   6 C    3.839 --     2 N    1.108    16 H    0.912    15 H    0.903
                            17 H    0.870
     2   7 N    2.755 --     6 C    1.512     1 C    1.108
     3   6 C    2.596 --     4 N    1.574    18 H    0.907
     4   7 N    3.625 --     3 C    1.574     5 C    1.099    25 H    0.866
     5   6 C    3.645 --     6 C    1.207    13 N    1.180     4 N    1.099
     6   6 C    3.871 --     2 N    1.512     5 C    1.207     7 C    0.957
     7   6 C    3.850 --     8 O    1.664     9 N    1.139     6 C    0.957
     8   8 O    1.948 --     7 C    1.664     9 N    0.119
     9   7 N    3.502 --     7 C    1.139    11 C    1.107    10 C    0.969
                             8 O    0.119    12 O    0.110
    10   6 C    3.862 --     9 N    0.969    19 H    0.957    21 H    0.947
                            20 H    0.947
    11   6 C    3.924 --    12 O    1.659     9 N    1.107    13 N    1.075
    12   8 O    1.954 --    11 C    1.659     9 N    0.110    13 N    0.108
    13   7 N    3.462 --     5 C    1.180    11 C    1.075    14 C    0.979
                            12 O    0.108
    14   6 C    3.902 --    13 N    0.979    23 H    0.955    22 H    0.955
                            24 H    0.946
    15   1 H    0.934 --     1 C    0.903
    16   1 H    0.938 --     1 C    0.912
    17   1 H    0.903 --     1 C    0.870
    18   1 H    0.935 --     3 C    0.907
    19   1 H    0.974 --    10 C    0.957
    20   1 H    0.965 --    10 C    0.947
    21   1 H    0.965 --    10 C    0.947
    22   1 H    0.977 --    14 C    0.955
    23   1 H    0.977 --    14 C    0.955
    24   1 H    0.974 --    14 C    0.946
    25   1 H    0.917 --     4 N    0.866
 ---------------------------------------------------------------------------

molecular dipole:
                 x           y           z       tot (Debye)
 q only:        1.197      -1.404       0.018
   full:        1.089      -1.223       0.027       4.164

           -------------------------------------------------
          | TOTAL ENERGY              -42.126628222273 Eh   |
          | GRADIENT NORM               0.001229190481 Eh/α |
          | HOMO-LUMO GAP               0.163750873744 eV   |
           -------------------------------------------------

 * finished run on 2024/06/05 at 19:58:44.189
