   * xtb version 6.6.1 (8d0f1dd) compiled by 'conda@1efc2f54142f' on 2023-08-01
          program call               : xtb xtbopt.xyz --opt crude --input .xc2 --gfn2

   ID    Z sym.   atoms
    1    6 C      1, 3, 5-7, 10, 11, 14
    2    7 N      2, 4, 9, 13
    3    8 O      8, 12
    4    1 H      15-25
########################################################################
[WARNING] Please study the warnings concerning your input carefully
-1- readin_getIntValue: could not parse ''
########################################################################

          :  Hamiltonian                  GFN2-xTB          :
 * total energy  :   -42.1266952 Eh     change       -0.7261747E-11 Eh
 * total energy  :   -42.1294903 Eh     change       -0.2795097E-02 Eh
 * total energy  :   -42.1315393 Eh     change       -0.2049011E-02 Eh
 * total energy  :   -42.1318003 Eh     change       -0.2609316E-03 Eh
   *** GEOMETRY OPTIMIZATION CONVERGED AFTER 4 ITERATIONS ***

 final structure:
================
25
 xtb: 6.6.1 (8d0f1dd)
C            3.14863754720044        1.43787843334148        0.02347947151017
N            2.35447782825271        0.29275133416883       -0.00373206323249
C            2.57469463679496       -2.34177581206320       -0.02041187006802
N            1.28731286241983       -2.23694718271618       -0.01019544514648
C            0.47787975485532       -1.11177941484726       -0.00509641911474
C            1.06179970247877        0.17505175509769        0.00122434632940
C            0.14098244321031        1.34932857432286        0.00335591752478
O            0.54158746972958        2.49582255466334        0.00857529078447
N           -1.20260512138810        1.05111290815824       -0.00586347583596
C           -2.15683764458752        2.14941619315112       -0.00966476731438
C           -1.76188608403348       -0.21179099899254       -0.00465314266083
O           -2.95583887880064       -0.37703840126935       -0.00565195281841
N           -0.87525571757110       -1.28912187286036       -0.00225691950930
C           -1.47146166425144       -2.61296912375850        0.00374582675974
H            3.70690248915828        1.47392124973689        0.96600455643111
H            3.87995710355768        1.39161458561318       -0.78982693827418
H            2.54855863684932        2.35303881325884       -0.07036071330792
H            3.24552515652938       -1.49246843312250       -0.02561448864493
H           -1.60727220005749        3.08846037881165       -0.00338316266175
H           -2.78730932805931        2.08517047313584       -0.89781083639597
H           -2.79992228015493        2.08061456841368        0.86905242080666
H           -1.19572098539404       -3.16578949129168        0.90400418680763
H           -1.20390603387998       -3.17123484851438       -0.89563137777721
H           -2.55461227383091       -2.47518097916711        0.00801762899244
H            0.76474409507239       -3.11984672167049       -0.00613445528389

          :  Hamiltonian                  GFN2-xTB          :
         :: total energy             -42.131800283221 Eh    ::
         :: gradient norm              0.006777587744 Eh/a0 ::
         :: HOMO-LUMO gap              0.102191529266 eV    ::
         :: SCC energy               -42.639354015615 Eh    ::
         :: -> dispersion             -0.022306903673 Eh    ::
         :: repulsion energy           0.507423430252 Eh    ::

    * Orbital Energies and Occupations

         #    Occupation            Energy/Eh            Energy/eV
      -------------------------------------------------------------
         1        2.0000           -0.8954295             -24.3659
       ...           ...                  ...                  ...
        25        1.9982           -0.6752127             -18.3735
        26        1.9981           -0.6734144             -18.3245
        27        1.9948           -0.6494122             -17.6714
        28        1.9931           -0.6427476             -17.4901
        29        1.9911           -0.6368587             -17.3298
        30        1.9879           -0.6294343             -17.1278
        31        1.9837           -0.6223212             -16.9342
        32        1.9725           -0.6098545             -16.5950
        33        1.9607           -0.6011999             -16.3595
        34        1.9495           -0.5950846             -16.1931
        35        1.9190           -0.5835058             -15.8780
        36        1.7210           -0.5515403             -15.0082
        37        1.1973           -0.5178248             -14.0907 (HOMO)
        38        1.1203           -0.5140694             -13.9885 (LUMO)
        39        0.1857           -0.4541959             -12.3593
        40        0.0225           -0.4020578             -10.9405
        41        0.0112           -0.3853275             -10.4853
        42        0.0003           -0.2983039              -8.1173
        43        0.0000           -0.2073324              -5.6418
        44        0.0000           -0.1628220              -4.4306
        45        0.0000           -0.1491750              -4.0593
        46                         -0.0935479              -2.5456
        47                         -0.0796134              -2.1664
        48                         -0.0379524              -1.0327
       ...                                ...                  ...
        67                          0.5249412              14.2844
      -------------------------------------------------------------
                  HL-Gap            0.0037555 Eh            0.1022 eV

     #   Z          covCN         q      C6AA      α(0)
     1   6 C        3.690    -0.051    21.691     6.665
     2   7 N        1.836    -0.130    24.604     7.351
     3   6 C        1.847    -0.068    32.995     9.279
     4   7 N        2.688     0.006    21.154     6.831
     5   6 C        2.850     0.085    26.094     8.372
     6   6 C        2.890     0.048    26.922     8.507
     7   6 C        2.768     0.262    22.584     7.783
     8   8 O        0.858    -0.328    20.302     6.041
     9   7 N        2.739    -0.063    22.454     7.038
    10   6 C        3.709    -0.061    21.813     6.675
    11   6 C        2.726     0.315    21.646     7.617
    12   8 O        0.860    -0.345    20.611     6.087
    13   7 N        2.741    -0.043    22.072     6.978
    14   6 C        3.700    -0.079    22.177     6.735
    15   1 H        0.924     0.121     1.602     1.979
    16   1 H        0.924     0.120     1.616     1.988
    17   1 H        0.923     0.138     1.473     1.898
    18   1 H        0.925     0.148     1.404     1.853
    19   1 H        0.925     0.122     1.594     1.974
    20   1 H        0.924     0.114     1.662     2.016
    21   1 H        0.924     0.114     1.660     2.015
    22   1 H        0.924     0.095     1.833     2.117
    23   1 H        0.924     0.095     1.832     2.116
    24   1 H        0.924     0.139     1.470     1.896
    25   1 H        0.859     0.245     0.904     1.490

Wiberg/Mayer (AO) data.
largest (>0.10) Wiberg bond orders for each atom

     #   Z sym  total        # sym  WBO       # sym  WBO       # sym  WBO
 ---------------------------------------------------------------------------
     1   6 C    3.845 --     2 N    1.099    16 H    0.916    15 H    0.908
                            17 H    0.875
     2   7 N    2.789 --     6 C    1.492     1 C    1.099
     3   6 C    2.608 --     4 N    1.561    18 H    0.877
     4   7 N    3.629 --     3 C    1.561     5 C    1.107    25 H    0.875
     5   6 C    3.669 --     6 C    1.215    13 N    1.187     4 N    1.107
     6   6 C    3.872 --     2 N    1.492     5 C    1.215     7 C    0.966
     7   6 C    3.852 --     8 O    1.660     9 N    1.136     6 C    0.966
     8   8 O    1.954 --     7 C    1.660     9 N    0.121
     9   7 N    3.502 --     7 C    1.136    11 C    1.104    10 C    0.970
                             8 O    0.121    12 O    0.111
    10   6 C    3.863 --     9 N    0.970    19 H    0.957    21 H    0.947
                            20 H    0.947
    11   6 C    3.924 --    12 O    1.664     9 N    1.104    13 N    1.071
    12   8 O    1.958 --    11 C    1.664     9 N    0.111    13 N    0.108
    13   7 N    3.466 --     5 C    1.187    11 C    1.071    14 C    0.979
                            12 O    0.108
    14   6 C    3.902 --    13 N    0.979    22 H    0.957    23 H    0.957
                            24 H    0.951
    15   1 H    0.937 --     1 C    0.908
    16   1 H    0.942 --     1 C    0.916
    17   1 H    0.913 --     1 C    0.875
    18   1 H    0.934 --     3 C    0.877
    19   1 H    0.974 --    10 C    0.957
    20   1 H    0.965 --    10 C    0.947
    21   1 H    0.965 --    10 C    0.947
    22   1 H    0.977 --    14 C    0.957
    23   1 H    0.977 --    14 C    0.957
    24   1 H    0.975 --    14 C    0.951
    25   1 H    0.918 --     4 N    0.875
 ---------------------------------------------------------------------------

molecular dipole:
                 x           y           z       tot (Debye)
 q only:        1.245      -1.504       0.010
   full:        1.099      -1.368       0.019       4.460

           -------------------------------------------------
          | TOTAL ENERGY              -42.131800283221 Eh   |
          | GRADIENT NORM               0.006777587744 Eh/α |
          | HOMO-LUMO GAP               0.102191529266 eV   |
           -------------------------------------------------

 * finished run on 2024/06/05 at 19:58:44.442
