   * xtb version 6.6.1 (8d0f1dd) compiled by 'conda@1efc2f54142f' on 2023-08-01
          program call               : xtb xtbopt.xyz --opt crude --input .xc2 --gfn2

   ID    Z sym.   atoms
    1    6 C      1, 3, 5-7, 10, 11, 14
    2    7 N      2, 4, 9, 13
    3    8 O      8, 12
    4    1 H      15-25

          :  Hamiltonian                  GFN2-xTB          :
 * total energy  :   -41.9645350 Eh     change       -0.1534772E-11 Eh
   *** GEOMETRY OPTIMIZATION CONVERGED AFTER 1 ITERATIONS ***

 final structure:
================
25
 xtb: 6.6.1 (8d0f1dd)
C            3.68283133808777        0.80677385025494       -0.14463447432425
N            3.22919730475683       -0.56719002219042       -0.06710198089277
C            3.63718018140110       -1.78918010513082        0.10921867420476
N            2.72801885167149       -2.85948019609656        0.13154678721670
C            1.44894832019963       -2.75874853237834        0.07791322103047
C            2.30862875696071        0.32112222844203       -0.34150726719521
C           -1.62346617087037        1.64922034645531        0.27490687014360
O           -0.88346342411845        0.74271575446394        0.24261398297464
N           -2.39848907779524        2.50708154566539        0.49113839879671
C           -3.18975890008348        3.62396472770095        0.16640651482822
C           -3.63138164203939       -0.48710218549163       -0.60483134667298
O           -4.51153749888787        0.21689832046747       -0.68060987763815
N            0.33099396040077       -2.63276395681043       -0.29492950705002
C           -1.01945221145055       -2.47463749622323        0.01746108295753
H            4.00343601282519        1.26418524392361        0.78749173372154
H            4.27953192956144        1.08621302609929       -1.00627563473943
H            1.28238338775641        0.48606094590782       -0.12739974090232
H            4.67658998817011       -2.02379362171636        0.23366729366164
H           -2.60279851413608        4.53616875470838        0.27790051045204
H           -3.56512818600750        3.55356098364587       -0.85613797006656
H           -4.02990410838342        3.65338029170996        0.86005469740026
H           -1.27916674003842       -2.92936380492195        0.97479006433661
H           -1.60595109293087       -2.91942451247926       -0.78560408257318
H           -1.24436142698085       -1.40423880171198        0.05179277157652
H            3.13755047600328       -3.78318424267728        0.24330089661372

          :  Hamiltonian                  GFN2-xTB          :
         :: total energy             -41.964535037217 Eh    ::
         :: gradient norm              0.003165159474 Eh/a0 ::
         :: HOMO-LUMO gap              2.152142353837 eV    ::
         :: SCC energy               -42.618219824885 Eh    ::
         :: -> dispersion             -0.016371711053 Eh    ::
         :: repulsion energy           0.653675566695 Eh    ::

    * Orbital Energies and Occupations

         #    Occupation            Energy/Eh            Energy/eV
      -------------------------------------------------------------
         1        2.0000           -0.8778283             -23.8869
       ...           ...                  ...                  ...
        25        2.0000           -0.6507837             -17.7087
        26        2.0000           -0.6406058             -17.4318
        27        2.0000           -0.6199084             -16.8686
        28        2.0000           -0.6134998             -16.6942
        29        1.9999           -0.6100212             -16.5995
        30        1.9999           -0.6021591             -16.3856
        31        1.9999           -0.5980169             -16.2729
        32        1.9998           -0.5897240             -16.0472
        33        1.9995           -0.5755072             -15.6603
        34        1.9987           -0.5586551             -15.2018
        35        1.9910           -0.5282322             -14.3739
        36        1.9889           -0.5249135             -14.2836
        37        1.8040           -0.4779070             -13.0045 (HOMO)
        38        0.1174           -0.3988172             -10.8524 (LUMO)
        39        0.0712           -0.3905299             -10.6269
        40        0.0137           -0.3639337              -9.9031
        41        0.0136           -0.3638195              -9.9000
        42        0.0023           -0.3357664              -9.1367
        43        0.0001           -0.2907233              -7.9110
        44        0.0001           -0.2751844              -7.4881
        45        0.0000           -0.2387058              -6.4955
        46                         -0.1711169              -4.6563
        47                         -0.1074095              -2.9228
        48                         -0.0742320              -2.0200
       ...                                ...                  ...
        67                          1.2543249              34.1319
      -------------------------------------------------------------
                  HL-Gap            0.0790898 Eh            2.1521 eV

     #   Z          covCN         q      C6AA      α(0)
     1   6 C        3.737    -0.010    20.846     6.516
     2   7 N        2.733     0.079    19.876     6.621
     3   6 C        2.767    -0.006    28.154     8.690
     4   7 N        2.685    -0.036    21.940     6.957
     5   6 C        1.844     0.132    27.926     8.537
     6   6 C        2.818    -0.055    29.355     8.877
     7   6 C        1.769     0.301    24.440     7.993
     8   8 O        0.856    -0.339    20.504     6.071
     9   7 N        1.820    -0.148    24.988     7.407
    10   6 C        3.685    -0.028    21.285     6.605
    11   6 C        0.856     0.026    34.298     9.772
    12   8 O        0.856    -0.051    15.808     5.331
    13   7 N        1.821    -0.007    22.079     6.962
    14   6 C        3.687    -0.073    22.095     6.729
    15   1 H        0.925     0.070     2.084     2.258
    16   1 H        0.925     0.081     1.967     2.193
    17   1 H        0.927     0.115     1.653     2.011
    18   1 H        0.926     0.093     1.854     2.130
    19   1 H        0.924     0.083     1.950     2.184
    20   1 H        0.924     0.076     2.019     2.222
    21   1 H        0.925     0.091     1.865     2.136
    22   1 H        0.924     0.101     1.777     2.084
    23   1 H        0.925     0.120     1.613     1.986
    24   1 H        0.924     0.150     1.389     1.843
    25   1 H        0.860     0.236     0.942     1.520

Wiberg/Mayer (AO) data.
largest (>0.10) Wiberg bond orders for each atom

     #   Z sym  total        # sym  WBO       # sym  WBO       # sym  WBO
 ---------------------------------------------------------------------------
     1   6 C    3.876 --     6 C    0.984    16 H    0.966    15 H    0.965
                             2 N    0.903
     2   7 N    3.673 --     3 C    1.379     6 C    1.313     1 C    0.903
     3   6 C    3.743 --     2 N    1.379     4 N    1.038    18 H    0.953
                             6 C    0.276
     4   7 N    3.560 --     5 C    1.386     3 C    1.038    25 H    0.892
                            13 N    0.153
     5   6 C    3.800 --    13 N    2.176     4 N    1.386
     6   6 C    3.644 --     2 N    1.313     1 C    0.984    17 H    0.944
                             3 C    0.276
     7   6 C    3.950 --     9 N    2.082     8 O    1.783
     8   8 O    2.230 --     7 C    1.783     9 N    0.375
     9   7 N    3.476 --     7 C    2.082    10 C    1.015     8 O    0.375
    10   6 C    3.944 --     9 N    1.015    21 H    0.965    20 H    0.962
                            19 H    0.961
    11   6 C    2.601 --    12 O    2.592
    12   8 O    2.594 --    11 C    2.592
    13   7 N    3.465 --     5 C    2.176    14 C    1.033     4 N    0.153
    14   6 C    3.921 --    13 N    1.033    23 H    0.951    22 H    0.948
                            24 H    0.908
    15   1 H    0.985 --     1 C    0.965
    16   1 H    0.986 --     1 C    0.966
    17   1 H    0.984 --     6 C    0.944
    18   1 H    0.990 --     3 C    0.953
    19   1 H    0.990 --    10 C    0.961
    20   1 H    0.992 --    10 C    0.962
    21   1 H    0.990 --    10 C    0.965
    22   1 H    0.983 --    14 C    0.948
    23   1 H    0.982 --    14 C    0.951
    24   1 H    0.970 --    14 C    0.908
    25   1 H    0.937 --     4 N    0.892
 ---------------------------------------------------------------------------

molecular dipole:
                 x           y           z       tot (Debye)
 q only:        2.279      -2.079       0.091
   full:        2.173      -2.049       0.256       7.619

           -------------------------------------------------
          | TOTAL ENERGY              -41.964535037217 Eh   |
          | GRADIENT NORM               0.003165159474 Eh/α |
          | HOMO-LUMO GAP               2.152142353837 eV   |
           -------------------------------------------------

 * finished run on 2024/06/05 at 20:00:15.522
