   * xtb version 6.6.1 (8d0f1dd) compiled by 'conda@1efc2f54142f' on 2023-08-01
          program call               : xtb xtbopt.xyz --opt crude --input .xc2 --gfn2

   ID    Z sym.   atoms
    1    7 N      1, 17
    2    6 C      2-6, 8, 9, 11-16, 18-23, 25, 26, 28-33
    3    8 O      7, 10, 24, 27
    4    1 H      34-72

          :  Hamiltonian                  GFN2-xTB          :
 * total energy  :   -99.3369762 Eh     change       -0.4973799E-12 Eh
   *** GEOMETRY OPTIMIZATION CONVERGED AFTER 1 ITERATIONS ***

 final structure:
================
72
 xtb: 6.6.1 (8d0f1dd)
N           -1.61975179195160        2.91780471194792        2.30296058288506
C           -1.59662804937658        2.12779412525442        1.33619182478129
C           -2.79157658139684        1.93549396111845        0.43515942950561
C           -3.28152763813198        0.49873041283951        0.49648013017999
C           -4.31396987705796        0.10110667991838       -0.35569426884649
C           -4.81267623447503       -1.19018030556668       -0.33250288388650
O           -5.80903268175191       -1.65522907814437       -1.11266255405754
C           -6.48185736749388       -0.76434827319627       -1.97157984589142
C           -4.26104561118957       -2.13579224735065        0.57500625213371
O           -4.80346809148257       -3.36910933835076        0.52829218642506
C           -4.39447258990209       -4.33377723038307        1.46959802508476
C           -3.24329847739973       -1.73025408490468        1.42314143483551
C           -2.76119376435151       -0.42684840217778        1.38561487882791
C           -2.33363020283728        2.27231142812426       -1.00836832623206
C           -1.45257101210819        1.19109058982854       -1.65969033414852
C           -0.09845618373026        1.10218479939373       -1.07291181344589
N            0.53510245968457       -0.02117683453582       -0.76144424040376
C            1.90930880351432        0.01302101091315       -0.31968552876229
C            2.88806927978172       -0.38151139029102       -1.44234161271059
C            4.30343181829758       -0.18861077147676       -0.97382705691278
C            4.94420045613085        1.02627187784820       -1.15449347614602
C            6.24041308865163        1.22017244178477       -0.70286917124823
C            6.92130635723098        0.20045704823696       -0.05379386228209
O            8.17817484005305        0.27294686699746        0.42131381081017
C            8.91454288167743        1.46069978315492        0.23987435602681
C            6.26896711128325       -1.04836647826241        0.14357662385553
O            7.00327442882763       -1.98150918823940        0.78112268493861
C            6.45751265924584       -3.26061305518148        0.99811238371537
C            4.97248390691124       -1.21824560079146       -0.31607603822566
C           -0.07748760075359       -1.31796944545733       -0.92249291633279
C           -3.89122311515057        2.88715502154220        0.90609883751391
C           -4.84440880117959        2.48130176913366        1.73406910000750
C           -3.79542854510164        4.31554966858005        0.46998426316062
H           -4.74997468462976        0.82707275761095       -1.02185788236164
H           -6.93404457044854        0.06168299116452       -1.41508683542772
H           -7.26378959212503       -1.35302976625498       -2.44748641673355
H           -5.81253898614303       -0.36505879630400       -2.74069206297131
H           -4.56848793781920       -3.99224377251961        2.49417364910935
H           -5.00696155556558       -5.21148772916335        1.27306468906284
H           -3.33847180901985       -4.59490895424462        1.34556761189035
H           -2.82263799046526       -2.42048853009171        2.13639627947400
H           -1.99202676485488       -0.14090087410697        2.08630918189352
H           -3.21866854542964        2.39739987698495       -1.63155791910512
H           -1.79479194916946        3.22039455903711       -0.99923770871756
H           -1.96867084665525        0.23292759441340       -1.62914791493086
H           -1.33916054282221        1.47312524222670       -2.71491573524134
H           -0.71479180626595        1.54182836524103        1.02334751470288
H            0.46505447684587        2.01834742782812       -0.97854119278735
H            2.03081960167917       -0.66952108015232        0.52593501869315
H            2.15337090151786        1.02198480548371        0.01926184265909
H            2.69643982574473        0.25059859782080       -2.31109982710042
H            2.72266399977263       -1.42093982218404       -1.72773109670456
H            4.43921852176697        1.83280583237299       -1.66422439421667
H            6.71547746111971        2.17337936984988       -0.86678654647018
H            8.44084498113087        2.30762224842989        0.74570004227136
H            9.04276365896820        1.69330976746546       -0.82152976942345
H            9.88803286263076        1.27173167511428        0.68821936743300
H            7.24093169849728       -3.83205869231843        1.49206531326579
H            5.57818357220638       -3.21629508309803        1.64883937392663
H            6.19268997283669       -3.74983214682881        0.05570205548460
H            4.47251112378103       -2.16431614934668       -0.17875712199229
H           -0.24335190861745       -1.54604736966808       -1.97756335775636
H           -1.03586501887531       -1.35649367284201       -0.39926393805823
H            0.57623798303546       -2.07784718163989       -0.50217835285087
H           -7.43324907611535        2.58157678022388       -0.45408503580374
H           -5.58148470594611        3.17029725417247        2.10966341617522
H           -4.92430159538150        1.46567976841697        2.08221860286597
H           -6.78376526876734        2.56989278828457       -0.01783110400938
H           -4.52413638829771        4.91481510156771        1.01141059692267
H           -2.80108215705320        4.70836045858924        0.68495836389182
H           -3.99278271343909        4.42371800516429       -0.59732306164771
H           -0.77677250511625        3.01650740348454        2.85916632204444

          :  Hamiltonian                  GFN2-xTB          :
         :: total energy             -99.336976201083 Eh    ::
         :: gradient norm              0.002927417009 Eh/a0 ::
         :: HOMO-LUMO gap              1.657063864769 eV    ::
         :: SCC energy              -100.758066682650 Eh    ::
         :: -> dispersion             -0.075333474493 Eh    ::
         :: repulsion energy           1.419795093511 Eh    ::

    * Orbital Energies and Occupations

         #    Occupation            Energy/Eh            Energy/eV
      -------------------------------------------------------------
         1        2.0000           -0.8086443             -22.0043
       ...           ...                  ...                  ...
        78        1.9987           -0.5332378             -14.5101
        79        1.9983           -0.5289112             -14.3924
        80        1.9983           -0.5283054             -14.3759
        81        1.9978           -0.5247737             -14.2798
        82        1.9976           -0.5231373             -14.2353
        83        1.9971           -0.5201130             -14.1530
        84        1.9951           -0.5119972             -13.9322
        85        1.9825           -0.4915711             -13.3763
        86        1.9788           -0.4885657             -13.2945
        87        1.9605           -0.4785364             -13.0216
        88        1.9478           -0.4740189             -12.8987
        89        1.8759           -0.4597173             -12.5095
        90        1.8455           -0.4559817             -12.4079 (HOMO)
        91        0.4066           -0.3950857             -10.7508 (LUMO)
        92        0.0149           -0.3392332              -9.2310
        93        0.0036           -0.3168686              -8.6224
        94        0.0030           -0.3136333              -8.5344
        95        0.0028           -0.3125369              -8.5046
        96        0.0024           -0.3101824              -8.4405
        97        0.0005           -0.2866854              -7.8011
        98        0.0000           -0.1910493              -5.1987
        99        0.0000           -0.1877048              -5.1077
       100                         -0.1367166              -3.7202
       101                         -0.0667741              -1.8170
       ...                                ...                  ...
       171                          0.5765506              15.6887
      -------------------------------------------------------------
                  HL-Gap            0.0608960 Eh            1.6571 eV

     #   Z          covCN         q      C6AA      α(0)
     1   7 N        1.775    -0.274    27.940     7.828
     2   6 C        2.829     0.099    25.791     8.322
     3   6 C        3.915     0.006    20.417     6.422
     4   6 C        2.973     0.002    27.969     8.675
     5   6 C        2.921    -0.079    29.965     8.977
     6   6 C        2.863     0.130    25.151     8.220
     7   8 O        1.706    -0.229    17.798     5.696
     8   6 C        3.645     0.026    20.471     6.503
     9   6 C        2.864     0.128    25.182     8.226
    10   8 O        1.706    -0.229    17.794     5.695
    11   6 C        3.645     0.027    20.453     6.500
    12   6 C        2.914    -0.075    29.873     8.963
    13   6 C        2.920    -0.054    29.340     8.883
    14   6 C        3.810    -0.063    21.693     6.630
    15   6 C        3.802    -0.069    21.815     6.650
    16   6 C        2.844     0.007    27.864     8.651
    17   7 N        2.729     0.013    21.021     6.809
    18   6 C        3.756    -0.016    20.920     6.521
    19   6 C        3.808    -0.071    21.844     6.653
    20   6 C        2.969    -0.001    28.038     8.685
    21   6 C        2.922    -0.049    29.216     8.864
    22   6 C        2.914    -0.068    29.682     8.934
    23   6 C        2.865     0.133    25.079     8.209
    24   8 O        1.706    -0.222    17.680     5.677
    25   6 C        3.645     0.025    20.489     6.505
    26   6 C        2.863     0.133    25.088     8.210
    27   8 O        1.706    -0.225    17.726     5.684
    28   6 C        3.645     0.027    20.454     6.500
    29   6 C        2.919    -0.080    29.989     8.980
    30   6 C        3.700    -0.071    22.025     6.712
    31   6 C        2.946     0.031    27.302     8.570
    32   6 C        2.844    -0.091    30.271     9.017
    33   6 C        3.759    -0.118    22.814     6.809
    34   1 H        0.926     0.052     2.291     2.367
    35   1 H        0.924     0.055     2.256     2.349
    36   1 H        0.925     0.082     1.962     2.191
    37   1 H        0.924     0.047     2.354     2.399
    38   1 H        0.924     0.055     2.261     2.351
    39   1 H        0.925     0.081     1.966     2.193
    40   1 H        0.924     0.048     2.348     2.396
    41   1 H        0.926     0.051     2.301     2.372
    42   1 H        0.926     0.037     2.488     2.467
    43   1 H        0.925     0.062     2.180     2.309
    44   1 H        0.924     0.056     2.251     2.346
    45   1 H        0.925     0.066     2.127     2.280
    46   1 H        0.923     0.080     1.977     2.199
    47   1 H        0.923     0.005     2.980     2.700
    48   1 H        0.926     0.070     2.089     2.260
    49   1 H        0.924     0.068     2.111     2.272
    50   1 H        0.924     0.067     2.117     2.275
    51   1 H        0.924     0.055     2.254     2.348
    52   1 H        0.924     0.056     2.249     2.345
    53   1 H        0.926     0.045     2.384     2.414
    54   1 H        0.926     0.058     2.217     2.328
    55   1 H        0.924     0.054     2.268     2.355
    56   1 H        0.924     0.056     2.247     2.344
    57   1 H        0.925     0.082     1.954     2.186
    58   1 H        0.925     0.082     1.959     2.189
    59   1 H        0.924     0.049     2.337     2.391
    60   1 H        0.924     0.052     2.290     2.367
    61   1 H        0.926     0.047     2.358     2.402
    62   1 H        0.924     0.077     2.005     2.215
    63   1 H        0.924     0.080     1.978     2.199
    64   1 H        0.925     0.080     1.974     2.197
    65   1 H        0.795    -0.000     3.120     2.776
    66   1 H        0.926     0.059     2.207     2.323
    67   1 H        0.926     0.042     2.420     2.433
    68   1 H        0.795    -0.001     3.145     2.787
    69   1 H        0.925     0.063     2.160     2.298
    70   1 H        0.924     0.059     2.207     2.323
    71   1 H        0.924     0.052     2.292     2.367
    72   1 H        0.860     0.160     1.337     1.811

Wiberg/Mayer (AO) data.
largest (>0.10) Wiberg bond orders for each atom

     #   Z sym  total        # sym  WBO       # sym  WBO       # sym  WBO
 ---------------------------------------------------------------------------
     1   7 N    3.027 --     2 C    1.964    72 H    0.942
     2   6 C    3.933 --     1 N    1.964     3 C    0.979    47 H    0.909
     3   6 C    3.979 --     2 C    0.979     4 C    0.970    31 C    0.956
                            14 C    0.952
     4   6 C    3.950 --    13 C    1.419     5 C    1.366     3 C    0.970
     5   6 C    3.962 --     6 C    1.403     4 C    1.366    34 H    0.959
     6   6 C    3.907 --     5 C    1.403     9 C    1.220     7 O    1.101
     7   8 O    2.256 --     6 C    1.101     8 C    0.977
     8   6 C    3.931 --     7 O    0.977    36 H    0.977    37 H    0.974
                            35 H    0.972
     9   6 C    3.903 --    12 C    1.395     6 C    1.220    10 O    1.101
    10   8 O    2.253 --     9 C    1.101    11 C    0.977
    11   6 C    3.931 --    10 O    0.977    39 H    0.977    38 H    0.974
                            40 H    0.974
    12   6 C    3.962 --    13 C    1.399     9 C    1.395    41 H    0.964
    13   6 C    3.956 --     4 C    1.419    12 C    1.399    42 H    0.963
    14   6 C    3.971 --    15 C    0.981    44 H    0.973    43 H    0.968
                             3 C    0.952
    15   6 C    3.987 --    16 C    1.061    14 C    0.981    45 H    0.961
                            46 H    0.927
    16   6 C    3.582 --    17 N    1.406    15 C    1.061    48 H    0.957
    17   7 N    3.478 --    16 C    1.406    30 C    0.998    18 C    0.988
    18   6 C    3.956 --    17 N    0.988    50 H    0.968    19 C    0.967
                            49 H    0.963
    19   6 C    3.977 --    20 C    1.008    51 H    0.972    52 H    0.972
                            18 C    0.967
    20   6 C    3.945 --    21 C    1.410    29 C    1.380    19 C    1.008
    21   6 C    3.950 --    22 C    1.416    20 C    1.410    53 H    0.968
    22   6 C    3.960 --    21 C    1.416    23 C    1.384    54 H    0.963
    23   6 C    3.896 --    22 C    1.384    26 C    1.219    24 O    1.110
    24   8 O    2.255 --    23 C    1.110    25 C    0.976
    25   6 C    3.928 --    57 H    0.977    24 O    0.976    56 H    0.973
                            55 H    0.973
    26   6 C    3.899 --    29 C    1.395    23 C    1.219    27 O    1.104
    27   8 O    2.255 --    26 C    1.104    28 C    0.978
    28   6 C    3.932 --    27 O    0.978    58 H    0.977    59 H    0.973
                            60 H    0.973
    29   6 C    3.959 --    26 C    1.395    20 C    1.380    61 H    0.963
    30   6 C    3.957 --    17 N    0.998    64 H    0.978    62 H    0.966
                            63 H    0.961
    31   6 C    3.946 --    32 C    1.899    33 C    1.029     3 C    0.956
    32   6 C    3.946 --    31 C    1.899    67 H    0.972    66 H    0.969
    33   6 C    3.986 --    31 C    1.029    69 H    0.979    70 H    0.966
                            71 H    0.964
    34   1 H    0.996 --     5 C    0.959
    35   1 H    0.993 --     8 C    0.972
    36   1 H    0.993 --     8 C    0.977
    37   1 H    0.994 --     8 C    0.974
    38   1 H    0.993 --    11 C    0.974
    39   1 H    0.993 --    11 C    0.977
    40   1 H    0.993 --    11 C    0.974
    41   1 H    0.996 --    12 C    0.964
    42   1 H    0.998 --    13 C    0.963
    43   1 H    0.994 --    14 C    0.968
    44   1 H    0.996 --    14 C    0.973
    45   1 H    0.995 --    15 C    0.961
    46   1 H    0.969 --    15 C    0.927
    47   1 H    0.988 --     2 C    0.909
    48   1 H    0.995 --    16 C    0.957
    49   1 H    0.990 --    18 C    0.963
    50   1 H    0.995 --    18 C    0.968
    51   1 H    0.996 --    19 C    0.972
    52   1 H    0.996 --    19 C    0.972
    53   1 H    0.997 --    21 C    0.968
    54   1 H    0.995 --    22 C    0.963
    55   1 H    0.992 --    25 C    0.973
    56   1 H    0.992 --    25 C    0.973
    57   1 H    0.992 --    25 C    0.977
    58   1 H    0.993 --    28 C    0.977
    59   1 H    0.993 --    28 C    0.973
    60   1 H    0.993 --    28 C    0.973
    61   1 H    0.997 --    29 C    0.963
    62   1 H    0.984 --    30 C    0.966
    63   1 H    0.987 --    30 C    0.961
    64   1 H    0.993 --    30 C    0.978
    65   1 H    0.997 --    68 H    0.989
    66   1 H    0.994 --    32 C    0.969
    67   1 H    0.997 --    32 C    0.972
    68   1 H    0.999 --    65 H    0.989
    69   1 H    0.994 --    33 C    0.979
    70   1 H    0.993 --    33 C    0.966
    71   1 H    0.993 --    33 C    0.964
    72   1 H    0.970 --     1 N    0.942
 ---------------------------------------------------------------------------

molecular dipole:
                 x           y           z       tot (Debye)
 q only:        0.754       0.013      -0.955
   full:        1.071      -0.051      -1.044       3.805

           -------------------------------------------------
          | TOTAL ENERGY              -99.336976201083 Eh   |
          | GRADIENT NORM               0.002927417009 Eh/α |
          | HOMO-LUMO GAP               1.657063864769 eV   |
           -------------------------------------------------

 * finished run on 2024/04/06 at 11:13:19.477
