   * xtb version 6.6.1 (8d0f1dd) compiled by 'conda@1efc2f54142f' on 2023-08-01
          program call               : xtb struc.xyz --opt loose --input .xc1 --gfn2

   ID    Z sym.   atoms
    1    7 N      1, 17
    2    6 C      2-6, 8, 9, 11-16, 18-23, 25, 26, 28-33
    3    8 O      7, 10, 24, 27
    4    1 H      34-72
constraining bond 29 51 to    5.1400000 Å, actual value:    3.3615472 Å

          :  Hamiltonian                  GFN2-xTB          :
 * total energy  :   -98.8393860 Eh     change       -0.4035485E-08 Eh
 * total energy  :   -99.0413250 Eh     change       -0.2019390E+00 Eh
 * total energy  :   -99.1450537 Eh     change       -0.1037287E+00 Eh
 * total energy  :   -99.1893100 Eh     change       -0.4425627E-01 Eh
 * total energy  :   -99.2073416 Eh     change       -0.1803160E-01 Eh
 * total energy  :   -99.2185528 Eh     change       -0.1121125E-01 Eh
 * total energy  :   -99.2296551 Eh     change       -0.1110226E-01 Eh
 * total energy  :   -99.2451682 Eh     change       -0.1551312E-01 Eh
 * total energy  :   -99.2610179 Eh     change       -0.1584966E-01 Eh
 * total energy  :   -99.2824148 Eh     change       -0.2139691E-01 Eh
 * total energy  :   -99.3881555 Eh     change       -0.1299274E-03 Eh
 * total energy  :   -99.3882458 Eh     change       -0.9029065E-04 Eh
 * total energy  :   -99.3883380 Eh     change       -0.9223405E-04 Eh
 * total energy  :   -99.3884472 Eh     change       -0.1092518E-03 Eh
 * total energy  :   -99.3885503 Eh     change       -0.1031108E-03 Eh
 * total energy  :   -99.3886419 Eh     change       -0.9155607E-04 Eh
 * total energy  :   -99.3887239 Eh     change       -0.8197086E-04 Eh
 * total energy  :   -99.3887997 Eh     change       -0.7578098E-04 Eh
 * total energy  :   -99.3888296 Eh     change       -0.2996012E-04 Eh
   *** GEOMETRY OPTIMIZATION CONVERGED AFTER 68 ITERATIONS ***

 final structure:
================
72
 xtb: 6.6.1 (8d0f1dd)
N           -1.62311597305669        2.69510110423447        2.07740257666684
C           -1.67734220083454        1.80016644300330        1.20542883441707
C           -2.75070149572180        1.71165075071510        0.15533391436364
C           -3.49075296098912        0.39510835437651        0.29476342386614
C           -4.31704682398103       -0.05193525825969       -0.73689917557362
C           -5.01927283368424       -1.24273997644746       -0.63761038608537
O           -5.81742117280774       -1.75753082066621       -1.59206951426511
C           -5.97304964971309       -1.06784505463164       -2.80987768420508
C           -4.91359156014482       -2.02168105293257        0.54952809146319
O           -5.63089505110317       -3.15900585374444        0.55948686095578
C           -5.61848564419766       -3.97325530921710        1.70951340766014
C           -4.10285560170397       -1.56144753690239        1.57738597932438
C           -3.40179045456917       -0.37133087484934        1.44954832788899
C           -2.00931568234068        1.79946358333125       -1.21196298966120
C           -1.39349287750103        0.50985599951769       -1.77672036023605
C            0.08427027448889        0.25010213540935       -1.45577706138007
N            0.34362277256358       -0.13767399500759       -0.08325204146448
C            1.64031615114680        0.24105529401726        0.44520348642072
C            2.80475409942624       -0.60136326910228        0.02705783333029
C            4.13099542349534       -0.20553562556486        0.02148073491841
C            4.55269600271258        1.12349796620432        0.29922309536542
C            5.87762139114011        1.47578246639999        0.25732432109144
C            6.86861038807156        0.53885718516671       -0.05052315020749
O            8.17752716134085        0.78629599443191       -0.12735748546661
C            8.66208904531821        2.08899782851459        0.11571081002230
C            6.48018778065712       -0.81514990750968       -0.31413856918112
O            7.50212532461118       -1.64762533624175       -0.58784385000879
C            7.23090037638358       -3.00168042045760       -0.86977835237036
C            5.15249777215113       -1.15868182573130       -0.27446899204093
C           -0.09611348152063       -1.47112709895789        0.25751712916890
C           -3.80388051532697        2.85673498258058        0.25275079714703
C           -4.57854648685930        2.80115469360670        1.56706972691925
C           -3.20095028342811        4.24704381167741        0.07387938732130
H           -4.40933301107540        0.54198495382020       -1.63096320604468
H           -6.42864250786894       -0.08444429844198       -2.65936783653994
H           -6.63854182504432       -1.68406170988314       -3.41126375237980
H           -5.01680543581181       -0.95316477376460       -3.33039065973773
H           -5.99481999715580       -3.43540057855611        2.58462106654625
H           -6.28196437312728       -4.80602719743412        1.48457136568538
H           -4.61461847631924       -4.35554690741788        1.91882392694498
H           -4.01226774826971       -2.12523855167948        2.49159364221297
H           -2.79511753508837       -0.03596021974079        2.27609232119773
H           -2.73044909842538        2.16757031063151       -1.94276385391460
H           -1.22928268417242        2.55779135936330       -1.12738896766454
H           -1.98656025170683       -0.35561225562503       -1.48498723365449
H           -1.44483501991018        0.57905521517794       -2.86586376828732
H           -0.91692236922469        1.01844219488583        1.07784828804945
H            0.65739261002122        1.15503829066314       -1.66965884044979
H            1.56633912846052        0.18683084589027        1.54349969292944
H            1.80883263674249        1.29004562418847        0.18786865006821
H            0.42130408782857       -0.53404816277253       -2.15198952753218
H            2.58247045717042       -1.62930537973578       -0.21655886106712
H            3.82200766778738        1.87831992308316        0.53983467116384
H            6.15532807965386        2.49745725959773        0.46324737976730
H            8.42327412480325        2.42088639285617        1.13014665710129
H            8.26197166332701        2.80421080834269       -0.60864059000591
H            9.74248576314297        2.02497635064990        0.00149721201506
H            8.19495869912388       -3.45011307060869       -1.10089770264269
H            6.79221564660954       -3.50853375721472       -0.00483285192242
H            6.56608378878166       -3.10602851440629       -1.73238616934028
H            4.84829097323578       -2.17520884990805       -0.46703941556646
H            0.33299253897774       -2.23962667559362       -0.39776657915227
H           -1.18170865362073       -1.52786415503530        0.17683930111104
H            0.18227963684123       -1.69232386037837        1.28623036443582
H           -4.51722378500163        2.68670934915381       -0.56283937325979
H           -3.91016636892072        2.99099176412248        2.40167480563911
H           -5.05262022072118        1.83242216378342        1.70613897040241
H           -5.35342560359966        3.56349322812442        1.56668031090504
H           -2.46378839512490        4.43703957934372        0.84828922535439
H           -2.73537788515727        4.36736616391583       -0.90040675934032
H           -3.98777641814992        4.99197089432789        0.16287522649500
H           -0.83905745602368        2.69478639181255        2.72156858692672

          :  Hamiltonian                  GFN2-xTB          :
         :: total energy             -99.388829617919 Eh    ::
         :: gradient norm              0.001214303129 Eh/a0 ::
         :: HOMO-LUMO gap              1.038026232711 eV    ::
         :: SCC energy              -100.755609839873 Eh    ::
         :: -> dispersion             -0.075678767595 Eh    ::
         :: repulsion energy           1.365491815664 Eh    ::

    * Orbital Energies and Occupations

         #    Occupation            Energy/Eh            Energy/eV
      -------------------------------------------------------------
         1        2.0000           -0.8212374             -22.3470
       ...           ...                  ...                  ...
        78        1.9967           -0.5289451             -14.3933
        79        1.9966           -0.5284642             -14.3802
        80        1.9961           -0.5263005             -14.3214
        81        1.9947           -0.5213960             -14.1879
        82        1.9919           -0.5145781             -14.0024
        83        1.9907           -0.5123611             -13.9421
        84        1.9886           -0.5090587             -13.8522
        85        1.9867           -0.5067032             -13.7881
        86        1.9649           -0.4911028             -13.3636
        87        1.9193           -0.4775639             -12.9952
        88        1.9120           -0.4761306             -12.9562
        89        1.7815           -0.4606064             -12.5337
        90        1.7379           -0.4573342             -12.4447 (HOMO)
        91        0.7470           -0.4191874             -11.4067 (LUMO)
        92        0.0062           -0.3360447              -9.1442
        93        0.0019           -0.3174975              -8.6395
        94        0.0019           -0.3172194              -8.6320
        95        0.0016           -0.3149014              -8.5689
        96        0.0005           -0.2953654              -8.0373
        97        0.0000           -0.1923731              -5.2347
        98        0.0000           -0.1878857              -5.1126
        99                         -0.1048260              -2.8525
       100                         -0.0704136              -1.9161
       101                         -0.0680170              -1.8508
       ...                                ...                  ...
       171                          0.5828490              15.8601
      -------------------------------------------------------------
                  HL-Gap            0.0381468 Eh            1.0380 eV

     #   Z          covCN         q      C6AA      α(0)
     1   7 N        1.774    -0.260    27.581     7.777
     2   6 C        2.828     0.094    25.898     8.339
     3   6 C        3.907     0.008    20.387     6.418
     4   6 C        2.975     0.011    27.777     8.645
     5   6 C        2.920    -0.076    29.895     8.966
     6   6 C        2.862     0.133    25.094     8.211
     7   8 O        1.706    -0.221    17.669     5.675
     8   6 C        3.645     0.025    20.485     6.505
     9   6 C        2.863     0.133    25.089     8.210
    10   8 O        1.706    -0.219    17.630     5.669
    11   6 C        3.645     0.024    20.499     6.507
    12   6 C        2.913    -0.069    29.728     8.941
    13   6 C        2.921    -0.046    29.133     8.851
    14   6 C        3.808    -0.066    21.751     6.639
    15   6 C        3.798    -0.070    21.848     6.655
    16   6 C        3.747    -0.001    20.662     6.484
    17   7 N        2.724    -0.122    23.652     7.223
    18   6 C        3.749     0.001    20.634     6.479
    19   6 C        2.901    -0.051    29.254     8.868
    20   6 C        2.960     0.013    27.715     8.635
    21   6 C        2.917    -0.038    28.955     8.824
    22   6 C        2.907    -0.062    29.536     8.911
    23   6 C        2.864     0.143    24.875     8.175
    24   8 O        1.706    -0.198    17.305     5.617
    25   6 C        3.645     0.020    20.575     6.519
    26   6 C        2.856     0.138    24.983     8.192
    27   8 O        1.706    -0.224    17.717     5.683
    28   6 C        3.645     0.024    20.501     6.508
    29   6 C        2.920    -0.076    29.898     8.967
    30   6 C        3.700    -0.044    21.524     6.635
    31   6 C        3.854    -0.007    20.675     6.467
    32   6 C        3.756    -0.117    22.802     6.809
    33   6 C        3.755    -0.119    22.842     6.815
    34   1 H        0.926     0.058     2.218     2.329
    35   1 H        0.924     0.057     2.237     2.339
    36   1 H        0.925     0.084     1.941     2.179
    37   1 H        0.924     0.052     2.295     2.369
    38   1 H        0.924     0.058     2.217     2.329
    39   1 H        0.925     0.084     1.938     2.177
    40   1 H        0.924     0.054     2.265     2.354
    41   1 H        0.926     0.058     2.225     2.333
    42   1 H        0.926     0.048     2.342     2.393
    43   1 H        0.924     0.055     2.258     2.350
    44   1 H        0.924     0.051     2.313     2.379
    45   1 H        0.925     0.051     2.310     2.377
    46   1 H        0.924     0.051     2.310     2.377
    47   1 H        0.923     0.050     2.320     2.382
    48   1 H        0.924     0.048     2.343     2.394
    49   1 H        0.923     0.067     2.123     2.278
    50   1 H        0.924     0.061     2.186     2.312
    51   1 H        0.923     0.036     2.500     2.473
    52   1 H        0.926     0.054     2.275     2.359
    53   1 H        0.926     0.052     2.298     2.370
    54   1 H        0.926     0.062     2.174     2.306
    55   1 H        0.924     0.063     2.167     2.302
    56   1 H        0.924     0.063     2.168     2.303
    57   1 H        0.925     0.089     1.889     2.150
    58   1 H        0.925     0.085     1.932     2.173
    59   1 H        0.924     0.056     2.251     2.346
    60   1 H        0.924     0.054     2.266     2.354
    61   1 H        0.926     0.057     2.235     2.338
    62   1 H        0.924     0.040     2.454     2.450
    63   1 H        0.925     0.054     2.265     2.353
    64   1 H        0.925     0.054     2.274     2.358
    65   1 H        0.924     0.040     2.450     2.448
    66   1 H        0.925     0.068     2.111     2.272
    67   1 H        0.925     0.036     2.505     2.475
    68   1 H        0.925     0.053     2.287     2.365
    69   1 H        0.925     0.066     2.127     2.281
    70   1 H        0.925     0.039     2.464     2.455
    71   1 H        0.925     0.055     2.259     2.350
    72   1 H        0.860     0.158     1.347     1.818

Wiberg/Mayer (AO) data.
largest (>0.10) Wiberg bond orders for each atom

     #   Z sym  total        # sym  WBO       # sym  WBO       # sym  WBO
 ---------------------------------------------------------------------------
     1   7 N    3.001 --     2 C    1.949    72 H    0.938
     2   6 C    3.918 --     1 N    1.949     3 C    0.990    47 H    0.902
     3   6 C    3.962 --     2 C    0.990     4 C    0.977    14 C    0.948
                            31 C    0.941
     4   6 C    3.928 --    13 C    1.395     5 C    1.372     3 C    0.977
     5   6 C    3.951 --     6 C    1.392     4 C    1.372    34 H    0.958
     6   6 C    3.885 --     5 C    1.392     9 C    1.210     7 O    1.108
     7   8 O    2.249 --     6 C    1.108     8 C    0.977
     8   6 C    3.928 --     7 O    0.977    36 H    0.976    37 H    0.972
                            35 H    0.972
     9   6 C    3.879 --    12 C    1.379     6 C    1.210    10 O    1.113
    10   8 O    2.249 --     9 C    1.113    11 C    0.975
    11   6 C    3.926 --    39 H    0.976    10 O    0.975    40 H    0.972
                            38 H    0.972
    12   6 C    3.951 --    13 C    1.416     9 C    1.379    41 H    0.963
    13   6 C    3.934 --    12 C    1.416     4 C    1.395    42 H    0.962
    14   6 C    3.983 --    15 C    1.005    44 H    0.971    43 H    0.968
                             3 C    0.948
    15   6 C    3.981 --    14 C    1.005    16 C    0.996    46 H    0.972
                            45 H    0.963
    16   6 C    3.969 --    17 N    1.001    15 C    0.996    48 H    0.970
                            51 H    0.956
    17   7 N    3.124 --    30 C    1.015    18 C    1.001    16 C    1.001
    18   6 C    3.970 --    19 C    1.028    17 N    1.001    50 H    0.951
                            49 H    0.929
    19   6 C    3.540 --    20 C    1.442    18 C    1.028    52 H    0.964
    20   6 C    3.975 --    19 C    1.442    21 C    1.221    29 C    1.207
    21   6 C    3.818 --    22 C    1.516    20 C    1.221    53 H    0.964
    22   6 C    3.966 --    21 C    1.516    23 C    1.317    54 H    0.961
    23   6 C    3.780 --    22 C    1.317    26 C    1.171    24 O    1.150
    24   8 O    2.266 --    23 C    1.150    25 C    0.970
    25   6 C    3.921 --    57 H    0.976    55 H    0.971    56 H    0.971
                            24 O    0.970
    26   6 C    3.913 --    29 C    1.474    23 C    1.171    27 O    1.107
    27   8 O    2.259 --    26 C    1.107    28 C    0.975
    28   6 C    3.927 --    58 H    0.976    27 O    0.975    60 H    0.973
                            59 H    0.972
    29   6 C    3.855 --    26 C    1.474    20 C    1.207    61 H    0.961
    30   6 C    3.970 --    17 N    1.015    64 H    0.981    63 H    0.971
                            62 H    0.964
    31   6 C    3.964 --    33 C    1.008    32 C    1.008    65 H    0.955
                             3 C    0.941
    32   6 C    3.971 --    31 C    1.008    67 H    0.980    68 H    0.980
                            66 H    0.971
    33   6 C    3.971 --    31 C    1.008    70 H    0.981    71 H    0.978
                            69 H    0.970
    34   1 H    0.995 --     5 C    0.958
    35   1 H    0.990 --     8 C    0.972
    36   1 H    0.992 --     8 C    0.976
    37   1 H    0.991 --     8 C    0.972
    38   1 H    0.990 --    11 C    0.972
    39   1 H    0.992 --    11 C    0.976
    40   1 H    0.990 --    11 C    0.972
    41   1 H    0.994 --    12 C    0.963
    42   1 H    0.996 --    13 C    0.962
    43   1 H    0.995 --    14 C    0.968
    44   1 H    0.996 --    14 C    0.971
    45   1 H    0.996 --    15 C    0.963
    46   1 H    0.995 --    15 C    0.972
    47   1 H    0.965 --     2 C    0.902
    48   1 H    0.997 --    16 C    0.970
    49   1 H    0.963 --    18 C    0.929
    50   1 H    0.987 --    18 C    0.951
    51   1 H    0.980 --    16 C    0.956
    52   1 H    0.996 --    19 C    0.964
    53   1 H    0.996 --    21 C    0.964
    54   1 H    0.994 --    22 C    0.961
    55   1 H    0.989 --    25 C    0.971
    56   1 H    0.989 --    25 C    0.971
    57   1 H    0.991 --    25 C    0.976
    58   1 H    0.992 --    28 C    0.976
    59   1 H    0.992 --    28 C    0.972
    60   1 H    0.992 --    28 C    0.973
    61   1 H    0.995 --    29 C    0.961
    62   1 H    0.981 --    30 C    0.964
    63   1 H    0.991 --    30 C    0.971
    64   1 H    0.996 --    30 C    0.981
    65   1 H    0.986 --    31 C    0.955
    66   1 H    0.988 --    32 C    0.971
    67   1 H    0.995 --    32 C    0.980
    68   1 H    0.992 --    32 C    0.980
    69   1 H    0.989 --    33 C    0.970
    70   1 H    0.995 --    33 C    0.981
    71   1 H    0.991 --    33 C    0.978
    72   1 H    0.964 --     1 N    0.938
 ---------------------------------------------------------------------------

molecular dipole:
                 x           y           z       tot (Debye)
 q only:        1.119       0.001      -0.073
   full:        1.468      -0.316      -0.124       3.829

           -------------------------------------------------
          | TOTAL ENERGY              -99.388829617919 Eh   |
          | GRADIENT NORM               0.001214303129 Eh/α |
          | HOMO-LUMO GAP               1.038026232711 eV   |
           -------------------------------------------------

 * finished run on 2024/04/06 at 11:14:46.522
