   * xtb version 6.6.1 (8d0f1dd) compiled by 'conda@1efc2f54142f' on 2023-08-01
          program call               : xtb struc.xyz --opt loose --input .xc1 --gfn2

   ID    Z sym.   atoms
    1    6 C      1, 3, 5-7, 10, 11, 14
    2    7 N      2, 4, 9, 13
    3    8 O      8, 12
    4    1 H      15-25
constraining bond 13 14 to    3.9200000 Å, actual value:    1.4502802 Å

          :  Hamiltonian                  GFN2-xTB          :
 * total energy  :   -31.3691692 Eh     change       -0.2401990E-09 Eh
 * total energy  :   -35.3620276 Eh     change       -0.3992858E+01 Eh
 * total energy  :   -38.7512205 Eh     change       -0.3389193E+01 Eh
 * total energy  :   -40.7713401 Eh     change       -0.2020120E+01 Eh
 * total energy  :   -41.5335172 Eh     change       -0.7621771E+00 Eh
 * total energy  :   -41.6499073 Eh     change       -0.1163900E+00 Eh
 * total energy  :   -41.6726602 Eh     change       -0.2275298E-01 Eh
 * total energy  :   -41.7275863 Eh     change       -0.5492607E-01 Eh
 * total energy  :   -41.7744005 Eh     change       -0.4681420E-01 Eh
 * total energy  :   -41.8147995 Eh     change       -0.4039898E-01 Eh
 * total energy  :   -42.1703766 Eh     change       -0.2031040E-03 Eh
 * total energy  :   -42.1705829 Eh     change       -0.2062335E-03 Eh
 * total energy  :   -42.1705894 Eh     change       -0.6544716E-05 Eh
 * total energy  :   -42.1706606 Eh     change       -0.7121827E-04 Eh
 * total energy  :   -42.1706459 Eh     change        0.1474333E-04 Eh
 * total energy  :   -42.1707316 Eh     change       -0.8568032E-04 Eh
 * total energy  :   -42.1707326 Eh     change       -0.9941264E-06 Eh
 * total energy  :   -42.1707211 Eh     change        0.1150484E-04 Eh
 * total energy  :   -42.1707561 Eh     change       -0.3502187E-04 Eh
   *** GEOMETRY OPTIMIZATION CONVERGED AFTER 62 ITERATIONS ***

 final structure:
================
25
 xtb: 6.6.1 (8d0f1dd)
C            3.42234732389114        1.75594306929381        0.01850540481244
N            2.66208638518143        0.53686086245052        0.08401456003293
C            3.14250272365597       -0.70398946530268        0.17551106917221
N            2.12980428337766       -1.59367159754780        0.20807307394767
C            0.94814077204171       -0.90471537019766        0.13577345530641
C            1.29511205632248        0.45312157461305        0.05716866820314
C            0.26438303022325        1.45648821632178       -0.02693143492036
O            0.45045538464034        2.65923113159135       -0.09565242845236
N           -1.00086610389579        0.88748260240248       -0.02054524505388
C           -2.14322357688638        1.77167562609804       -0.10020644035601
C           -1.29573104012487       -0.49898825249227        0.04728916415754
O           -2.45955344884484       -0.84130985603371        0.02637097166032
N           -0.27399754064903       -1.38080275735738        0.13079752762779
C           -3.48717706361738       -3.60465850790799       -0.18754945395927
H            4.06242172356678        1.85342541049532        0.89620809391534
H            4.04862451617587        1.76669929890441       -0.87489618068310
H            2.72923203215252        2.59698816681960       -0.01939377167470
H            4.18409435623927       -0.95713203312306        0.21598032422200
H           -1.78034059396841        2.79652149250174       -0.17283950704276
H           -2.74787628155534        1.51939454319492       -0.97347482566845
H           -2.76809264314595        1.65389340578472        0.78771123800669
H           -3.22500535513521       -4.14596024090758        0.69958435614439
H           -3.33125333190933       -4.05041050811290       -1.15073776716391
H           -3.87988554737016       -2.61017229683859       -0.11044329359651
H            2.21422945373145       -2.59767597304548        0.28085405926090

          :  Hamiltonian                  GFN2-xTB          :
         :: total energy             -42.170756085129 Eh    ::
         :: gradient norm              0.001245893495 Eh/a0 ::
         :: HOMO-LUMO gap              1.595253132513 eV    ::
         :: SCC energy               -42.694579515801 Eh    ::
         :: -> dispersion             -0.020777786066 Eh    ::
         :: repulsion energy           0.523786975237 Eh    ::

    * Orbital Energies and Occupations

         #    Occupation            Energy/Eh            Energy/eV
      -------------------------------------------------------------
         1        2.0000           -0.8994157             -24.4743
       ...           ...                  ...                  ...
        25        1.9980           -0.6596033             -17.9487
        26        1.9951           -0.6380634             -17.3626
        27        1.9940           -0.6335780             -17.2405
        28        1.9884           -0.6176928             -16.8083
        29        1.9850           -0.6116527             -16.6439
        30        1.9828           -0.6083360             -16.5537
        31        1.9811           -0.6060991             -16.4928
        32        1.9789           -0.6034079             -16.4196
        33        1.9350           -0.5761461             -15.6777
        34        1.8766           -0.5601933             -15.2436
        35        1.8721           -0.5592824             -15.2188
        36        1.8223           -0.5508350             -14.9890
        37        1.7391           -0.5406083             -14.7107 (HOMO)
        38        0.7218           -0.4819838             -13.1154 (LUMO)
        39        0.1069           -0.4272994             -11.6274
        40        0.0230           -0.3897760             -10.6063
        41        0.0060           -0.3574928              -9.7279
        42        0.0002           -0.2704832              -7.3602
        43        0.0000           -0.1848239              -5.0293
        44        0.0000           -0.1668000              -4.5389
        45        0.0000           -0.1247813              -3.3955
        46                         -0.0710315              -1.9329
        47                         -0.0284230              -0.7734
        48                         -0.0237846              -0.6472
       ...                                ...                  ...
        67                          0.5311809              14.4542
      -------------------------------------------------------------
                  HL-Gap            0.0586245 Eh            1.5953 eV

     #   Z          covCN         q      C6AA      α(0)
     1   6 C        3.691    -0.090    22.420     6.776
     2   7 N        2.820     0.079    19.865     6.620
     3   6 C        3.051     0.057    26.663     8.468
     4   7 N        2.789    -0.055    22.299     7.013
     5   6 C        3.060     0.148    24.737     8.156
     6   6 C        3.122    -0.019    28.291     8.711
     7   6 C        2.766     0.272    22.398     7.751
     8   8 O        0.858    -0.360    20.891     6.128
     9   7 N        2.747    -0.080    22.798     7.092
    10   6 C        3.703    -0.054    21.711     6.662
    11   6 C        2.755     0.336    21.288     7.555
    12   8 O        0.860    -0.349    20.689     6.098
    13   7 N        1.832    -0.249    27.349     7.750
    14   6 C        2.779    -0.084    30.075     8.982
    15   1 H        0.924     0.109     1.709     2.044
    16   1 H        0.924     0.109     1.704     2.041
    17   1 H        0.924     0.136     1.490     1.909
    18   1 H        0.926     0.124     1.581     1.966
    19   1 H        0.925     0.119     1.619     1.990
    20   1 H        0.924     0.110     1.697     2.037
    21   1 H        0.924     0.110     1.698     2.038
    22   1 H        0.926     0.123     1.587     1.970
    23   1 H        0.926     0.123     1.592     1.973
    24   1 H        0.926     0.148     1.403     1.852
    25   1 H        0.860     0.236     0.939     1.518

Wiberg/Mayer (AO) data.
largest (>0.10) Wiberg bond orders for each atom

     #   Z sym  total        # sym  WBO       # sym  WBO       # sym  WBO
 ---------------------------------------------------------------------------
     1   6 C    3.900 --     2 N    0.987    17 H    0.957    15 H    0.956
                            16 H    0.954
     2   7 N    3.655 --     3 C    1.359     6 C    1.170     1 C    0.987
     3   6 C    3.797 --     2 N    1.359     4 N    1.295    18 H    0.952
     4   7 N    3.567 --     3 C    1.295     5 C    1.160    25 H    0.917
     5   6 C    3.924 --    13 N    1.360     6 C    1.252     4 N    1.160
     6   6 C    3.784 --     5 C    1.252     2 N    1.170     7 C    1.091
     7   6 C    3.925 --     8 O    1.616     9 N    1.126     6 C    1.091
     8   8 O    1.894 --     7 C    1.616     9 N    0.126
     9   7 N    3.440 --     7 C    1.126    11 C    1.034    10 C    0.990
                             8 O    0.126
    10   6 C    3.865 --     9 N    0.990    19 H    0.952    20 H    0.942
                            21 H    0.941
    11   6 C    3.931 --    12 O    1.621    13 N    1.191     9 N    1.034
    12   8 O    1.883 --    11 C    1.621
    13   7 N    2.818 --     5 C    1.360    11 C    1.191
    14   6 C    2.913 --    23 H    0.973    22 H    0.973    24 H    0.958
    15   1 H    0.979 --     1 C    0.956
    16   1 H    0.979 --     1 C    0.954
    17   1 H    0.977 --     1 C    0.957
    18   1 H    0.983 --     3 C    0.952
    19   1 H    0.970 --    10 C    0.952
    20   1 H    0.959 --    10 C    0.942
    21   1 H    0.959 --    10 C    0.941
    22   1 H    0.974 --    14 C    0.973
    23   1 H    0.974 --    14 C    0.973
    24   1 H    0.964 --    14 C    0.958
    25   1 H    0.943 --     4 N    0.917
 ---------------------------------------------------------------------------

molecular dipole:
                 x           y           z       tot (Debye)
 q only:        2.016      -1.633       0.050
   full:        2.435      -1.756       0.074       7.633

           -------------------------------------------------
          | TOTAL ENERGY              -42.170756085129 Eh   |
          | GRADIENT NORM               0.001245893495 Eh/α |
          | HOMO-LUMO GAP               1.595253132513 eV   |
           -------------------------------------------------

 * finished run on 2024/06/05 at 19:58:55.457
