   * xtb version 6.6.1 (8d0f1dd) compiled by 'conda@1efc2f54142f' on 2023-08-01
          program call               : xtb struc.xyz --opt loose --input .xc1 --gfn2

   ID    Z sym.   atoms
    1    6 C      1, 3, 5-7, 10, 11, 14
    2    7 N      2, 4, 9, 13
    3    8 O      8, 12
    4    1 H      15-25
constraining bond 10 12 to    5.7600000 Å, actual value:    2.6513323 Å

          :  Hamiltonian                  GFN2-xTB          :
 * total energy  :   -24.9928069 Eh     change       -0.6650680E-10 Eh
 * total energy  :   -30.6369172 Eh     change       -0.5644110E+01 Eh
 * total energy  :   -35.0570319 Eh     change       -0.4420115E+01 Eh
 * total energy  :   -38.2989525 Eh     change       -0.3241921E+01 Eh
 * total energy  :   -40.4239034 Eh     change       -0.2124951E+01 Eh
 * total energy  :   -41.4428629 Eh     change       -0.1018959E+01 Eh
 * total energy  :   -41.6419676 Eh     change       -0.1991047E+00 Eh
 * total energy  :   -41.6588974 Eh     change       -0.1692984E-01 Eh
 * total energy  :   -41.6776342 Eh     change       -0.1873683E-01 Eh
 * total energy  :   -41.7086784 Eh     change       -0.3104412E-01 Eh
 * total energy  :   -42.0305713 Eh     change       -0.1571504E-03 Eh
 * total energy  :   -42.0306526 Eh     change       -0.8133644E-04 Eh
 * total energy  :   -42.0307694 Eh     change       -0.1168451E-03 Eh
 * total energy  :   -42.0308660 Eh     change       -0.9655581E-04 Eh
 * total energy  :   -42.0309328 Eh     change       -0.6680629E-04 Eh
 * total energy  :   -42.0310338 Eh     change       -0.1009586E-03 Eh
 * total energy  :   -42.0310841 Eh     change       -0.5034085E-04 Eh
 * total energy  :   -42.0311380 Eh     change       -0.5387399E-04 Eh
 * total energy  :   -42.0311787 Eh     change       -0.4073087E-04 Eh
   *** GEOMETRY OPTIMIZATION CONVERGED AFTER 69 ITERATIONS ***

 final structure:
================
25
 xtb: 6.6.1 (8d0f1dd)
C            3.41838796927208        1.25142545727067        0.05733979794857
N            2.46911586718991        0.17001447298380        0.03300331109284
C            2.74335154145829       -1.13059456808853        0.06523974253232
N            1.60257933204562       -1.84489737573030        0.03672241540131
C            0.55407808074367       -0.96316147817089       -0.01610442609195
C            1.10204563385902        0.31181761176985       -0.01738909809956
C            0.28335160026154        1.50127421813478       -0.05482410768410
O            0.66988222788577        2.64794221786604       -0.07685130044885
N           -1.09356075816335        1.14641454611399       -0.05970349430290
C           -2.03131622347665        2.26184642151371       -0.07085122097465
C           -1.61199628938919       -0.06281199682472       -0.05853610321039
O           -4.08964244186632       -3.11476215658036        0.09482636236276
N           -0.80171877466679       -1.18124760602700       -0.04953217831180
C           -1.35325124458578       -2.39575688861534       -0.07010449340818
H            3.94062136940053        1.27484934008167        1.01459710492603
H            4.15149907387942        1.12939436812939       -0.73934613380103
H            2.88404999925195        2.19110143274292       -0.07884473829139
H            3.72794994715376       -1.55422324491257        0.10909010328495
H           -1.46785691216841        3.19202671573658       -0.03638019623680
H           -2.63423690664484        2.22940204864236       -0.97619411057360
H           -2.69217841019304        2.19439747321566        0.79089536496468
H           -0.72769050006992       -3.26826621807820       -0.07664882738290
H           -2.44136087914551       -2.50225126353788       -0.06683866492342
H           -4.98907304681527       -2.81172104629077        0.22561460154880
H            1.54740125887950       -2.85397393973524        0.05199190757729

          :  Hamiltonian                  GFN2-xTB          :
         :: total energy             -42.031178700071 Eh    ::
         :: gradient norm              0.001589453319 Eh/a0 ::
         :: HOMO-LUMO gap              0.710799580880 eV    ::
         :: SCC energy               -42.542889152555 Eh    ::
         :: -> dispersion             -0.021398484541 Eh    ::
         :: repulsion energy           0.511661710662 Eh    ::

    * Orbital Energies and Occupations

         #    Occupation            Energy/Eh            Energy/eV
      -------------------------------------------------------------
         1        2.0000           -0.9235816             -25.1319
       ...           ...                  ...                  ...
        25        1.9999           -0.6582755             -17.9126
        26        1.9999           -0.6558079             -17.8454
        27        1.9998           -0.6411006             -17.4452
        28        1.9998           -0.6353641             -17.2891
        29        1.9996           -0.6266076             -17.0509
        30        1.9984           -0.6046615             -16.4537
        31        1.9980           -0.6005854             -16.3428
        32        1.9968           -0.5929655             -16.1354
        33        1.9942           -0.5838792             -15.8882
        34        1.9934           -0.5817844             -15.8312
        35        1.7733           -0.5238697             -14.2552
        36        1.6347           -0.5150256             -14.0146
        37        1.6105           -0.5137755             -13.9805 (HOMO)
        38        0.8854           -0.4876541             -13.2697 (LUMO)
        39        0.0946           -0.4437480             -12.0750
        40        0.0190           -0.4177168             -11.3667
        41        0.0025           -0.3855313             -10.4908
        42        0.0000           -0.2955782              -8.0431
        43                         -0.2095600              -5.7024
        44                         -0.1950611              -5.3079
        45                         -0.1445209              -3.9326
        46                         -0.1237965              -3.3687
        47                         -0.0661449              -1.7999
        48                         -0.0404838              -1.1016
       ...                                ...                  ...
        67                          0.5212473              14.1839
      -------------------------------------------------------------
                  HL-Gap            0.0261214 Eh            0.7108 eV

     #   Z          covCN         q      C6AA      α(0)
     1   6 C        3.691    -0.094    22.485     6.786
     2   7 N        2.832     0.078    19.880     6.622
     3   6 C        3.055     0.059    26.625     8.462
     4   7 N        2.791    -0.053    22.260     7.007
     5   6 C        3.061     0.088    25.981     8.359
     6   6 C        3.115    -0.002    27.914     8.654
     7   6 C        2.767     0.255    22.713     7.805
     8   8 O        0.857    -0.359    20.873     6.125
     9   7 N        2.745     0.022    20.874     6.786
    10   6 C        3.718    -0.079    22.137     6.721
    11   6 C        1.919    -0.067    32.911     9.265
    12   8 O        0.806    -0.513    24.113     6.582
    13   7 N        2.740     0.096    19.586     6.573
    14   6 C        2.813    -0.055    29.358     8.877
    15   1 H        0.924     0.110     1.698     2.038
    16   1 H        0.925     0.108     1.715     2.048
    17   1 H        0.925     0.137     1.484     1.905
    18   1 H        0.926     0.129     1.544     1.943
    19   1 H        0.925     0.114     1.659     2.014
    20   1 H        0.925     0.104     1.745     2.066
    21   1 H        0.925     0.104     1.747     2.067
    22   1 H        0.926     0.091     1.867     2.137
    23   1 H        0.924     0.201     1.095     1.636
    24   1 H        0.806     0.293     0.744     1.355
    25   1 H        0.860     0.233     0.952     1.528

Wiberg/Mayer (AO) data.
largest (>0.10) Wiberg bond orders for each atom

     #   Z sym  total        # sym  WBO       # sym  WBO       # sym  WBO
 ---------------------------------------------------------------------------
     1   6 C    3.912 --     2 N    0.984    16 H    0.961    17 H    0.961
                            15 H    0.956
     2   7 N    3.669 --     3 C    1.384     6 C    1.160     1 C    0.984
     3   6 C    3.858 --     2 N    1.384     4 N    1.303    18 H    0.951
     4   7 N    3.574 --     3 C    1.303     5 C    1.175    25 H    0.916
     5   6 C    3.879 --     6 C    1.367     4 N    1.175    13 N    1.118
     6   6 C    3.892 --     5 C    1.367     2 N    1.160     7 C    1.085
     7   6 C    3.885 --     8 O    1.680     6 C    1.085     9 N    1.025
     8   8 O    1.958 --     7 C    1.680     9 N    0.111
     9   7 N    3.652 --    11 C    1.465     7 C    1.025    10 C    0.971
                             8 O    0.111
    10   6 C    3.913 --     9 N    0.971    19 H    0.967    21 H    0.963
                            20 H    0.962
    11   6 C    2.782 --     9 N    1.465    13 N    1.126
    12   8 O    0.978 --    24 H    0.907
    13   7 N    3.700 --    14 C    1.336    11 C    1.126     5 C    1.118
    14   6 C    3.315 --    13 N    1.336    22 H    0.968    23 H    0.886
    15   1 H    0.984 --     1 C    0.956
    16   1 H    0.985 --     1 C    0.961
    17   1 H    0.981 --     1 C    0.961
    18   1 H    0.982 --     3 C    0.951
    19   1 H    0.985 --    10 C    0.967
    20   1 H    0.985 --    10 C    0.962
    21   1 H    0.985 --    10 C    0.963
    22   1 H    0.990 --    14 C    0.968
    23   1 H    0.958 --    14 C    0.886
    24   1 H    0.913 --    12 O    0.907
    25   1 H    0.945 --     4 N    0.916
 ---------------------------------------------------------------------------

molecular dipole:
                 x           y           z       tot (Debye)
 q only:        2.924      -0.676       0.074
   full:        3.290      -1.150       0.125       8.865

           -------------------------------------------------
          | TOTAL ENERGY              -42.031178700071 Eh   |
          | GRADIENT NORM               0.001589453319 Eh/α |
          | HOMO-LUMO GAP               0.710799580880 eV   |
           -------------------------------------------------

 * finished run on 2024/06/05 at 19:59:06.106
