   * xtb version 6.6.1 (8d0f1dd) compiled by 'conda@1efc2f54142f' on 2023-08-01
          program call               : xtb struc.xyz --opt loose --input .xc1 --gfn2

   ID    Z sym.   atoms
    1    7 N      1, 17
    2    6 C      2-6, 8, 9, 11-16, 18-23, 25, 26, 28-33
    3    8 O      7, 10, 24, 27
    4    1 H      34-72
constraining bond 2 63 to    7.7133300 Å, actual value:    3.6648863 Å

          :  Hamiltonian                  GFN2-xTB          :
 * total energy  :  -102.3305995 Eh     change       -0.4035485E-08 Eh
 * total energy  :  -103.3646282 Eh     change       -0.1034029E+01 Eh
 * total energy  :  -104.4896655 Eh     change       -0.1125037E+01 Eh
 * total energy  :  -105.7765598 Eh     change       -0.1286894E+01 Eh
 * total energy  :  -107.2720114 Eh     change       -0.1495452E+01 Eh
 * total energy  :   -99.7180540 Eh     change        0.7553957E+01 Eh
 * total energy  :  -107.5910461 Eh     change       -0.7872992E+01 Eh
 * total energy  :  -107.6711929 Eh     change       -0.8014679E-01 Eh
 * total energy  :  -107.7816118 Eh     change       -0.1104189E+00 Eh
 * total energy  :  -107.8216430 Eh     change       -0.4003117E-01 Eh
 * total energy  :  -107.9031631 Eh     change       -0.4124472E-03 Eh
 * total energy  :  -107.9035939 Eh     change       -0.4308724E-03 Eh
 * total energy  :  -107.9037971 Eh     change       -0.2031813E-03 Eh
 * total energy  :  -107.9039215 Eh     change       -0.1243388E-03 Eh
 * total energy  :  -107.9039978 Eh     change       -0.7637699E-04 Eh
 * total energy  :  -107.9040622 Eh     change       -0.6436124E-04 Eh
 * total energy  :  -107.9041101 Eh     change       -0.4791029E-04 Eh
 * total energy  :  -107.9041487 Eh     change       -0.3855634E-04 Eh
 * total energy  :  -107.9041726 Eh     change       -0.2391087E-04 Eh
   *** GEOMETRY OPTIMIZATION CONVERGED AFTER 38 ITERATIONS ***

 final structure:
================
72
 xtb: 6.6.1 (8d0f1dd)
N           -1.80971398580492        1.89504898012397        2.42416278110564
C           -1.52630222301107        1.90951116357422        1.02901173438376
C           -2.84225203081276        1.75479702573353        0.12766454395569
C           -3.40633896801942        0.35239742119578        0.25283727210923
C           -4.38271891141265       -0.07358232829448       -0.65114385019105
C           -4.93321821763015       -1.34291776958463       -0.58196529158862
O           -5.87319298702340       -1.83085919707736       -1.41545378907770
C           -6.39670223277182       -1.00530736810524       -2.42828993403640
C           -4.49917272271315       -2.23998204528994        0.43411495128206
O           -5.08103620031090       -3.45271109516823        0.41884666693644
C           -4.73598663031089       -4.39795011807288        1.40442910374589
C           -3.54311251134522       -1.80314230337028        1.33932252049248
C           -3.00636845500590       -0.52737647128030        1.25059993669206
C           -2.38793653285914        2.01162196391164       -1.32469075690031
C           -1.49079633582061        0.90850257303564       -1.92358342667768
C           -0.11649648043488        0.90720233012274       -1.36513428677251
N            0.45747064579965       -0.08209487402352       -0.69260752231659
C            1.84651026472040        0.12704175704359       -0.29206336998520
C            2.81112471309631       -0.30591621286904       -1.40678727162582
C            4.23178987755372       -0.09413770758685       -0.96241042472972
C            4.86634081250532        1.12089771783220       -1.17147249394411
C            6.16326166632842        1.33025604720703       -0.73020335805986
C            6.85415713873230        0.32630282652088       -0.06483565369192
O            8.10872001522602        0.41539976504729        0.40723051841358
C            8.82898411018505        1.61488095834724        0.23723879690673
C            6.21090246421125       -0.92553975063972        0.15392006890932
O            6.95155316283059       -1.84360104576485        0.80075638397058
C            6.41238471641327       -3.12159300474479        1.04365719952581
C            4.91180997353057       -1.10916188615164       -0.29538222307025
C           -0.07988437196580       -1.25099913362498       -0.38123717055728
C           -3.95021123249770        2.76068227819786        0.54165209965236
C           -4.54948574623151        2.36208646634296        1.88670719828142
C           -3.48688084919642        4.21557069069936        0.58421671895956
H           -4.72809272554305        0.60175900901408       -1.41604541098870
H           -6.88435086171425       -0.11879357866737       -2.01135088155187
H           -7.13645294492697       -1.61225497701426       -2.94639632153993
H           -5.62136348791522       -0.69807129334153       -3.13748499490344
H           -4.97606588934996       -4.03611236979881        2.40861146939788
H           -5.33567579728750       -5.27925971824649        1.18506671153215
H           -3.67445407725612       -4.65930287374053        1.35427243449627
H           -3.20991191711024       -2.45339432805112        2.13165338214899
H           -2.29461498513266       -0.21331509085922        1.99566362159128
H           -3.26801109517837        2.10806447404165       -1.96068164905634
H           -1.85109369938156        2.95933869454816       -1.37812773686610
H           -1.97470332533977       -0.05830812115364       -1.80293927637714
H           -1.41757296207078        1.11363254026137       -2.99726344749985
H           -1.12793870520239        2.91252390349920        0.73941845055604
H            0.47940981440891        1.79093904402333       -1.52200860249019
H            2.04792082493996       -0.45161752984468        0.61043653257363
H            2.00417785956244        1.18278496674838       -0.06404685650645
H            2.60889036282109        0.28022074027090       -2.30477633705358
H            2.64070171099440       -1.35863229650063       -1.63822137466623
H            4.35403346920900        1.91503344639643       -1.69270693279058
H            6.63261455267338        2.28296852384298       -0.91293829202676
H            8.33510843472895        2.45233671236052        0.73916314804082
H            8.96695797768213        1.85237695807471       -0.82165759885920
H            9.79958058690634        1.43965972819606        0.69730969711551
H            7.19385756361613       -3.67486296064200        1.56073509818451
H            5.52502600915732       -3.06763139477671        1.68214284143521
H            6.16243325490545       -3.63474391251987        0.11006919424653
H            4.41742437149609       -2.05506974762644       -0.13978545942768
H           -1.08745103701433       -1.49047384003725       -0.65227108142655
H           -1.13631770236302        1.40293814453903        0.86603423844131
H            0.50089809272325       -1.96655784925129        0.16319880325180
H           -4.73509550734717        2.68788673447248       -0.22095700171457
H           -3.72710996931808        2.11248440768301        2.56884302439086
H           -5.18697919148172        1.48756562444969        1.79702664338790
H           -5.12528114388076        3.17876566530830        2.31118902191875
H           -2.79002861390398        4.38204552314687        1.40113402809078
H           -3.02043682151247        4.52212399954268       -0.34804735058629
H           -4.34778965208173        4.85850076637049        0.74970863823246
H           -1.66292911245919        2.76326414448789        2.91818679780129

          :  Hamiltonian                  GFN2-xTB          :
         :: total energy            -107.904172575159 Eh    ::
         :: gradient norm              0.002691562671 Eh/a0 ::
         :: HOMO-LUMO gap              0.446662906998 eV    ::
         :: SCC energy              -100.732669933785 Eh    ::
         :: -> dispersion             -0.075936290497 Eh    ::
         :: repulsion energy           1.710770297415 Eh    ::

    * Orbital Energies and Occupations

         #    Occupation            Energy/Eh            Energy/eV
      -------------------------------------------------------------
         1        2.0000           -0.8121691             -22.1002
       ...           ...                  ...                  ...
        78        1.9976           -0.5332000             -14.5091
        79        1.9975           -0.5326100             -14.4931
        80        1.9958           -0.5241743             -14.2635
        81        1.9949           -0.5209227             -14.1750
        82        1.9946           -0.5200156             -14.1503
        83        1.9937           -0.5176913             -14.0871
        84        1.9913           -0.5125722             -13.9478
        85        1.9707           -0.4931305             -13.4188
        86        1.9643           -0.4899557             -13.3324
        87        1.8274           -0.4638415             -12.6218
        88        1.7913           -0.4605204             -12.5314
        89        1.7673           -0.4585873             -12.4788
        90        1.5752           -0.4472363             -12.1699 (HOMO)
        91        1.1362           -0.4308218             -11.7233 (LUMO)
        92        0.0103           -0.3431204              -9.3368
        93        0.0019           -0.3166213              -8.6157
        94        0.0018           -0.3155142              -8.5856
        95        0.0017           -0.3144407              -8.5564
        96        0.0014           -0.3114139              -8.4740
        97        0.0000           -0.1922530              -5.2315
        98        0.0000           -0.1897160              -5.1624
        99                         -0.1176198              -3.2006
       100                         -0.0790570              -2.1513
       101                         -0.0645586              -1.7567
       ...                                ...                  ...
       171                          2.3005245              62.6005
      -------------------------------------------------------------
                  HL-Gap            0.0164146 Eh            0.4467 eV

     #   Z          covCN         q      C6AA      α(0)
     1   7 N        1.771    -0.349    29.896     8.096
     2   6 C        3.728    -0.009    20.832     6.516
     3   6 C        3.895     0.010    20.357     6.414
     4   6 C        2.970     0.008    27.837     8.654
     5   6 C        2.920    -0.078    29.958     8.976
     6   6 C        2.862     0.131    25.123     8.216
     7   8 O        1.706    -0.224    17.713     5.682
     8   6 C        3.644     0.027    20.460     6.502
     9   6 C        2.863     0.132    25.101     8.212
    10   8 O        1.706    -0.220    17.659     5.674
    11   6 C        3.645     0.025    20.491     6.506
    12   6 C        2.913    -0.069    29.727     8.941
    13   6 C        2.921    -0.049    29.209     8.863
    14   6 C        3.807    -0.069    21.813     6.649
    15   6 C        3.802    -0.066    21.760     6.641
    16   6 C        2.865    -0.039    28.975     8.823
    17   7 N        2.730     0.097    19.570     6.570
    18   6 C        3.783    -0.024    21.029     6.532
    19   6 C        3.808    -0.069    21.821     6.650
    20   6 C        2.969     0.004    27.927     8.668
    21   6 C        2.922    -0.046    29.147     8.853
    22   6 C        2.913    -0.066    29.639     8.927
    23   6 C        2.864     0.136    25.037     8.202
    24   8 O        1.706    -0.215    17.577     5.661
    25   6 C        3.645     0.023    20.522     6.511
    26   6 C        2.863     0.135    25.039     8.202
    27   8 O        1.706    -0.218    17.623     5.668
    28   6 C        3.645     0.025    20.492     6.506
    29   6 C        2.919    -0.078    29.944     8.973
    30   6 C        2.811    -0.099    30.482     9.046
    31   6 C        3.853    -0.009    20.697     6.471
    32   6 C        3.755    -0.119    22.834     6.813
    33   6 C        3.754    -0.111    22.685     6.791
    34   1 H        0.926     0.051     2.307     2.375
    35   1 H        0.924     0.055     2.260     2.351
    36   1 H        0.925     0.083     1.951     2.184
    37   1 H        0.924     0.051     2.312     2.378
    38   1 H        0.924     0.059     2.215     2.328
    39   1 H        0.925     0.083     1.949     2.183
    40   1 H        0.924     0.053     2.278     2.360
    41   1 H        0.926     0.057     2.233     2.337
    42   1 H        0.926     0.084     1.939     2.177
    43   1 H        0.925     0.054     2.268     2.355
    44   1 H        0.924     0.050     2.315     2.379
    45   1 H        0.925     0.056     2.244     2.343
    46   1 H        0.924     0.068     2.107     2.270
    47   1 H        0.920     0.020     2.741     2.589
    48   1 H        0.926     0.056     2.241     2.341
    49   1 H        0.924     0.077     2.014     2.219
    50   1 H        0.924     0.072     2.061     2.245
    51   1 H        0.924     0.060     2.204     2.322
    52   1 H        0.924     0.060     2.201     2.320
    53   1 H        0.926     0.050     2.318     2.381
    54   1 H        0.926     0.062     2.179     2.309
    55   1 H        0.924     0.057     2.230     2.335
    56   1 H        0.924     0.059     2.212     2.326
    57   1 H        0.925     0.085     1.929     2.172
    58   1 H        0.925     0.084     1.934     2.175
    59   1 H        0.924     0.053     2.289     2.366
    60   1 H        0.924     0.056     2.247     2.344
    61   1 H        0.926     0.052     2.289     2.366
    62   1 H        0.926     0.064     2.152     2.294
    63   1 H        0.932     0.126     1.565     1.956
    64   1 H        0.926     0.064     2.147     2.291
    65   1 H        0.924     0.045     2.384     2.415
    66   1 H        0.924     0.091     1.869     2.138
    67   1 H        0.925     0.043     2.412     2.429
    68   1 H        0.925     0.057     2.239     2.340
    69   1 H        0.925     0.047     2.353     2.399
    70   1 H        0.925     0.039     2.461     2.453
    71   1 H        0.925     0.052     2.299     2.371
    72   1 H        0.860     0.140     1.471     1.900

Wiberg/Mayer (AO) data.
largest (>0.10) Wiberg bond orders for each atom

     #   Z sym  total        # sym  WBO       # sym  WBO       # sym  WBO
 ---------------------------------------------------------------------------
     1   7 N    2.204 --     2 C    1.120    72 H    0.954
     2   6 C    3.925 --     1 N    1.120    47 H    0.947    63 H    0.939
                             3 C    0.872
     3   6 C    3.883 --     4 C    0.992    14 C    0.978    31 C    0.951
                             2 C    0.872
     4   6 C    3.921 --    13 C    1.396     5 C    1.369     3 C    0.992
     5   6 C    3.947 --     6 C    1.395     4 C    1.369    34 H    0.957
     6   6 C    3.881 --     5 C    1.395     9 C    1.210     7 O    1.104
     7   8 O    2.244 --     6 C    1.104     8 C    0.978
     8   6 C    3.929 --     7 O    0.978    36 H    0.976    37 H    0.972
                            35 H    0.972
     9   6 C    3.875 --    12 C    1.380     6 C    1.210    10 O    1.111
    10   8 O    2.245 --     9 C    1.111    11 C    0.976
    11   6 C    3.927 --    39 H    0.977    10 O    0.976    40 H    0.972
                            38 H    0.971
    12   6 C    3.949 --    13 C    1.416     9 C    1.380    41 H    0.962
    13   6 C    3.920 --    12 C    1.416     4 C    1.396    42 H    0.953
    14   6 C    3.962 --     3 C    0.978    15 C    0.973    44 H    0.969
                            43 H    0.965
    15   6 C    3.984 --    16 C    1.052    14 C    0.973    45 H    0.963
                            46 H    0.945
    16   6 C    3.650 --    17 N    1.352    15 C    1.052    48 H    0.963
                            30 C    0.209
    17   7 N    3.747 --    30 C    1.373    16 C    1.352    18 C    0.965
    18   6 C    3.951 --    19 C    0.976    49 H    0.968    50 H    0.968
                            17 N    0.965
    19   6 C    3.986 --    20 C    1.007    18 C    0.976    52 H    0.971
                            51 H    0.970
    20   6 C    3.934 --    21 C    1.401    29 C    1.385    19 C    1.007
    21   6 C    3.939 --    22 C    1.421    20 C    1.401    53 H    0.968
    22   6 C    3.953 --    21 C    1.421    23 C    1.377    54 H    0.963
    23   6 C    3.883 --    22 C    1.377    26 C    1.211    24 O    1.118
    24   8 O    2.254 --    23 C    1.118    25 C    0.974
    25   6 C    3.924 --    57 H    0.976    24 O    0.974    55 H    0.971
                            56 H    0.971
    26   6 C    3.887 --    29 C    1.389    23 C    1.211    27 O    1.112
    27   8 O    2.254 --    26 C    1.112    28 C    0.977
    28   6 C    3.928 --    27 O    0.977    58 H    0.976    59 H    0.972
                            60 H    0.972
    29   6 C    3.954 --    26 C    1.389    20 C    1.385    61 H    0.962
    30   6 C    3.593 --    17 N    1.373    64 H    0.974    62 H    0.967
                            16 C    0.209
    31   6 C    3.967 --    32 C    1.012    33 C    1.007     3 C    0.951
                            65 H    0.946
    32   6 C    3.920 --    31 C    1.012    67 H    0.979    68 H    0.978
                            66 H    0.906
    33   6 C    3.985 --    31 C    1.007    70 H    0.981    71 H    0.981
                            69 H    0.980
    34   1 H    0.996 --     5 C    0.957
    35   1 H    0.991 --     8 C    0.972
    36   1 H    0.992 --     8 C    0.976
    37   1 H    0.991 --     8 C    0.972
    38   1 H    0.990 --    11 C    0.971
    39   1 H    0.992 --    11 C    0.977
    40   1 H    0.990 --    11 C    0.972
    41   1 H    0.994 --    12 C    0.962
    42   1 H    0.990 --    13 C    0.953
    43   1 H    0.990 --    14 C    0.965
    44   1 H    0.996 --    14 C    0.969
    45   1 H    0.996 --    15 C    0.963
    46   1 H    0.977 --    15 C    0.945
    47   1 H    0.971 --     2 C    0.947
    48   1 H    0.997 --    16 C    0.963
    49   1 H    0.993 --    18 C    0.968
    50   1 H    0.994 --    18 C    0.968
    51   1 H    0.995 --    19 C    0.970
    52   1 H    0.995 --    19 C    0.971
    53   1 H    0.997 --    21 C    0.968
    54   1 H    0.994 --    22 C    0.963
    55   1 H    0.990 --    25 C    0.971
    56   1 H    0.990 --    25 C    0.971
    57   1 H    0.992 --    25 C    0.976
    58   1 H    0.992 --    28 C    0.976
    59   1 H    0.991 --    28 C    0.972
    60   1 H    0.991 --    28 C    0.972
    61   1 H    0.996 --    29 C    0.962
    62   1 H    0.995 --    30 C    0.967
    63   1 H    0.962 --     2 C    0.939
    64   1 H    0.996 --    30 C    0.974
    65   1 H    0.977 --    31 C    0.946
    66   1 H    0.979 --    32 C    0.906
    67   1 H    0.993 --    32 C    0.979
    68   1 H    0.991 --    32 C    0.978
    69   1 H    0.995 --    33 C    0.980
    70   1 H    0.997 --    33 C    0.981
    71   1 H    0.994 --    33 C    0.981
    72   1 H    0.967 --     1 N    0.954
 ---------------------------------------------------------------------------

molecular dipole:
                 x           y           z       tot (Debye)
 q only:        0.893      -0.119      -0.783
   full:        0.830       0.291      -0.970       3.328

           -------------------------------------------------
          | TOTAL ENERGY             -107.904172575159 Eh   |
          | GRADIENT NORM               0.002691562671 Eh/α |
          | HOMO-LUMO GAP               0.446662906998 eV   |
           -------------------------------------------------

 * finished run on 2024/04/06 at 11:15:37.524
