   * xtb version 6.6.1 (8d0f1dd) compiled by 'conda@1efc2f54142f' on 2023-08-01
          program call               : xtb xtbopt.xyz --opt crude --input .xc2 --gfn2

   ID    Z sym.   atoms
    1    7 N      1, 17
    2    6 C      2-6, 8, 9, 11-16, 18-23, 25, 26, 28-33
    3    8 O      7, 10, 24, 27
    4    1 H      34-72
########################################################################
[WARNING] Please study the warnings concerning your input carefully
-1- readin_getIntValue: could not parse ''
########################################################################

          :  Hamiltonian                  GFN2-xTB          :
 * total energy  :   -99.0206085 Eh     change       -0.6025402E-11 Eh
 * total energy  :   -99.3415821 Eh     change       -0.3209736E+00 Eh
 * total energy  :   -99.3443459 Eh     change       -0.2763851E-02 Eh
 * total energy  :   -99.3452725 Eh     change       -0.9266022E-03 Eh
 * total energy  :   -99.3456514 Eh     change       -0.3788045E-03 Eh
 * total energy  :   -99.3459671 Eh     change       -0.3157277E-03 Eh
   *** GEOMETRY OPTIMIZATION CONVERGED AFTER 6 ITERATIONS ***

 final structure:
================
72
 xtb: 6.6.1 (8d0f1dd)
N           -1.86318366219891        1.92081457395646        2.45635801126823
C           -1.60493120486403        1.98662319031275        1.08279519437082
C           -2.84842806952785        1.77102483821997        0.14591787702896
C           -3.41116903127087        0.36680777115516        0.26508365560613
C           -4.38047085153366       -0.06232448971558       -0.64532127213983
C           -4.92750801788121       -1.33397276128631       -0.58076263378447
O           -5.86391350143686       -1.82472423330842       -1.41692847726208
C           -6.39467749815615       -1.00088528989863       -2.42774738921871
C           -4.49419139271637       -2.23200522980073        0.43476461619518
O           -5.06851073118903       -3.44864096850257        0.41511931320495
C           -4.72891761910700       -4.38578684187227        1.41058948185571
C           -3.54604170844178       -1.79152642475645        1.34686434600998
C           -3.01728382329554       -0.51232609239771        1.26559784482783
C           -2.37982301118870        2.02417425131565       -1.30384765309202
C           -1.49213380794832        0.91501387603745       -1.90862834484343
C           -0.11483283656940        0.89871426932555       -1.35828915614204
N            0.46951587993267       -0.10858535678974       -0.71740214120485
C            1.85627518539166        0.10114353915993       -0.30996640416857
C            2.82705609950884       -0.31838094644227       -1.42319641342718
C            4.24392401297160       -0.10174362843068       -0.97031076999946
C            4.87413052129115        1.11632357782606       -1.17399849599777
C            6.16870892654323        1.32907388261026       -0.72788829275922
C            6.86072901997382        0.32586064971505       -0.06244686521873
O            8.11461930018048        0.41886828673853        0.41119576937767
C            8.83263418851203        1.61870059883860        0.23443743686738
C            6.22038729522254       -0.92770127354086        0.15436555549829
O            6.96085895572344       -1.84458405788809        0.80312794285006
C            6.42196627194769       -3.12286994040855        1.04554659068065
C            4.92357655893233       -1.11477436555414       -0.30013380053684
C           -0.06407686362452       -1.28657565838404       -0.43099777891564
C           -3.97856720679409        2.77005897702725        0.53374626493918
C           -4.58375901804215        2.37588124552359        1.87630529917106
C           -3.52803972838900        4.22909107927553        0.57200659881849
H           -4.72526114837190        0.61117818561244       -1.41248871389903
H           -6.88286642214926       -0.11546772518243       -2.00933295591716
H           -7.13545388926716       -1.61071991996033       -2.94119052620011
H           -5.62394074081112       -0.69242655417282       -3.14139845552326
H           -4.97390707909498       -4.01467364710269        2.41002930891797
H           -5.32722949425608       -5.26911720667471        1.19614804326462
H           -3.66706547781402       -4.64735618307504        1.36832940500890
H           -3.21299169434265       -2.44135805825133        2.13969692365852
H           -2.31707443084288       -0.19257584510989        2.01835934461588
H           -3.25500409018758        2.12897288567871       -1.94516285788790
H           -1.83382778674982        2.96707906298276       -1.35143963198327
H           -1.98388025405861       -0.04827242216771       -1.79077481061499
H           -1.42086674317192        1.12474240361860       -2.98205458645095
H           -1.13437530028953        2.93454005554093        0.77945982125621
H            0.48100594487555        1.78525389705360       -1.50019044887164
H            2.05578939448581       -0.48406831075665        0.58913151294457
H            2.00804423552871        1.15561211798415       -0.07117210462322
H            2.62531605946090        0.27344116277236       -2.31750181960206
H            2.66240909583725       -1.37023834945301       -1.66224385368150
H            4.36046210002204        1.90956647449706       -1.69517685817488
H            6.63527523033458        2.28370962142322       -0.90726884169500
H            8.33860783414406        2.45761464458277        0.73372591729891
H            8.96738990656810        1.85161398992118       -0.82596319330177
H            9.80457299068819        1.44731350173601        0.69292717255345
H            7.20461656154620       -3.67716726487799        1.55969397458738
H            5.53634740243590       -3.06930922780906        1.68654337343816
H            6.16913725901637       -3.63480473243636        0.11204283081581
H            4.43059796333690       -2.06179325736787       -0.14673455440420
H           -1.07424244391011       -1.51821392591308       -0.69790919447520
H           -0.93552583327843        1.15615179254410        0.83252314646914
H            0.51703562091052       -2.00613692622571        0.10782035155538
H           -4.75308381594216        2.68165686958106       -0.23726015209935
H           -3.75948150564019        2.14680101182098        2.56710956618995
H           -5.20354162790205        1.48702446127909        1.79220617532523
H           -5.17721325323305        3.18646904107282        2.29014184624905
H           -2.84099080900819        4.40567737546027        1.39537410130717
H           -3.05422364152911        4.53356030664696       -0.35732399170998
H           -4.39594998515942        4.86645704222609        0.72426741876934
H           -1.68601716713082        2.77263612693523        2.97236624963058

          :  Hamiltonian                  GFN2-xTB          :
         :: total energy             -99.345967085399 Eh    ::
         :: gradient norm              0.007140726565 Eh/a0 ::
         :: HOMO-LUMO gap              0.479803702867 eV    ::
         :: SCC energy              -100.706743084754 Eh    ::
         :: -> dispersion             -0.075801220375 Eh    ::
         :: repulsion energy           1.359478927814 Eh    ::

    * Orbital Energies and Occupations

         #    Occupation            Energy/Eh            Energy/eV
      -------------------------------------------------------------
         1        2.0000           -0.8120309             -22.0965
       ...           ...                  ...                  ...
        78        1.9976           -0.5328364             -14.4992
        79        1.9975           -0.5324201             -14.4879
        80        1.9959           -0.5241132             -14.2618
        81        1.9948           -0.5206421             -14.1674
        82        1.9944           -0.5192874             -14.1305
        83        1.9938           -0.5177436             -14.0885
        84        1.9910           -0.5118191             -13.9273
        85        1.9709           -0.4930517             -13.4166
        86        1.9638           -0.4895579             -13.3215
        87        1.8305           -0.4639825             -12.6256
        88        1.7923           -0.4604370             -12.5291
        89        1.7632           -0.4580977             -12.4655
        90        1.5906           -0.4477984             -12.1852 (HOMO)
        91        1.1212           -0.4301660             -11.7054 (LUMO)
        92        0.0108           -0.3437381              -9.3536
        93        0.0020           -0.3165604              -8.6140
        94        0.0018           -0.3151834              -8.5766
        95        0.0017           -0.3143536              -8.5540
        96        0.0014           -0.3109428              -8.4612
        97        0.0000           -0.1921391              -5.2284
        98        0.0000           -0.1893982              -5.1538
        99                         -0.1186436              -3.2285
       100                         -0.0697225              -1.8972
       101                         -0.0643333              -1.7506
       ...                                ...                  ...
       171                          0.5725935              15.5811
      -------------------------------------------------------------
                  HL-Gap            0.0176325 Eh            0.4798 eV

     #   Z          covCN         q      C6AA      α(0)
     1   7 N        1.770    -0.336    29.533     8.047
     2   6 C        3.732     0.032    20.118     6.402
     3   6 C        3.900     0.010    20.347     6.412
     4   6 C        2.970     0.010    27.802     8.649
     5   6 C        2.920    -0.078    29.949     8.974
     6   6 C        2.861     0.131    25.125     8.216
     7   8 O        1.706    -0.224    17.713     5.682
     8   6 C        3.644     0.027    20.464     6.503
     9   6 C        2.864     0.132    25.104     8.213
    10   8 O        1.706    -0.220    17.657     5.673
    11   6 C        3.645     0.025    20.491     6.506
    12   6 C        2.913    -0.069    29.724     8.940
    13   6 C        2.921    -0.048    29.197     8.861
    14   6 C        3.807    -0.068    21.803     6.647
    15   6 C        3.801    -0.065    21.744     6.639
    16   6 C        2.864    -0.036    28.889     8.810
    17   7 N        2.730     0.094    19.620     6.579
    18   6 C        3.782    -0.023    20.998     6.528
    19   6 C        3.808    -0.069    21.821     6.650
    20   6 C        2.969     0.004    27.928     8.669
    21   6 C        2.922    -0.046    29.149     8.854
    22   6 C        2.913    -0.066    29.640     8.927
    23   6 C        2.864     0.135    25.039     8.202
    24   8 O        1.706    -0.216    17.580     5.661
    25   6 C        3.645     0.023    20.521     6.510
    26   6 C        2.863     0.135    25.039     8.202
    27   8 O        1.706    -0.218    17.624     5.668
    28   6 C        3.645     0.025    20.491     6.506
    29   6 C        2.919    -0.078    29.946     8.974
    30   6 C        2.810    -0.098    30.461     9.042
    31   6 C        3.854    -0.009    20.698     6.471
    32   6 C        3.755    -0.118    22.818     6.811
    33   6 C        3.754    -0.111    22.672     6.790
    34   1 H        0.926     0.051     2.304     2.374
    35   1 H        0.924     0.055     2.260     2.351
    36   1 H        0.925     0.083     1.949     2.183
    37   1 H        0.924     0.051     2.310     2.377
    38   1 H        0.924     0.059     2.216     2.328
    39   1 H        0.925     0.083     1.948     2.183
    40   1 H        0.924     0.053     2.277     2.360
    41   1 H        0.926     0.057     2.230     2.335
    42   1 H        0.926     0.084     1.941     2.179
    43   1 H        0.925     0.054     2.269     2.356
    44   1 H        0.924     0.050     2.325     2.384
    45   1 H        0.925     0.056     2.243     2.342
    46   1 H        0.924     0.068     2.106     2.269
    47   1 H        0.923     0.026     2.642     2.542
    48   1 H        0.926     0.056     2.245     2.343
    49   1 H        0.924     0.076     2.023     2.224
    50   1 H        0.924     0.072     2.068     2.249
    51   1 H        0.924     0.060     2.205     2.322
    52   1 H        0.924     0.060     2.198     2.318
    53   1 H        0.926     0.050     2.319     2.381
    54   1 H        0.926     0.062     2.179     2.309
    55   1 H        0.924     0.057     2.231     2.336
    56   1 H        0.924     0.059     2.213     2.326
    57   1 H        0.925     0.085     1.929     2.172
    58   1 H        0.925     0.084     1.935     2.175
    59   1 H        0.924     0.052     2.289     2.366
    60   1 H        0.924     0.056     2.249     2.345
    61   1 H        0.926     0.052     2.290     2.367
    62   1 H        0.927     0.064     2.157     2.297
    63   1 H        0.924     0.057     2.236     2.339
    64   1 H        0.926     0.064     2.150     2.293
    65   1 H        0.924     0.044     2.394     2.419
    66   1 H        0.923     0.092     1.856     2.130
    67   1 H        0.925     0.043     2.412     2.429
    68   1 H        0.925     0.057     2.237     2.339
    69   1 H        0.925     0.047     2.357     2.401
    70   1 H        0.925     0.039     2.466     2.456
    71   1 H        0.925     0.051     2.304     2.374
    72   1 H        0.860     0.143     1.450     1.886

Wiberg/Mayer (AO) data.
largest (>0.10) Wiberg bond orders for each atom

     #   Z sym  total        # sym  WBO       # sym  WBO       # sym  WBO
 ---------------------------------------------------------------------------
     1   7 N    2.225 --     2 C    1.137    72 H    0.950
     2   6 C    3.945 --     1 N    1.137    47 H    0.948    63 H    0.907
                             3 C    0.905
     3   6 C    3.902 --     4 C    0.991    14 C    0.977    31 C    0.943
                             2 C    0.905
     4   6 C    3.920 --    13 C    1.395     5 C    1.371     3 C    0.991
     5   6 C    3.947 --     6 C    1.394     4 C    1.371    34 H    0.957
     6   6 C    3.880 --     5 C    1.394     9 C    1.210     7 O    1.104
     7   8 O    2.243 --     6 C    1.104     8 C    0.978
     8   6 C    3.929 --     7 O    0.978    36 H    0.976    37 H    0.972
                            35 H    0.972
     9   6 C    3.874 --    12 C    1.379     6 C    1.210    10 O    1.110
    10   8 O    2.244 --     9 C    1.110    11 C    0.976
    11   6 C    3.927 --    39 H    0.977    10 O    0.976    40 H    0.972
                            38 H    0.972
    12   6 C    3.949 --    13 C    1.417     9 C    1.379    41 H    0.962
    13   6 C    3.920 --    12 C    1.417     4 C    1.395    42 H    0.952
    14   6 C    3.963 --     3 C    0.977    15 C    0.973    44 H    0.970
                            43 H    0.966
    15   6 C    3.983 --    16 C    1.052    14 C    0.973    45 H    0.963
                            46 H    0.944
    16   6 C    3.655 --    17 N    1.344    15 C    1.052    48 H    0.963
                            30 C    0.211
    17   7 N    3.743 --    30 C    1.372    16 C    1.344    18 C    0.964
    18   6 C    3.951 --    19 C    0.976    49 H    0.968    50 H    0.968
                            17 N    0.964
    19   6 C    3.986 --    20 C    1.007    18 C    0.976    52 H    0.970
                            51 H    0.970
    20   6 C    3.934 --    21 C    1.402    29 C    1.385    19 C    1.007
    21   6 C    3.939 --    22 C    1.421    20 C    1.402    53 H    0.968
    22   6 C    3.953 --    21 C    1.421    23 C    1.377    54 H    0.962
    23   6 C    3.884 --    22 C    1.377    26 C    1.212    24 O    1.118
    24   8 O    2.253 --    23 C    1.118    25 C    0.975
    25   6 C    3.925 --    57 H    0.976    24 O    0.975    55 H    0.971
                            56 H    0.971
    26   6 C    3.888 --    29 C    1.389    23 C    1.212    27 O    1.112
    27   8 O    2.254 --    26 C    1.112    28 C    0.977
    28   6 C    3.928 --    27 O    0.977    58 H    0.976    59 H    0.972
                            60 H    0.972
    29   6 C    3.954 --    26 C    1.389    20 C    1.385    61 H    0.962
    30   6 C    3.595 --    17 N    1.372    64 H    0.974    62 H    0.968
                            16 C    0.211
    31   6 C    3.966 --    32 C    1.013    33 C    1.008    65 H    0.948
                             3 C    0.943
    32   6 C    3.914 --    31 C    1.013    67 H    0.979    68 H    0.977
                            66 H    0.899
    33   6 C    3.985 --    31 C    1.008    70 H    0.981    69 H    0.981
                            71 H    0.981
    34   1 H    0.995 --     5 C    0.957
    35   1 H    0.991 --     8 C    0.972
    36   1 H    0.992 --     8 C    0.976
    37   1 H    0.991 --     8 C    0.972
    38   1 H    0.990 --    11 C    0.972
    39   1 H    0.992 --    11 C    0.977
    40   1 H    0.990 --    11 C    0.972
    41   1 H    0.994 --    12 C    0.962
    42   1 H    0.990 --    13 C    0.952
    43   1 H    0.991 --    14 C    0.966
    44   1 H    0.996 --    14 C    0.970
    45   1 H    0.996 --    15 C    0.963
    46   1 H    0.977 --    15 C    0.944
    47   1 H    0.970 --     2 C    0.948
    48   1 H    0.997 --    16 C    0.963
    49   1 H    0.994 --    18 C    0.968
    50   1 H    0.995 --    18 C    0.968
    51   1 H    0.995 --    19 C    0.970
    52   1 H    0.995 --    19 C    0.970
    53   1 H    0.997 --    21 C    0.968
    54   1 H    0.994 --    22 C    0.962
    55   1 H    0.990 --    25 C    0.971
    56   1 H    0.990 --    25 C    0.971
    57   1 H    0.992 --    25 C    0.976
    58   1 H    0.992 --    28 C    0.976
    59   1 H    0.991 --    28 C    0.972
    60   1 H    0.991 --    28 C    0.972
    61   1 H    0.996 --    29 C    0.962
    62   1 H    0.995 --    30 C    0.968
    63   1 H    0.940 --     2 C    0.907
    64   1 H    0.996 --    30 C    0.974
    65   1 H    0.979 --    31 C    0.948
    66   1 H    0.978 --    32 C    0.899
    67   1 H    0.993 --    32 C    0.979
    68   1 H    0.991 --    32 C    0.977
    69   1 H    0.995 --    33 C    0.981
    70   1 H    0.997 --    33 C    0.981
    71   1 H    0.994 --    33 C    0.981
    72   1 H    0.966 --     1 N    0.950
 ---------------------------------------------------------------------------

molecular dipole:
                 x           y           z       tot (Debye)
 q only:        0.845      -0.080      -0.739
   full:        0.826       0.321      -0.936       3.275

           -------------------------------------------------
          | TOTAL ENERGY              -99.345967085399 Eh   |
          | GRADIENT NORM               0.007140726565 Eh/α |
          | HOMO-LUMO GAP               0.479803702867 eV   |
           -------------------------------------------------

 * finished run on 2024/04/06 at 11:15:38.817
