   * xtb version 6.6.1 (8d0f1dd) compiled by 'conda@1efc2f54142f' on 2023-08-01
          program call               : xtb struc.xyz --opt loose --input .xc1 --gfn2

   ID    Z sym.   atoms
    1    7 N      1, 17
    2    6 C      2-6, 8, 9, 11-16, 18-23, 25, 26, 28-33
    3    8 O      7, 10, 24, 27
    4    1 H      34-72
constraining bond 59 60 to    3.2800000 Å, actual value:    1.7892627 Å

          :  Hamiltonian                  GFN2-xTB          :
 * total energy  :   -99.0073325 Eh     change       -0.4035485E-08 Eh
 * total energy  :   -99.1660665 Eh     change       -0.1587340E+00 Eh
 * total energy  :   -99.2384687 Eh     change       -0.7240219E-01 Eh
 * total energy  :   -99.2557085 Eh     change       -0.1723982E-01 Eh
 * total energy  :   -99.2583050 Eh     change       -0.2596529E-02 Eh
 * total energy  :   -99.2589686 Eh     change       -0.6635532E-03 Eh
 * total energy  :   -99.2595217 Eh     change       -0.5531306E-03 Eh
 * total energy  :   -99.2597152 Eh     change       -0.1935295E-03 Eh
 * total energy  :   -99.2598422 Eh     change       -0.1270035E-03 Eh
 * total energy  :   -99.2599515 Eh     change       -0.1092545E-03 Eh
 * total energy  :   -99.2632367 Eh     change       -0.1650959E-02 Eh
 * total energy  :   -99.2666770 Eh     change       -0.3440358E-02 Eh
 * total energy  :   -99.2690647 Eh     change       -0.2387701E-02 Eh
 * total energy  :   -99.2712575 Eh     change       -0.2192758E-02 Eh
 * total energy  :   -99.2731686 Eh     change       -0.1911152E-02 Eh
 * total energy  :   -99.2734892 Eh     change       -0.3205344E-03 Eh
 * total energy  :   -99.2736904 Eh     change       -0.2012122E-03 Eh
 * total energy  :   -99.2737661 Eh     change       -0.7571255E-04 Eh
 * total energy  :   -99.2737929 Eh     change       -0.2675585E-04 Eh
   *** GEOMETRY OPTIMIZATION CONVERGED AFTER 30 ITERATIONS ***

 final structure:
================
72
 xtb: 6.6.1 (8d0f1dd)
N           -1.90497785110275        2.82062560911258        2.23707108629621
C           -1.84602576117020        2.12592539959605        1.20135967243065
C           -2.98937341773937        1.91486851770913        0.24784114968764
C           -3.46369034977158        0.47143814641768        0.33248915461611
C           -4.40620743252359        0.00140262862263       -0.58401699953306
C           -4.88441199504846       -1.29698806183932       -0.53101540619234
O           -5.80531066342633       -1.82070991909898       -1.36593458923693
C           -6.43532312766073       -0.98344375916594       -2.30693149850657
C           -4.39332133892514       -2.18351086470900        0.46555137602907
O           -4.90280647492982       -3.43060622983889        0.43389556868324
C           -4.51926948566536       -4.35482138262991        1.42548415507861
C           -3.45829008062774       -1.71053607838203        1.37259723351565
C           -3.00410029120381       -0.39890536186180        1.30878423328417
C           -2.42695717894815        2.20009186486484       -1.16949928501214
C           -1.49348059024246        1.10564173939580       -1.71940123825950
C           -0.15473324127726        1.09676836264211       -1.08849995977266
N            0.50703288842818        0.01485484244918       -0.69409381988081
C            1.88928228019549        0.10883245370048       -0.28570584050605
C            2.84795447423939       -0.33666933059930       -1.40794104816224
C            4.27303741162707       -0.14720957009070       -0.97021099130222
C            4.91780619079009        1.06783490054781       -1.16355719887831
C            6.21296361431496        1.27540300821861       -0.71797481072798
C            6.90533674936441        0.26590077196223       -0.05913724272334
O            8.16463883779979        0.34032478048186        0.40139128928391
C            8.89542907449554        1.53535536960943        0.22798262146465
C            6.25155907450588       -0.97663432231713        0.13494445544341
O            6.94993390936890       -1.92109608690747        0.82136124293445
C            6.66014935105769       -3.19673870260490        0.74428232288521
C            4.95225103738694       -1.16723212498041       -0.31816577738118
C           -0.08503620614788       -1.30086127313842       -0.73061587686299
C           -4.20480575546666        2.84751287764814        0.53221247587319
C           -4.85702702746448        2.52456336191178        1.87437556545672
C           -3.85161220805056        4.33113007842461        0.47548740868102
H           -4.78327575665950        0.66728663449128       -1.34203517469353
H           -6.93545120837490       -0.14027907876455       -1.82095906889481
H           -7.17828358442301       -1.60630455496330       -2.80096366709539
H           -5.72597904194993       -0.60958000922602       -3.05255893906549
H           -4.77292818668531       -3.99670755300415        2.42749352680774
H           -5.08295475498664       -5.26105676601339        1.21294244481681
H           -3.44807025832140       -4.57503096118767        1.37597660134084
H           -3.08291506463748       -2.35390790975797        2.15177273423049
H           -2.30198385096693       -0.05921407669147        2.05442470706784
H           -3.26219676198154        2.30879972980875       -1.86030749996162
H           -1.89001611959690        3.14912384167847       -1.15125298576529
H           -1.98180139310070        0.13575470630204       -1.64452506241850
H           -1.34935741713626        1.32507999367104       -2.78556597801742
H           -0.92495215084651        1.62067240903601        0.85086982074466
H            0.39178232989455        2.02859194437701       -1.07120362027305
H            2.04753317466875       -0.51755637169032        0.59616985733929
H            2.11691444106459        1.14202894508185       -0.01554928197893
H            2.65061501328255        0.26370127854221       -2.29781105574880
H            2.66469891803988       -1.38411647685116       -1.64944914634582
H            4.40664497076761        1.87026773616857       -1.67351247437499
H            6.68006798000561        2.23116202804239       -0.88899998114014
H            8.41838659545129        2.37410482418549        0.74235834601084
H            9.02063715076052        1.77580024672242       -0.83159412561467
H            9.87009745645666        1.34598734304672        0.67326509318010
H            7.23426523965642       -3.82757524289202        1.39723115153208
H            5.23098381034125       -3.04142134234354        2.86650808610153
H            6.19989928414380       -3.60129196481759       -0.15829072368263
H            4.46376169804783       -2.10901975826031       -0.11852674278988
H           -0.24970446709118       -1.63146723772360       -1.75842635569668
H           -1.04238813190544       -1.30386161185716       -0.20376369607303
H            0.58073084241353       -2.00676089797569       -0.24088010285011
H           -4.94017725093743        2.64683093795665       -0.25511408805897
H           -4.16644647943801        2.73573576942918        2.68424365426896
H           -5.15402452890872        1.47999407490842        1.92680661399241
H           -5.74348875732369        3.13954319709670        2.00514101989149
H           -3.10764942557000        4.57187877787860        1.22847534504360
H           -3.48056193027375        4.62413487376902       -0.50307255263353
H           -4.74373017471547        4.91673925120933        0.68136044313310
H           -1.06278102834549        2.91356114796838        2.79617829156551

          :  Hamiltonian                  GFN2-xTB          :
         :: total energy             -99.273792864647 Eh    ::
         :: gradient norm              0.001481157479 Eh/a0 ::
         :: HOMO-LUMO gap              0.952424295353 eV    ::
         :: SCC energy              -100.647295601245 Eh    ::
         :: -> dispersion             -0.075764420293 Eh    ::
         :: repulsion energy           1.371680908957 Eh    ::

    * Orbital Energies and Occupations

         #    Occupation            Energy/Eh            Energy/eV
      -------------------------------------------------------------
         1        2.0000           -0.8411376             -22.8885
       ...           ...                  ...                  ...
        78        1.9985           -0.5313070             -14.4576
        79        1.9982           -0.5286227             -14.3846
        80        1.9981           -0.5281317             -14.3712
        81        1.9974           -0.5226648             -14.2224
        82        1.9958           -0.5150843             -14.0162
        83        1.9950           -0.5123891             -13.9428
        84        1.9945           -0.5109768             -13.9044
        85        1.9941           -0.5096965             -13.8695
        86        1.9802           -0.4904992             -13.3472
        87        1.9632           -0.4805047             -13.0752
        88        1.9353           -0.4713618             -12.8264
        89        1.8673           -0.4594174             -12.5014
        90        1.4288           -0.4320672             -11.7571 (HOMO)
        91        0.4305           -0.3970663             -10.8047 (LUMO)
        92        0.4002           -0.3956062             -10.7650
        93        0.0141           -0.3392481              -9.2314
        94        0.0055           -0.3241749              -8.8212
        95        0.0043           -0.3202617              -8.7148
        96        0.0034           -0.3165253              -8.6131
        97        0.0028           -0.3135454              -8.5320
        98        0.0000           -0.1999596              -5.4412
        99        0.0000           -0.1908627              -5.1936
       100                         -0.1381241              -3.7585
       101                         -0.0697026              -1.8967
       ...                                ...                  ...
       171                          0.5722260              15.5711
      -------------------------------------------------------------
                  HL-Gap            0.0350009 Eh            0.9524 eV

     #   Z          covCN         q      C6AA      α(0)
     1   7 N        1.774    -0.267    27.751     7.801
     2   6 C        2.826     0.101    25.745     8.314
     3   6 C        3.907     0.006    20.413     6.422
     4   6 C        2.974     0.003    27.962     8.674
     5   6 C        2.921    -0.080    29.995     8.981
     6   6 C        2.863     0.130    25.157     8.221
     7   8 O        1.706    -0.229    17.804     5.697
     8   6 C        3.645     0.027    20.449     6.499
     9   6 C        2.864     0.129    25.174     8.224
    10   8 O        1.706    -0.228    17.776     5.692
    11   6 C        3.645     0.027    20.463     6.501
    12   6 C        2.914    -0.074    29.858     8.960
    13   6 C        2.921    -0.053    29.321     8.880
    14   6 C        3.812    -0.065    21.736     6.636
    15   6 C        3.802    -0.069    21.821     6.651
    16   6 C        2.843     0.007    27.862     8.651
    17   7 N        2.729     0.012    21.054     6.815
    18   6 C        3.755    -0.017    20.940     6.525
    19   6 C        3.807    -0.071    21.861     6.656
    20   6 C        2.969     0.002    27.970     8.675
    21   6 C        2.923    -0.044    29.086     8.844
    22   6 C        2.914    -0.067    29.660     8.931
    23   6 C        2.862     0.140    24.941     8.186
    24   8 O        1.706    -0.225    17.736     5.686
    25   6 C        3.645     0.023    20.519     6.511
    26   6 C        2.880     0.111    25.541     8.285
    27   8 O        1.709    -0.106    15.926     5.388
    28   6 C        2.741     0.052    26.822     8.480
    29   6 C        2.919    -0.065    29.609     8.923
    30   6 C        3.699    -0.071    22.031     6.713
    31   6 C        3.853    -0.007    20.674     6.467
    32   6 C        3.756    -0.119    22.831     6.813
    33   6 C        3.755    -0.118    22.823     6.812
    34   1 H        0.926     0.052     2.292     2.368
    35   1 H        0.924     0.054     2.271     2.356
    36   1 H        0.925     0.081     1.965     2.192
    37   1 H        0.924     0.048     2.350     2.397
    38   1 H        0.924     0.056     2.250     2.346
    39   1 H        0.925     0.082     1.963     2.191
    40   1 H        0.924     0.049     2.336     2.390
    41   1 H        0.926     0.053     2.283     2.363
    42   1 H        0.926     0.039     2.461     2.453
    43   1 H        0.925     0.060     2.197     2.318
    44   1 H        0.924     0.053     2.279     2.361
    45   1 H        0.925     0.066     2.125     2.280
    46   1 H        0.923     0.080     1.982     2.202
    47   1 H        0.922     0.006     2.954     2.688
    48   1 H        0.926     0.069     2.097     2.265
    49   1 H        0.924     0.072     2.068     2.249
    50   1 H        0.924     0.068     2.110     2.272
    51   1 H        0.924     0.057     2.229     2.335
    52   1 H        0.924     0.058     2.217     2.328
    53   1 H        0.926     0.052     2.296     2.370
    54   1 H        0.926     0.064     2.151     2.294
    55   1 H        0.924     0.057     2.235     2.338
    56   1 H        0.924     0.057     2.236     2.338
    57   1 H        0.925     0.085     1.931     2.173
    58   1 H        0.926     0.107     1.724     2.053
    59   1 H        0.000    -0.186    24.470     9.045
    60   1 H        0.924     0.070     2.088     2.260
    61   1 H        0.926     0.060     2.203     2.321
    62   1 H        0.924     0.076     2.019     2.222
    63   1 H        0.924     0.080     1.975     2.198
    64   1 H        0.925     0.082     1.963     2.191
    65   1 H        0.924     0.037     2.485     2.465
    66   1 H        0.925     0.070     2.088     2.260
    67   1 H        0.925     0.036     2.506     2.476
    68   1 H        0.925     0.051     2.305     2.374
    69   1 H        0.925     0.060     2.196     2.317
    70   1 H        0.925     0.034     2.527     2.486
    71   1 H        0.925     0.055     2.263     2.353
    72   1 H        0.860     0.158     1.350     1.820

Wiberg/Mayer (AO) data.
largest (>0.10) Wiberg bond orders for each atom

     #   Z sym  total        # sym  WBO       # sym  WBO       # sym  WBO
 ---------------------------------------------------------------------------
     1   7 N    3.040 --     2 C    1.958    72 H    0.941
     2   6 C    3.929 --     1 N    1.958     3 C    0.995    47 H    0.900
     3   6 C    3.976 --     2 C    0.995     4 C    0.969    14 C    0.958
                            31 C    0.942
     4   6 C    3.948 --    13 C    1.413     5 C    1.368     3 C    0.969
     5   6 C    3.962 --     6 C    1.401     4 C    1.368    34 H    0.957
     6   6 C    3.905 --     5 C    1.401     9 C    1.221     7 O    1.100
     7   8 O    2.254 --     6 C    1.100     8 C    0.978
     8   6 C    3.932 --     7 O    0.978    36 H    0.977    35 H    0.974
                            37 H    0.973
     9   6 C    3.901 --    12 C    1.391     6 C    1.221    10 O    1.103
    10   8 O    2.253 --     9 C    1.103    11 C    0.977
    11   6 C    3.931 --    10 O    0.977    39 H    0.977    40 H    0.974
                            38 H    0.973
    12   6 C    3.962 --    13 C    1.404     9 C    1.391    41 H    0.964
    13   6 C    3.954 --     4 C    1.413    12 C    1.404    42 H    0.962
    14   6 C    3.972 --    15 C    0.981    44 H    0.972    43 H    0.969
                             3 C    0.958
    15   6 C    3.987 --    16 C    1.060    14 C    0.981    45 H    0.961
                            46 H    0.927
    16   6 C    3.590 --    17 N    1.400    15 C    1.060    48 H    0.957
    17   7 N    3.478 --    16 C    1.400    30 C    0.998    18 C    0.989
    18   6 C    3.957 --    17 N    0.989    50 H    0.968    19 C    0.967
                            49 H    0.963
    19   6 C    3.977 --    20 C    1.008    52 H    0.972    51 H    0.971
                            18 C    0.967
    20   6 C    3.966 --    29 C    1.403    21 C    1.396    19 C    1.008
    21   6 C    3.937 --    22 C    1.431    20 C    1.396    53 H    0.968
    22   6 C    3.964 --    21 C    1.431    23 C    1.370    54 H    0.963
    23   6 C    3.902 --    22 C    1.370    26 C    1.240    24 O    1.118
    24   8 O    2.274 --    23 C    1.118    25 C    0.971
    25   6 C    3.926 --    57 H    0.977    55 H    0.974    56 H    0.974
                            24 O    0.971
    26   6 C    3.894 --    29 C    1.377    23 C    1.240    27 O    1.041
    27   8 O    2.418 --    28 C    1.256    26 C    1.041
    28   6 C    3.444 --    27 O    1.256    60 H    0.965    58 H    0.963
                            59 H    0.158
    29   6 C    3.933 --    20 C    1.403    26 C    1.377    61 H    0.960
    30   6 C    3.957 --    17 N    0.998    64 H    0.977    62 H    0.966
                            63 H    0.961
    31   6 C    3.972 --    33 C    1.009    32 C    1.008    65 H    0.959
                             3 C    0.942
    32   6 C    3.978 --    31 C    1.008    67 H    0.982    68 H    0.981
                            66 H    0.974
    33   6 C    3.983 --    31 C    1.009    70 H    0.983    71 H    0.980
                            69 H    0.977
    34   1 H    0.996 --     5 C    0.957
    35   1 H    0.993 --     8 C    0.974
    36   1 H    0.993 --     8 C    0.977
    37   1 H    0.994 --     8 C    0.973
    38   1 H    0.993 --    11 C    0.973
    39   1 H    0.993 --    11 C    0.977
    40   1 H    0.993 --    11 C    0.974
    41   1 H    0.995 --    12 C    0.964
    42   1 H    0.998 --    13 C    0.962
    43   1 H    0.995 --    14 C    0.969
    44   1 H    0.996 --    14 C    0.972
    45   1 H    0.995 --    15 C    0.961
    46   1 H    0.970 --    15 C    0.927
    47   1 H    0.986 --     2 C    0.900
    48   1 H    0.995 --    16 C    0.957
    49   1 H    0.990 --    18 C    0.963
    50   1 H    0.994 --    18 C    0.968
    51   1 H    0.996 --    19 C    0.971
    52   1 H    0.996 --    19 C    0.972
    53   1 H    0.997 --    21 C    0.968
    54   1 H    0.995 --    22 C    0.963
    55   1 H    0.993 --    25 C    0.974
    56   1 H    0.993 --    25 C    0.974
    57   1 H    0.992 --    25 C    0.977
    58   1 H    0.987 --    28 C    0.963
    59   1 H    0.192 --    28 C    0.158
    60   1 H    0.992 --    28 C    0.965
    61   1 H    0.995 --    29 C    0.960
    62   1 H    0.985 --    30 C    0.966
    63   1 H    0.987 --    30 C    0.961
    64   1 H    0.993 --    30 C    0.977
    65   1 H    0.992 --    31 C    0.959
    66   1 H    0.991 --    32 C    0.974
    67   1 H    0.997 --    32 C    0.982
    68   1 H    0.994 --    32 C    0.981
    69   1 H    0.993 --    33 C    0.977
    70   1 H    0.997 --    33 C    0.983
    71   1 H    0.994 --    33 C    0.980
    72   1 H    0.970 --     1 N    0.941
 ---------------------------------------------------------------------------

molecular dipole:
                 x           y           z       tot (Debye)
 q only:        1.044       0.427      -1.816
   full:        1.441       0.351      -1.980       6.289

           -------------------------------------------------
          | TOTAL ENERGY              -99.273792864647 Eh   |
          | GRADIENT NORM               0.001481157479 Eh/α |
          | HOMO-LUMO GAP               0.952424295353 eV   |
           -------------------------------------------------

 * finished run on 2024/04/06 at 11:15:16.170
