   * xtb version 6.6.1 (8d0f1dd) compiled by 'conda@1efc2f54142f' on 2023-08-01
          program call               : xtb xtbopt.xyz --opt crude --input .xc2 --gfn2

   ID    Z sym.   atoms
    1    7 N      1, 17
    2    6 C      2-6, 8, 9, 11-16, 18-23, 25, 26, 28-33
    3    8 O      7, 10, 24, 27
    4    1 H      34-72

          :  Hamiltonian                  GFN2-xTB          :
 * total energy  :   -99.2743298 Eh     change       -0.1151506E-09 Eh
 * total energy  :   -99.2873382 Eh     change       -0.1300835E-01 Eh
 * total energy  :   -99.3321834 Eh     change       -0.4484524E-01 Eh
 * total energy  :   -99.4021276 Eh     change       -0.6994415E-01 Eh
 * total energy  :   -99.3615653 Eh     change        0.4056223E-01 Eh
 * total energy  :   -99.3993585 Eh     change       -0.3779315E-01 Eh
 * total energy  :   -99.3977765 Eh     change        0.1581988E-02 Eh
 * total energy  :   -99.4058636 Eh     change       -0.8087076E-02 Eh
 * total energy  :   -99.3991999 Eh     change        0.6663668E-02 Eh
 * total energy  :   -99.4063910 Eh     change       -0.7191078E-02 Eh
 * total energy  :   -99.4043996 Eh     change        0.1991347E-02 Eh
 * total energy  :   -99.4066114 Eh     change       -0.2211715E-02 Eh
 * total energy  :   -99.4066430 Eh     change       -0.3168512E-04 Eh
   *** GEOMETRY OPTIMIZATION CONVERGED AFTER 13 ITERATIONS ***

 final structure:
================
72
 xtb: 6.6.1 (8d0f1dd)
N           -1.90255635985038        2.82033013691203        2.23821812924302
C           -1.84600055252506        2.12616558574438        1.20196611376953
C           -2.98980011387208        1.91549117553385        0.24897684628574
C           -3.46275778354025        0.47153170166788        0.33108435455151
C           -4.40419222658772        0.00074733201486       -0.58646348328919
C           -4.88079073450410       -1.29822878637783       -0.53389453160577
O           -5.80003589233786       -1.82462950417814       -1.36900314813937
C           -6.43089508633134       -0.99110435523164       -2.31273799237536
C           -4.38987992270065       -2.18386463768786        0.46341484062752
O           -4.89899172189700       -3.43157415677711        0.43200713571961
C           -4.51912288243903       -4.35263225668752        1.42751942927307
C           -3.45579926928732       -1.71058079229947        1.37079255341484
C           -3.00249035812310       -0.39849186347864        1.30703363517709
C           -2.42698867288490        2.20340976041935       -1.16772175233655
C           -1.49105978087644        1.11046290317158       -1.71482741362104
C           -0.15624942814729        1.10034450644230       -1.07600132607542
N            0.50656640772239        0.01626740897726       -0.69155643225465
C            1.88736597920590        0.10964131000851       -0.27950830675221
C            2.85217413254712       -0.33485817653430       -1.39572406478574
C            4.27289991128297       -0.13723035999657       -0.94604448716313
C            4.91981727226810        1.06838247819541       -1.16388949705085
C            6.21980599188139        1.26609167007059       -0.72543114927072
C            6.90022751889117        0.25868087930105       -0.05640957099836
O            8.16012289287760        0.33677433576663        0.40932611387247
C            8.88960442718801        1.52804676324687        0.22374019321160
C            6.24272434488488       -0.98112540654202        0.17655552868832
O            6.97775591252798       -1.90257340450908        0.83046103813837
C            6.41447949265633       -3.16301728748677        1.10946257348004
C            4.94020533561281       -1.15277272097141       -0.26525597412002
C           -0.08648527183780       -1.29889330522687       -0.73373134881859
C           -4.20545656552238        2.84663269408865        0.53544927400003
C           -4.85508724433064        2.52087126845630        1.87824588455021
C           -3.85245628596221        4.33030562057432        0.47984133815541
H           -4.78162062329086        0.66641439523039       -1.34458742935183
H           -6.93472336891444       -0.14857888888896       -1.82951219686944
H           -7.17097742309191       -1.61761762513614       -2.80659728885802
H           -5.72160752986377       -0.61662456092963       -3.05805003457239
H           -4.77708575841541       -3.99164513657069        2.42747467622300
H           -5.08137273247007       -5.25984139219402        1.21538576311588
H           -3.44755294258532       -4.57249014329932        1.38311311960564
H           -3.08061238309825       -2.35356535462875        2.15041773501389
H           -2.30104471272617       -0.05814890955941        2.05306034726968
H           -3.26152979331439        2.31012542539546       -1.85967966427973
H           -1.89186566369700        3.15349203532653       -1.14819935326442
H           -1.98006743727178        0.14045404104574       -1.64353291386869
H           -1.33998950518370        1.33019405936412       -2.77993171387508
H           -0.92533055523834        1.62102173458588        0.84886988532816
H            0.38914721904369        2.03246572502317       -1.05004477025701
H            2.04194920637266       -0.51599541625279        0.60369083798355
H            2.11490930275619        1.14294431275860       -0.00972474223274
H            2.65754340608624        0.26356993949577       -2.28731975970284
H            2.67533554603433       -1.38343835017382       -1.63787302815712
H            4.41619203958192        1.86450925952699       -1.69096579184280
H            6.69861054050532        2.21269222430905       -0.91481019489655
H            8.41137739963836        2.37259639631780        0.72927883955247
H            9.01501202061309        1.76024635553682       -0.83798454105476
H            9.86490460349735        1.34537990854115        0.67063493769792
H            7.21024191939166       -3.75298025848564        1.55121162351490
H            5.58314258863427       -3.07841101295132        1.81713713931674
H            6.07103226839851       -3.65847392293039        0.19337058686298
H            4.43288948549901       -2.08956410765195       -0.09558450705382
H           -0.25109459046718       -1.62600573387454       -1.76259139270291
H           -1.04399389678815       -1.30248403811102       -0.20680877489969
H            0.57887528199939       -2.00749066516377       -0.24729796290509
H           -4.94169641655301        2.64632143752698       -0.25116214031078
H           -4.16232346168518        2.72921652767036        2.68705943935633
H           -5.15266609928813        1.47629956179388        1.92829380710877
H           -5.74083230845108        3.13609677129549        2.01276862201498
H           -3.10603187273763        4.56979522817447        1.23084431927649
H           -3.48427926650366        4.62433540618775       -0.49952133514496
H           -4.74373928405799        4.91594476576751        0.68918093686662
H           -1.05926307134822        2.91477901182105        2.79535725909125

          :  Hamiltonian                  GFN2-xTB          :
         :: total energy             -99.406643038718 Eh    ::
         :: gradient norm              0.004656847168 Eh/a0 ::
         :: HOMO-LUMO gap              1.669520813207 eV    ::
         :: SCC energy              -100.785984044012 Eh    ::
         :: -> dispersion             -0.075003821893 Eh    ::
         :: repulsion energy           1.378096475121 Eh    ::

    * Orbital Energies and Occupations

         #    Occupation            Energy/Eh            Energy/eV
      -------------------------------------------------------------
         1        2.0000           -0.8088160             -22.0090
       ...           ...                  ...                  ...
        78        1.9983           -0.5290438             -14.3960
        79        1.9983           -0.5285506             -14.3826
        80        1.9982           -0.5280460             -14.3689
        81        1.9975           -0.5227498             -14.2247
        82        1.9971           -0.5201294             -14.1534
        83        1.9959           -0.5149539             -14.0126
        84        1.9952           -0.5122584             -13.9393
        85        1.9943           -0.5095786             -13.8663
        86        1.9810           -0.4904614             -13.3461
        87        1.9786           -0.4886068             -13.2957
        88        1.9382           -0.4714717             -12.8294
        89        1.8724           -0.4594418             -12.5020
        90        1.8437           -0.4559886             -12.4081 (HOMO)
        91        0.3934           -0.3946348             -10.7386 (LUMO)
        92        0.0147           -0.3392691              -9.2320
        93        0.0035           -0.3165407              -8.6135
        94        0.0029           -0.3135412              -8.5319
        95        0.0027           -0.3125499              -8.5049
        96        0.0024           -0.3101788              -8.4404
        97        0.0000           -0.1908426              -5.1931
        98        0.0000           -0.1876874              -5.1072
        99                         -0.1366633              -3.7188
       100                         -0.0688235              -1.8728
       101                         -0.0644065              -1.7526
       ...                                ...                  ...
       171                          0.5764151              15.6851
      -------------------------------------------------------------
                  HL-Gap            0.0613538 Eh            1.6695 eV

     #   Z          covCN         q      C6AA      α(0)
     1   7 N        1.774    -0.268    27.768     7.803
     2   6 C        2.826     0.101    25.747     8.315
     3   6 C        3.907     0.006    20.413     6.422
     4   6 C        2.974     0.003    27.965     8.674
     5   6 C        2.921    -0.080    29.995     8.981
     6   6 C        2.862     0.130    25.158     8.222
     7   8 O        1.706    -0.230    17.811     5.698
     8   6 C        3.644     0.027    20.448     6.500
     9   6 C        2.864     0.129    25.181     8.225
    10   8 O        1.706    -0.228    17.789     5.694
    11   6 C        3.645     0.027    20.455     6.500
    12   6 C        2.914    -0.075    29.867     8.962
    13   6 C        2.921    -0.054    29.330     8.881
    14   6 C        3.812    -0.065    21.735     6.636
    15   6 C        3.802    -0.069    21.821     6.651
    16   6 C        2.844     0.007    27.848     8.648
    17   7 N        2.729     0.011    21.062     6.816
    18   6 C        3.756    -0.017    20.923     6.522
    19   6 C        3.808    -0.070    21.842     6.653
    20   6 C        2.969    -0.000    28.034     8.685
    21   6 C        2.922    -0.049    29.211     8.863
    22   6 C        2.914    -0.067    29.680     8.934
    23   6 C        2.865     0.134    25.077     8.208
    24   8 O        1.706    -0.221    17.676     5.676
    25   6 C        3.645     0.025    20.490     6.506
    26   6 C        2.863     0.133    25.086     8.210
    27   8 O        1.706    -0.225    17.728     5.685
    28   6 C        3.645     0.027    20.458     6.501
    29   6 C        2.919    -0.080    29.990     8.980
    30   6 C        3.699    -0.070    22.017     6.710
    31   6 C        3.853    -0.007    20.674     6.467
    32   6 C        3.756    -0.119    22.830     6.813
    33   6 C        3.755    -0.118    22.823     6.812
    34   1 H        0.926     0.052     2.293     2.368
    35   1 H        0.924     0.054     2.272     2.357
    36   1 H        0.925     0.081     1.966     2.193
    37   1 H        0.924     0.048     2.350     2.397
    38   1 H        0.924     0.055     2.257     2.350
    39   1 H        0.925     0.081     1.966     2.193
    40   1 H        0.924     0.048     2.348     2.396
    41   1 H        0.926     0.052     2.299     2.371
    42   1 H        0.926     0.038     2.475     2.460
    43   1 H        0.925     0.060     2.197     2.318
    44   1 H        0.924     0.053     2.277     2.360
    45   1 H        0.925     0.066     2.127     2.281
    46   1 H        0.923     0.080     1.979     2.200
    47   1 H        0.922     0.006     2.955     2.688
    48   1 H        0.926     0.070     2.089     2.260
    49   1 H        0.924     0.067     2.113     2.273
    50   1 H        0.924     0.067     2.115     2.274
    51   1 H        0.924     0.055     2.255     2.349
    52   1 H        0.924     0.056     2.250     2.346
    53   1 H        0.926     0.045     2.380     2.412
    54   1 H        0.926     0.059     2.215     2.327
    55   1 H        0.924     0.054     2.267     2.355
    56   1 H        0.924     0.056     2.245     2.343
    57   1 H        0.925     0.083     1.953     2.186
    58   1 H        0.925     0.082     1.955     2.187
    59   1 H        0.924     0.050     2.324     2.384
    60   1 H        0.924     0.051     2.303     2.373
    61   1 H        0.926     0.047     2.359     2.402
    62   1 H        0.924     0.077     2.015     2.220
    63   1 H        0.924     0.080     1.983     2.202
    64   1 H        0.925     0.080     1.979     2.200
    65   1 H        0.924     0.037     2.486     2.466
    66   1 H        0.925     0.069     2.092     2.262
    67   1 H        0.925     0.035     2.510     2.477
    68   1 H        0.925     0.051     2.307     2.375
    69   1 H        0.925     0.060     2.198     2.318
    70   1 H        0.925     0.034     2.526     2.485
    71   1 H        0.925     0.054     2.265     2.354
    72   1 H        0.860     0.157     1.355     1.823

Wiberg/Mayer (AO) data.
largest (>0.10) Wiberg bond orders for each atom

     #   Z sym  total        # sym  WBO       # sym  WBO       # sym  WBO
 ---------------------------------------------------------------------------
     1   7 N    3.041 --     2 C    1.957    72 H    0.942
     2   6 C    3.928 --     1 N    1.957     3 C    0.995    47 H    0.899
     3   6 C    3.976 --     2 C    0.995     4 C    0.969    14 C    0.957
                            31 C    0.942
     4   6 C    3.949 --    13 C    1.415     5 C    1.368     3 C    0.969
     5   6 C    3.962 --     6 C    1.402     4 C    1.368    34 H    0.958
     6   6 C    3.906 --     5 C    1.402     9 C    1.222     7 O    1.100
     7   8 O    2.254 --     6 C    1.100     8 C    0.978
     8   6 C    3.932 --     7 O    0.978    36 H    0.977    35 H    0.974
                            37 H    0.973
     9   6 C    3.902 --    12 C    1.392     6 C    1.222    10 O    1.102
    10   8 O    2.253 --     9 C    1.102    11 C    0.978
    11   6 C    3.931 --    10 O    0.978    39 H    0.977    40 H    0.974
                            38 H    0.973
    12   6 C    3.962 --    13 C    1.402     9 C    1.392    41 H    0.964
    13   6 C    3.955 --     4 C    1.415    12 C    1.402    42 H    0.963
    14   6 C    3.973 --    15 C    0.982    44 H    0.972    43 H    0.969
                             3 C    0.957
    15   6 C    3.987 --    16 C    1.060    14 C    0.982    45 H    0.961
                            46 H    0.927
    16   6 C    3.595 --    17 N    1.402    15 C    1.060    48 H    0.957
    17   7 N    3.480 --    16 C    1.402    30 C    0.998    18 C    0.988
    18   6 C    3.955 --    17 N    0.988    50 H    0.968    19 C    0.967
                            49 H    0.964
    19   6 C    3.976 --    20 C    1.008    51 H    0.972    52 H    0.972
                            18 C    0.967
    20   6 C    3.944 --    21 C    1.409    29 C    1.380    19 C    1.008
    21   6 C    3.950 --    22 C    1.417    20 C    1.409    53 H    0.968
    22   6 C    3.959 --    21 C    1.417    23 C    1.383    54 H    0.963
    23   6 C    3.895 --    22 C    1.383    26 C    1.219    24 O    1.111
    24   8 O    2.255 --    23 C    1.111    25 C    0.976
    25   6 C    3.928 --    57 H    0.977    24 O    0.976    55 H    0.973
                            56 H    0.972
    26   6 C    3.898 --    29 C    1.395    23 C    1.219    27 O    1.104
    27   8 O    2.254 --    26 C    1.104    28 C    0.978
    28   6 C    3.932 --    27 O    0.978    58 H    0.977    59 H    0.974
                            60 H    0.973
    29   6 C    3.959 --    26 C    1.395    20 C    1.380    61 H    0.962
    30   6 C    3.957 --    17 N    0.998    64 H    0.978    62 H    0.966
                            63 H    0.961
    31   6 C    3.973 --    33 C    1.009    32 C    1.008    65 H    0.960
                             3 C    0.942
    32   6 C    3.979 --    31 C    1.008    67 H    0.982    68 H    0.981
                            66 H    0.974
    33   6 C    3.983 --    31 C    1.009    70 H    0.983    71 H    0.980
                            69 H    0.977
    34   1 H    0.996 --     5 C    0.958
    35   1 H    0.993 --     8 C    0.974
    36   1 H    0.993 --     8 C    0.977
    37   1 H    0.994 --     8 C    0.973
    38   1 H    0.993 --    11 C    0.973
    39   1 H    0.993 --    11 C    0.977
    40   1 H    0.993 --    11 C    0.974
    41   1 H    0.996 --    12 C    0.964
    42   1 H    0.998 --    13 C    0.963
    43   1 H    0.995 --    14 C    0.969
    44   1 H    0.996 --    14 C    0.972
    45   1 H    0.995 --    15 C    0.961
    46   1 H    0.970 --    15 C    0.927
    47   1 H    0.987 --     2 C    0.899
    48   1 H    0.995 --    16 C    0.957
    49   1 H    0.991 --    18 C    0.964
    50   1 H    0.994 --    18 C    0.968
    51   1 H    0.996 --    19 C    0.972
    52   1 H    0.996 --    19 C    0.972
    53   1 H    0.997 --    21 C    0.968
    54   1 H    0.995 --    22 C    0.963
    55   1 H    0.992 --    25 C    0.973
    56   1 H    0.991 --    25 C    0.972
    57   1 H    0.992 --    25 C    0.977
    58   1 H    0.993 --    28 C    0.977
    59   1 H    0.993 --    28 C    0.974
    60   1 H    0.993 --    28 C    0.973
    61   1 H    0.997 --    29 C    0.962
    62   1 H    0.985 --    30 C    0.966
    63   1 H    0.987 --    30 C    0.961
    64   1 H    0.993 --    30 C    0.978
    65   1 H    0.992 --    31 C    0.960
    66   1 H    0.991 --    32 C    0.974
    67   1 H    0.997 --    32 C    0.982
    68   1 H    0.994 --    32 C    0.981
    69   1 H    0.993 --    33 C    0.977
    70   1 H    0.997 --    33 C    0.983
    71   1 H    0.994 --    33 C    0.980
    72   1 H    0.970 --     1 N    0.942
 ---------------------------------------------------------------------------

molecular dipole:
                 x           y           z       tot (Debye)
 q only:        0.683      -0.052      -0.799
   full:        0.978      -0.105      -0.964       3.499

           -------------------------------------------------
          | TOTAL ENERGY              -99.406643038718 Eh   |
          | GRADIENT NORM               0.004656847168 Eh/α |
          | HOMO-LUMO GAP               1.669520813207 eV   |
           -------------------------------------------------

 * finished run on 2024/04/06 at 11:15:18.601
