   * xtb version 6.6.1 (8d0f1dd) compiled by 'conda@1efc2f54142f' on 2023-08-01
          program call               : xtb struc.xyz --opt loose --input .xc1 --gfn2

   ID    Z sym.   atoms
    1    6 C      1, 3, 5-7, 10, 11, 14
    2    7 N      2, 4, 9, 13
    3    8 O      8, 12
    4    1 H      15-25
constraining bond 6 9 to    4.9200000 Å, actual value:    2.3455329 Å

          :  Hamiltonian                  GFN2-xTB          :
 * total energy  :   -18.5792716 Eh     change       -0.6650680E-10 Eh
 * total energy  :   -28.3851493 Eh     change       -0.9805878E+01 Eh
 * total energy  :   -34.2734242 Eh     change       -0.5888275E+01 Eh
 * total energy  :   -37.8768569 Eh     change       -0.3603433E+01 Eh
 * total energy  :   -40.1696654 Eh     change       -0.2292809E+01 Eh
 * total energy  :   -40.9510746 Eh     change       -0.7814092E+00 Eh
 * total energy  :   -41.1311943 Eh     change       -0.1801197E+00 Eh
 * total energy  :   -41.2929046 Eh     change       -0.1617103E+00 Eh
 * total energy  :   -41.4022748 Eh     change       -0.1093702E+00 Eh
 * total energy  :   -41.4210502 Eh     change       -0.1877534E-01 Eh
 * total energy  :   -42.1255846 Eh     change       -0.2214416E-04 Eh
 * total energy  :   -42.1257228 Eh     change       -0.1382486E-03 Eh
 * total energy  :   -42.1258034 Eh     change       -0.8062000E-04 Eh
 * total energy  :   -42.1258353 Eh     change       -0.3186284E-04 Eh
 * total energy  :   -42.1259715 Eh     change       -0.1361545E-03 Eh
 * total energy  :   -42.1260304 Eh     change       -0.5897162E-04 Eh
 * total energy  :   -42.1260628 Eh     change       -0.3232770E-04 Eh
 * total energy  :   -42.1262167 Eh     change       -0.1539164E-03 Eh
 * total energy  :   -42.1262444 Eh     change       -0.2770237E-04 Eh
   *** GEOMETRY OPTIMIZATION CONVERGED AFTER 69 ITERATIONS ***

 final structure:
================
25
 xtb: 6.6.1 (8d0f1dd)
C            3.18055803091712        1.09871958574598       -0.00395731207312
N            2.37540374712122       -0.09030288199900       -0.05054305238552
C            2.79557634249624       -1.33717831526560       -0.24847008291659
N            1.75388540680945       -2.20767392641558       -0.17493033677315
C            0.64158673480176       -1.48004378688993        0.08270880698736
C            1.02113149701631       -0.13880546396846        0.16290611166782
C           -0.14926327261402        0.66413377944643        0.41258866169136
O           -0.29764870285700        1.86807175055472        0.52141089868512
N           -2.62257652721737        2.79455056554075       -1.36180567163982
C           -2.72179122995041        2.81793162562273       -0.12707575181492
C           -1.25950877081302       -0.39391683862330        0.49994792872550
O           -2.42929407802092       -0.22089648057020        0.71736221223301
N           -0.68088621219281       -1.66275370111128        0.27957884934385
C           -1.43011054711976       -2.89536284638737        0.25614829450844
H            3.59001245790825        1.23835361639585        0.99885686360739
H            4.00252895570899        1.02961189008167       -0.71400114617599
H            2.55549847957300        1.95783312810999       -0.24170081243120
H            3.80797040352806       -1.62738468062051       -0.44714703358767
H           -2.52181814723581        3.68200537172626        0.51231783565107
H           -2.34537001052342        3.61306800534277       -1.89267447709521
H           -3.03028149334416        1.91145122854946        0.38414371303397
H           -1.05658290378860       -3.58879970570813        1.01045580725207
H           -1.37943538809153       -3.35941369893675       -0.72985580675675
H           -2.46658813800813       -2.64694342946483        0.48030943915077
H            1.82743487999696       -3.20801624955427       -0.29540232098620

          :  Hamiltonian                  GFN2-xTB          :
         :: total energy             -42.126244382046 Eh    ::
         :: gradient norm              0.001993101059 Eh/a0 ::
         :: HOMO-LUMO gap              1.247781171910 eV    ::
         :: SCC energy               -42.669001620203 Eh    ::
         :: -> dispersion             -0.020670012045 Eh    ::
         :: repulsion energy           0.542667741877 Eh    ::

    * Orbital Energies and Occupations

         #    Occupation            Energy/Eh            Energy/eV
      -------------------------------------------------------------
         1        2.0000           -0.8998288             -24.4856
       ...           ...                  ...                  ...
        25        2.0000           -0.6503146             -17.6960
        26        2.0000           -0.6485177             -17.6471
        27        2.0000           -0.6456934             -17.5702
        28        1.9999           -0.6312723             -17.1778
        29        1.9996           -0.6135966             -16.6968
        30        1.9996           -0.6126473             -16.6710
        31        1.9994           -0.6064472             -16.5023
        32        1.9993           -0.6048811             -16.4597
        33        1.9991           -0.5993518             -16.3092
        34        1.9980           -0.5874480             -15.9853
        35        1.9592           -0.5391272             -14.6704
        36        1.9207           -0.5282804             -14.3752
        37        1.6635           -0.5031194             -13.6906 (HOMO)
        38        0.4291           -0.4572643             -12.4428 (LUMO)
        39        0.0309           -0.4120309             -11.2119
        40        0.0016           -0.3646458              -9.9225
        41        0.0003           -0.3355424              -9.1306
        42        0.0000           -0.2930058              -7.9731
        43                         -0.1943848              -5.2895
        44                         -0.1811497              -4.9293
        45                         -0.1504458              -4.0938
        46                         -0.0755459              -2.0557
        47                         -0.0581390              -1.5820
        48                         -0.0390019              -1.0613
       ...                                ...                  ...
        67                          0.6139525              16.7065
      -------------------------------------------------------------
                  HL-Gap            0.0458551 Eh            1.2478 eV

     #   Z          covCN         q      C6AA      α(0)
     1   6 C        3.691    -0.086    22.327     6.761
     2   7 N        2.823     0.083    19.802     6.609
     3   6 C        3.080     0.045    26.901     8.503
     4   7 N        2.779    -0.052    22.251     7.006
     5   6 C        3.183     0.103    25.303     8.210
     6   6 C        3.175    -0.032    28.379     8.700
     7   6 C        2.866     0.187    24.012     8.032
     8   8 O        0.856    -0.329    20.314     6.043
     9   7 N        1.770    -0.176    25.593     7.491
    10   6 C        2.760     0.058    26.689     8.460
    11   6 C        2.896     0.237    23.065     7.874
    12   8 O        0.857    -0.306    19.891     5.980
    13   7 N        2.764    -0.055    22.309     7.015
    14   6 C        3.687    -0.065    21.944     6.705
    15   1 H        0.924     0.109     1.702     2.040
    16   1 H        0.925     0.102     1.771     2.081
    17   1 H        0.925     0.119     1.618     1.989
    18   1 H        0.926     0.120     1.617     1.988
    19   1 H        0.924     0.101     1.780     2.086
    20   1 H        0.860     0.197     1.119     1.657
    21   1 H        0.925     0.137     1.480     1.902
    22   1 H        0.924     0.081     1.973     2.197
    23   1 H        0.924     0.081     1.970     2.195
    24   1 H        0.925     0.115     1.651     2.009
    25   1 H        0.860     0.226     0.981     1.551

Wiberg/Mayer (AO) data.
largest (>0.10) Wiberg bond orders for each atom

     #   Z sym  total        # sym  WBO       # sym  WBO       # sym  WBO
 ---------------------------------------------------------------------------
     1   6 C    3.927 --     2 N    0.990    16 H    0.970    17 H    0.968
                            15 H    0.954
     2   7 N    3.669 --     3 C    1.387     6 C    1.156     1 C    0.990
     3   6 C    3.857 --     2 N    1.387     4 N    1.258    18 H    0.954
     4   7 N    3.597 --     3 C    1.258     5 C    1.213    25 H    0.921
     5   6 C    3.885 --     6 C    1.299     4 N    1.213    13 N    1.195
     6   6 C    3.876 --     5 C    1.299     2 N    1.156     7 C    1.107
     7   6 C    3.814 --     8 O    1.692     6 C    1.107    11 C    0.907
     8   8 O    1.907 --     7 C    1.692
     9   7 N    2.976 --    10 C    2.041    20 H    0.915
    10   6 C    3.874 --     9 N    2.041    21 H    0.913    19 H    0.901
    11   6 C    3.840 --    12 O    1.755    13 N    1.059     7 C    0.907
    12   8 O    2.006 --    11 C    1.755    13 N    0.120
    13   7 N    3.531 --     5 C    1.195    11 C    1.059    14 C    0.981
                            12 O    0.120
    14   6 C    3.931 --    13 N    0.981    22 H    0.971    23 H    0.970
                            24 H    0.969
    15   1 H    0.984 --     1 C    0.954
    16   1 H    0.988 --     1 C    0.970
    17   1 H    0.985 --     1 C    0.968
    18   1 H    0.985 --     3 C    0.954
    19   1 H    0.912 --    10 C    0.901
    20   1 H    0.937 --     9 N    0.915
    21   1 H    0.944 --    10 C    0.913
    22   1 H    0.990 --    14 C    0.971
    23   1 H    0.990 --    14 C    0.970
    24   1 H    0.986 --    14 C    0.969
    25   1 H    0.948 --     4 N    0.921
 ---------------------------------------------------------------------------

molecular dipole:
                 x           y           z       tot (Debye)
 q only:        2.464      -1.380      -0.570
   full:        2.883      -1.655      -0.496       8.542

           -------------------------------------------------
          | TOTAL ENERGY              -42.126244382046 Eh   |
          | GRADIENT NORM               0.001993101059 Eh/α |
          | HOMO-LUMO GAP               1.247781171910 eV   |
           -------------------------------------------------

 * finished run on 2024/06/05 at 19:59:14.558
