   * xtb version 6.6.1 (8d0f1dd) compiled by 'conda@1efc2f54142f' on 2023-08-01
          program call               : xtb struc.xyz --opt loose --input .xc1 --gfn2

   ID    Z sym.   atoms
    1    7 N      1, 17
    2    6 C      2-6, 8, 9, 11-16, 18-23, 25, 26, 28-33
    3    8 O      7, 10, 24, 27
    4    1 H      34-72
constraining bond 65 66 to    4.2800000 Å, actual value:    3.0448765 Å

          :  Hamiltonian                  GFN2-xTB          :
 * total energy  :   -99.1317426 Eh     change       -0.4035485E-08 Eh
 * total energy  :   -99.2597635 Eh     change       -0.1280209E+00 Eh
 * total energy  :   -99.3006342 Eh     change       -0.4087065E-01 Eh
 * total energy  :   -99.3051105 Eh     change       -0.4476360E-02 Eh
 * total energy  :   -99.3055525 Eh     change       -0.4420043E-03 Eh
 * total energy  :   -99.3059897 Eh     change       -0.4371732E-03 Eh
 * total energy  :   -99.3061498 Eh     change       -0.1600527E-03 Eh
 * total energy  :   -99.3063561 Eh     change       -0.2063527E-03 Eh
 * total energy  :   -99.3065071 Eh     change       -0.1509345E-03 Eh
 * total energy  :   -99.3066092 Eh     change       -0.1021041E-03 Eh
 * total energy  :   -99.3066786 Eh     change       -0.6940548E-04 Eh
 * total energy  :   -99.3067467 Eh     change       -0.6815588E-04 Eh
 * total energy  :   -99.3068068 Eh     change       -0.6008490E-04 Eh
 * total energy  :   -99.3068453 Eh     change       -0.3846800E-04 Eh
   *** GEOMETRY OPTIMIZATION CONVERGED AFTER 14 ITERATIONS ***

 final structure:
================
72
 xtb: 6.6.1 (8d0f1dd)
N           -1.86564046607587        2.82231465362885        2.17202626625648
C           -1.84367625071983        2.12579026061284        1.13719770934574
C           -3.00333974882119        1.92196555469089        0.19719647426857
C           -3.48719862106414        0.48005040953594        0.28948717559860
C           -4.44397032789812        0.00615738916205       -0.61028065364152
C           -4.91568228749597       -1.29470388654748       -0.54955429992595
O           -5.84686498250677       -1.82924090710513       -1.36612405255997
C           -6.49353457125326       -1.01262624302035       -2.31391508797566
C           -4.40411309625506       -2.17891047468900        0.43834062859037
O           -4.90751631931565       -3.42940217651649        0.41695662126745
C           -4.50789902723957       -4.34138023399853        1.41299084166008
C           -3.45678411341253       -1.70268000062043        1.32997885292924
C           -3.00816434527203       -0.38960924105648        1.25703534664454
C           -2.43582931391018        2.18483004775232       -1.22233918545698
C           -1.48562499642588        1.09113120486225       -1.74254707412839
C           -0.15892710060184        1.09059740648745       -1.08401416105546
N            0.49984441363745        0.01159214637051       -0.67354464843101
C            1.87787270867016        0.11100705967299       -0.25360909922022
C            2.84827302803191       -0.33748020748148       -1.36329326282866
C            4.26844242183661       -0.13374698610221       -0.91471660223460
C            4.90957440908991        1.07522913982276       -1.13063573181049
C            6.21076281007015        1.27662493987579       -0.69723989456184
C            6.89745360984256        0.27135613178006       -0.03160525933360
O            8.15909726773273        0.35505231467863        0.42951070692711
C            8.88969161982333        1.54178465979270        0.22012846951915
C            6.24618289247107       -0.97204006722862        0.19889520774937
O            6.98485616704693       -1.89462111574416        0.84713330235754
C            6.43648134479248       -3.16737776026538        1.09320905097555
C            4.94438294214971       -1.14933896659720       -0.24278469159023
C           -0.09765491507406       -1.30197571382783       -0.68511134350639
C           -4.20427166899233        2.86439493377866        0.49750843381916
C           -4.76059634620537        2.51061062562569        2.01274168503039
C           -3.83664209132030        4.34285035592125        0.50909262622332
H           -4.84420026863489        0.67073145724365       -1.35734185520441
H           -7.00374770127256       -0.17028674502928       -1.83724379616202
H           -7.23017940029025       -1.65383686485528       -2.79458232946902
H           -5.79452426170573       -0.63974745508382       -3.06953712646859
H           -4.74631864317280       -3.97013782692748        2.41406182059682
H           -5.07303562365778       -5.25116368274512        1.22126922859448
H           -3.43703646747911       -4.56032024396556        1.34943135485338
H           -3.06518143647331       -2.34466284463889        2.10226838407728
H           -2.29381681531890       -0.04652984588829        1.98950485008407
H           -3.26838775194692        2.25786619384969       -1.92216374490679
H           -1.91833087266468        3.14517181749338       -1.22560209899514
H           -1.97431297968999        0.12107219315538       -1.66799773508687
H           -1.32151353734376        1.30118981111996       -2.80768627861741
H           -0.93343702221556        1.61375090157837        0.76080297326783
H            0.39400199082238        2.01896615011777       -1.08774029681758
H            2.02848166464138       -0.51023450042937        0.63336921703358
H            2.10130481593267        1.14600081035200        0.01344662208135
H            2.65327061017396        0.25439872484845       -2.25921065343096
H            2.67424293780641       -1.38815017412673       -1.59833364371521
H            4.40141487177661        1.87105380402395       -1.65373937734320
H            6.68594268525285        2.22457278465505       -0.88897337302234
H            8.41843968396426        2.39539098625848        0.71687185527837
H            9.00582609281229        1.75730960825877       -0.84622248886576
H            9.86863389508910        1.36374675568075        0.66087707923821
H            7.21859833402096       -3.72988837956157        1.59925711445035
H            5.55752769134838       -3.10670737592545        1.74311750289818
H            6.16991228340071       -3.67654641863065        0.16180266202607
H            4.44523254576786       -2.09183602305735       -0.08027324834088
H           -0.24329971867151       -1.66172428778483       -1.70584718818694
H           -1.06512296482940       -1.28615734569721       -0.17676168959661
H            0.55582016588171       -1.99631627411037       -0.16301375021267
H           -4.89404985232517        2.77358000337961       -0.68818059831381
H           -4.14592208095499        2.57236687096042        3.12383609630788
H           -5.12925555761040        1.48709934267133        1.99072722954348
H           -5.61278456053521        3.16703929994346        2.17082185936134
H           -3.12783513622778        4.54957333551559        1.30671634126917
H           -3.41652221155522        4.67138974434868       -0.43924137902107
H           -4.73329775273611        4.92863872796775        0.69471939816856
H           -1.00900709971462        2.90927123428379        2.70994155434551

          :  Hamiltonian                  GFN2-xTB          :
         :: total energy             -99.306845278914 Eh    ::
         :: gradient norm              0.001953625707 Eh/a0 ::
         :: HOMO-LUMO gap              1.675875210289 eV    ::
         :: SCC energy              -100.676402448300 Eh    ::
         :: -> dispersion             -0.075238788953 Eh    ::
         :: repulsion energy           1.341147067529 Eh    ::

    * Orbital Energies and Occupations

         #    Occupation            Energy/Eh            Energy/eV
      -------------------------------------------------------------
         1        2.0000           -0.8081986             -21.9922
       ...           ...                  ...                  ...
        78        1.9984           -0.5286667             -14.3858
        79        1.9983           -0.5279552             -14.3664
        80        1.9978           -0.5234437             -14.2436
        81        1.9975           -0.5217515             -14.1976
        82        1.9971           -0.5193795             -14.1330
        83        1.9960           -0.5144066             -13.9977
        84        1.9947           -0.5097084             -13.8699
        85        1.9898           -0.4994302             -13.5902
        86        1.9815           -0.4898521             -13.3296
        87        1.9789           -0.4878208             -13.2743
        88        1.9353           -0.4696878             -12.7809
        89        1.8749           -0.4587515             -12.4833
        90        1.8462           -0.4552369             -12.3876 (HOMO)
        91        0.3942           -0.3936496             -10.7118 (LUMO)
        92        0.0159           -0.3394739              -9.2376
        93        0.0036           -0.3158841              -8.5956
        94        0.0030           -0.3130748              -8.5192
        95        0.0028           -0.3117226              -8.4824
        96        0.0024           -0.3093876              -8.4189
        97        0.0000           -0.2311367              -6.2895
        98        0.0000           -0.1900138              -5.1705
        99        0.0000           -0.1868594              -5.0847
       100                         -0.1359055              -3.6982
       101                         -0.1182191              -3.2169
       ...                                ...                  ...
       171                          0.5769165              15.6987
      -------------------------------------------------------------
                  HL-Gap            0.0615873 Eh            1.6759 eV

     #   Z          covCN         q      C6AA      α(0)
     1   7 N        1.773    -0.266    27.716     7.796
     2   6 C        2.826     0.099    25.788     8.321
     3   6 C        3.906     0.006    20.421     6.423
     4   6 C        2.973     0.003    27.943     8.671
     5   6 C        2.921    -0.079    29.965     8.977
     6   6 C        2.861     0.130    25.151     8.220
     7   8 O        1.706    -0.230    17.807     5.697
     8   6 C        3.643     0.028    20.452     6.501
     9   6 C        2.865     0.128    25.187     8.226
    10   8 O        1.706    -0.229    17.790     5.695
    11   6 C        3.646     0.027    20.452     6.499
    12   6 C        2.914    -0.075    29.882     8.964
    13   6 C        2.922    -0.054    29.339     8.883
    14   6 C        3.813    -0.064    21.716     6.633
    15   6 C        3.802    -0.069    21.814     6.650
    16   6 C        2.843     0.007    27.861     8.650
    17   7 N        2.729     0.009    21.111     6.824
    18   6 C        3.756    -0.016    20.917     6.521
    19   6 C        3.808    -0.070    21.841     6.653
    20   6 C        2.969    -0.000    28.036     8.685
    21   6 C        2.922    -0.049    29.215     8.864
    22   6 C        2.914    -0.068    29.683     8.934
    23   6 C        2.865     0.133    25.082     8.209
    24   8 O        1.706    -0.222    17.686     5.678
    25   6 C        3.645     0.025    20.487     6.505
    26   6 C        2.863     0.133    25.090     8.211
    27   8 O        1.706    -0.225    17.731     5.685
    28   6 C        3.645     0.027    20.451     6.500
    29   6 C        2.919    -0.080    29.990     8.980
    30   6 C        3.699    -0.070    22.019     6.711
    31   6 C        3.508     0.017    21.776     6.906
    32   6 C        3.616    -0.097    22.871     6.900
    33   6 C        3.753    -0.118    22.815     6.811
    34   1 H        0.926     0.053     2.286     2.364
    35   1 H        0.924     0.054     2.270     2.356
    36   1 H        0.925     0.081     1.966     2.192
    37   1 H        0.924     0.048     2.349     2.397
    38   1 H        0.924     0.055     2.263     2.353
    39   1 H        0.925     0.081     1.967     2.193
    40   1 H        0.924     0.048     2.350     2.397
    41   1 H        0.926     0.052     2.300     2.372
    42   1 H        0.926     0.037     2.483     2.464
    43   1 H        0.925     0.061     2.192     2.316
    44   1 H        0.924     0.051     2.302     2.373
    45   1 H        0.925     0.066     2.134     2.284
    46   1 H        0.923     0.080     1.982     2.202
    47   1 H        0.922     0.011     2.872     2.650
    48   1 H        0.926     0.069     2.097     2.264
    49   1 H        0.924     0.067     2.120     2.277
    50   1 H        0.924     0.067     2.122     2.278
    51   1 H        0.924     0.055     2.259     2.350
    52   1 H        0.924     0.056     2.251     2.346
    53   1 H        0.926     0.045     2.385     2.415
    54   1 H        0.926     0.058     2.218     2.329
    55   1 H        0.924     0.054     2.269     2.356
    56   1 H        0.924     0.056     2.249     2.345
    57   1 H        0.925     0.082     1.956     2.187
    58   1 H        0.925     0.082     1.961     2.190
    59   1 H        0.924     0.048     2.340     2.392
    60   1 H        0.924     0.052     2.291     2.367
    61   1 H        0.926     0.047     2.358     2.402
    62   1 H        0.924     0.076     2.023     2.224
    63   1 H        0.924     0.080     1.984     2.202
    64   1 H        0.925     0.079     1.987     2.204
    65   1 H        0.605     0.000     3.652     3.116
    66   1 H        0.815     0.055     2.288     2.375
    67   1 H        0.925     0.036     2.506     2.476
    68   1 H        0.925     0.052     2.296     2.370
    69   1 H        0.925     0.065     2.141     2.288
    70   1 H        0.925     0.034     2.532     2.488
    71   1 H        0.925     0.057     2.236     2.339
    72   1 H        0.860     0.158     1.345     1.817

Wiberg/Mayer (AO) data.
largest (>0.10) Wiberg bond orders for each atom

     #   Z sym  total        # sym  WBO       # sym  WBO       # sym  WBO
 ---------------------------------------------------------------------------
     1   7 N    3.045 --     2 C    1.958    72 H    0.941
     2   6 C    3.924 --     1 N    1.958     3 C    0.990    47 H    0.889
     3   6 C    3.975 --     2 C    0.990     4 C    0.966    14 C    0.957
                            31 C    0.953
     4   6 C    3.950 --    13 C    1.414     5 C    1.370     3 C    0.966
     5   6 C    3.962 --     6 C    1.401     4 C    1.370    34 H    0.955
     6   6 C    3.907 --     5 C    1.401     9 C    1.222     7 O    1.100
     7   8 O    2.255 --     6 C    1.100     8 C    0.978
     8   6 C    3.932 --     7 O    0.978    36 H    0.977    35 H    0.974
                            37 H    0.973
     9   6 C    3.903 --    12 C    1.393     6 C    1.222    10 O    1.101
    10   8 O    2.253 --     9 C    1.101    11 C    0.978
    11   6 C    3.932 --    10 O    0.978    39 H    0.977    40 H    0.974
                            38 H    0.973
    12   6 C    3.963 --    13 C    1.402     9 C    1.393    41 H    0.964
    13   6 C    3.955 --     4 C    1.414    12 C    1.402    42 H    0.962
    14   6 C    3.973 --    15 C    0.982    44 H    0.972    43 H    0.964
                             3 C    0.957
    15   6 C    3.987 --    16 C    1.058    14 C    0.982    45 H    0.962
                            46 H    0.928
    16   6 C    3.598 --    17 N    1.393    15 C    1.058    48 H    0.957
    17   7 N    3.476 --    16 C    1.393    30 C    0.999    18 C    0.988
    18   6 C    3.956 --    17 N    0.988    50 H    0.968    19 C    0.967
                            49 H    0.964
    19   6 C    3.976 --    20 C    1.008    52 H    0.972    51 H    0.972
                            18 C    0.967
    20   6 C    3.945 --    21 C    1.409    29 C    1.380    19 C    1.008
    21   6 C    3.950 --    22 C    1.417    20 C    1.409    53 H    0.968
    22   6 C    3.960 --    21 C    1.417    23 C    1.384    54 H    0.963
    23   6 C    3.896 --    22 C    1.384    26 C    1.220    24 O    1.110
    24   8 O    2.255 --    23 C    1.110    25 C    0.976
    25   6 C    3.928 --    57 H    0.977    24 O    0.976    55 H    0.973
                            56 H    0.973
    26   6 C    3.899 --    29 C    1.395    23 C    1.220    27 O    1.103
    27   8 O    2.254 --    26 C    1.103    28 C    0.979
    28   6 C    3.932 --    27 O    0.979    58 H    0.977    59 H    0.973
                            60 H    0.973
    29   6 C    3.959 --    26 C    1.395    20 C    1.380    61 H    0.962
    30   6 C    3.957 --    17 N    0.999    64 H    0.978    62 H    0.966
                            63 H    0.960
    31   6 C    3.946 --    33 C    1.021    32 C    0.982     3 C    0.953
                            65 H    0.923
    32   6 C    3.962 --    67 H    0.986    68 H    0.986    31 C    0.982
                            66 H    0.966
    33   6 C    3.981 --    31 C    1.021    70 H    0.981    71 H    0.978
                            69 H    0.970
    34   1 H    0.996 --     5 C    0.955
    35   1 H    0.993 --     8 C    0.974
    36   1 H    0.993 --     8 C    0.977
    37   1 H    0.994 --     8 C    0.973
    38   1 H    0.993 --    11 C    0.973
    39   1 H    0.993 --    11 C    0.977
    40   1 H    0.994 --    11 C    0.974
    41   1 H    0.996 --    12 C    0.964
    42   1 H    0.998 --    13 C    0.962
    43   1 H    0.995 --    14 C    0.964
    44   1 H    0.996 --    14 C    0.972
    45   1 H    0.995 --    15 C    0.962
    46   1 H    0.971 --    15 C    0.928
    47   1 H    0.987 --     2 C    0.889
    48   1 H    0.995 --    16 C    0.957
    49   1 H    0.991 --    18 C    0.964
    50   1 H    0.994 --    18 C    0.968
    51   1 H    0.996 --    19 C    0.972
    52   1 H    0.996 --    19 C    0.972
    53   1 H    0.997 --    21 C    0.968
    54   1 H    0.995 --    22 C    0.963
    55   1 H    0.992 --    25 C    0.973
    56   1 H    0.992 --    25 C    0.973
    57   1 H    0.992 --    25 C    0.977
    58   1 H    0.993 --    28 C    0.977
    59   1 H    0.993 --    28 C    0.973
    60   1 H    0.993 --    28 C    0.973
    61   1 H    0.997 --    29 C    0.962
    62   1 H    0.985 --    30 C    0.966
    63   1 H    0.987 --    30 C    0.960
    64   1 H    0.993 --    30 C    0.978
    65   1 H    0.989 --    31 C    0.923
    66   1 H    0.992 --    32 C    0.966
    67   1 H    0.996 --    32 C    0.986
    68   1 H    0.994 --    32 C    0.986
    69   1 H    0.992 --    33 C    0.970
    70   1 H    0.997 --    33 C    0.981
    71   1 H    0.993 --    33 C    0.978
    72   1 H    0.970 --     1 N    0.941
 ---------------------------------------------------------------------------

molecular dipole:
                 x           y           z       tot (Debye)
 q only:        0.593      -0.004      -0.681
   full:        0.870      -0.034      -0.849       3.090

           -------------------------------------------------
          | TOTAL ENERGY              -99.306845278914 Eh   |
          | GRADIENT NORM               0.001953625707 Eh/α |
          | HOMO-LUMO GAP               1.675875210289 eV   |
           -------------------------------------------------

 * finished run on 2024/04/06 at 11:15:14.297
