   * xtb version 6.6.1 (8d0f1dd) compiled by 'conda@1efc2f54142f' on 2023-08-01
          program call               : xtb xtbopt.xyz --opt crude --input .xc2 --gfn2

   ID    Z sym.   atoms
    1    7 N      1, 17
    2    6 C      2-6, 8, 9, 11-16, 18-23, 25, 26, 28-33
    3    8 O      7, 10, 24, 27
    4    1 H      34-72
########################################################################
[WARNING] Please study the warnings concerning your input carefully
-1- readin_getIntValue: could not parse ''
########################################################################

          :  Hamiltonian                  GFN2-xTB          :
 * total energy  :   -99.3340112 Eh     change       -0.9521273E-12 Eh
 * total energy  :   -99.3843764 Eh     change       -0.5036518E-01 Eh
 * total energy  :   -99.3963498 Eh     change       -0.1197341E-01 Eh
 * total energy  :   -99.4049396 Eh     change       -0.8589820E-02 Eh
 * total energy  :   -99.4062567 Eh     change       -0.1317113E-02 Eh
 * total energy  :   -99.4060882 Eh     change        0.1685375E-03 Eh
 * total energy  :   -99.4065489 Eh     change       -0.4607807E-03 Eh
   *** GEOMETRY OPTIMIZATION CONVERGED AFTER 7 ITERATIONS ***

 final structure:
================
72
 xtb: 6.6.1 (8d0f1dd)
N           -1.85788951272394        2.80971897645094        2.19713638569119
C           -1.82885444505499        2.11893400479694        1.15774677731331
C           -2.99053114924532        1.91692654970042        0.22487713186980
C           -3.47479171315051        0.47630183588190        0.30857697450512
C           -4.43132944620359        0.00932274003761       -0.59562918589181
C           -4.90532194142515       -1.29096948459399       -0.53938363348991
O           -5.83412580853277       -1.82196372529812       -1.36067674995764
C           -6.47720083849024       -1.00099732205291       -2.30704841772066
C           -4.39918861375274       -2.17877273968484        0.44863061918113
O           -4.90632446977055       -3.42744587041521        0.42191210464248
C           -4.51248497411646       -4.34570092601816        1.41458893657504
C           -3.45289674154706       -1.70793832146416        1.34418344656766
C           -3.00091103002890       -0.39595529588848        1.27587464826122
C           -2.44075961668855        2.19290313239693       -1.19913282740813
C           -1.49383367807996        1.10021540265731       -1.73121291141803
C           -0.16330489708016        1.09533807967454       -1.08026674262599
N            0.49787600522776        0.01407406412416       -0.68103218825901
C            1.87601014515153        0.11310475720753       -0.26031788608437
C            2.84725056097798       -0.33833198585263       -1.36798035403412
C            4.26710475902527       -0.13467293883034       -0.91811953539287
C            4.90785433150285        1.07469202041125       -1.13335775658917
C            6.20865759564641        1.27663648429287       -0.69894267407455
C            6.89535469027088        0.27102415454562       -0.03384482108021
O            8.15681714203577        0.35392771856376        0.42747836933472
C            8.88860659063244        1.54016145185880        0.21974840515350
C            6.24426428451834       -0.97260897366804        0.19652862304922
O            6.98327079640735       -1.89409591764942        0.84567127771428
C            6.43713705982142       -3.16771721298574        1.09207352487440
C            4.94262988904456       -1.15024421412081       -0.24554265103015
C           -0.09925729498776       -1.29965308399303       -0.69683526989592
C           -4.19246570145626        2.85761273838461        0.53651425512816
C           -4.82889680296862        2.50832665940496        1.87922169864155
C           -3.82165797044483        4.33833389715863        0.51669277809173
H           -4.82389620723730        0.67648151807828       -1.34516284798239
H           -6.98618090614621       -0.15900743070384       -1.82850782045622
H           -7.21468586028590       -1.63875261191561       -2.79082868809938
H           -5.77602815002265       -0.62701874819397       -3.06012580760658
H           -4.75384159340389       -3.97994813325135        2.41696616184638
H           -5.07923537974860       -5.25291851860332        1.21527411473682
H           -3.44199904674054       -4.56718030029854        1.35388455569799
H           -3.06511303703878       -2.35241229047265        2.11617188823157
H           -2.28834039343340       -0.05588661658952        2.01142957745251
H           -3.28013629527799        2.27516252850165       -1.88855212591596
H           -1.91804242654190        3.14997349754735       -1.19998870231225
H           -1.98102825128006        0.12932887189593       -1.65864180852155
H           -1.33338348574351        1.31471876539391       -2.79585996926996
H           -0.91652873755039        1.61583331674485        0.77904104465975
H            0.38988086707868        2.02349959076498       -1.07798559042533
H            2.02565227338989       -0.50593298960707        0.62839974673113
H            2.10022356717204        1.14855320877899        0.00436061788358
H            2.65366802101820        0.25227718790281       -2.26504147559083
H            2.67290987480849       -1.38926915966992       -1.60145837194532
H            4.39941036988189        1.87020180401298       -1.65667882657357
H            6.68328437755957        2.22516829181525       -0.88907418864451
H            8.41765326675439        2.39379126578461        0.71668148924183
H            9.00622056849128        1.75640969935826       -0.84628177735724
H            9.86682685411069        1.36069552512572        0.66154802719304
H            7.22025157528546       -3.72826082488864        1.59880809882937
H            5.55781817622870       -3.10862796672375        1.74162169834236
H            6.17208552792642       -3.67792332704767        0.16083570600598
H            4.44328107176874       -2.09259947127964       -0.08292693108339
H           -0.24781989956183       -1.65475286485325       -1.71883733064523
H           -1.06528231559504       -1.28598092620746       -0.18576357384135
H            0.55552151428834       -1.99658366844865       -0.17988323384408
H           -4.93612728418478        2.68081336554479       -0.24200351074916
H           -4.10515422645523        2.65065054535551        2.67699215985287
H           -5.17645724458210        1.47801774414602        1.89380341312206
H           -5.67987418469843        3.15905081449966        2.06127940557496
H           -3.10275581496199        4.55958304202189        1.29965334781632
H           -3.41159881426780        4.64332774138265       -0.44244451712671
H           -4.71490327590825        4.92993907627141        0.69997141808447
H           -1.00056668261016        2.90323131529375        2.73245711764637

          :  Hamiltonian                  GFN2-xTB          :
         :: total energy             -99.406548937155 Eh    ::
         :: gradient norm              0.004355892794 Eh/a0 ::
         :: HOMO-LUMO gap              1.675057175515 eV    ::
         :: SCC energy              -100.785458711394 Eh    ::
         :: -> dispersion             -0.075122085239 Eh    ::
         :: repulsion energy           1.377677803258 Eh    ::

    * Orbital Energies and Occupations

         #    Occupation            Energy/Eh            Energy/eV
      -------------------------------------------------------------
         1        2.0000           -0.8088546             -22.0101
       ...           ...                  ...                  ...
        78        1.9983           -0.5290712             -14.3968
        79        1.9983           -0.5287033             -14.3867
        80        1.9982           -0.5280283             -14.3684
        81        1.9975           -0.5227899             -14.2258
        82        1.9970           -0.5200445             -14.1511
        83        1.9960           -0.5152678             -14.0212
        84        1.9954           -0.5128945             -13.9566
        85        1.9943           -0.5096528             -13.8684
        86        1.9812           -0.4906115             -13.3502
        87        1.9786           -0.4884920             -13.2925
        88        1.9408           -0.4721137             -12.8469
        89        1.8731           -0.4594744             -12.5029
        90        1.8435           -0.4558937             -12.4055 (HOMO)
        91        0.3888           -0.3943365             -10.7304 (LUMO)
        92        0.0156           -0.3400707              -9.2538
        93        0.0036           -0.3166494              -8.6165
        94        0.0030           -0.3136652              -8.5353
        95        0.0027           -0.3124234              -8.5015
        96        0.0024           -0.3101053              -8.4384
        97        0.0000           -0.1909276              -5.1954
        98        0.0000           -0.1876072              -5.1051
        99                         -0.1370792              -3.7301
       100                         -0.0692361              -1.8840
       101                         -0.0644498              -1.7538
       ...                                ...                  ...
       171                          0.5763086              15.6822
      -------------------------------------------------------------
                  HL-Gap            0.0615572 Eh            1.6751 eV

     #   Z          covCN         q      C6AA      α(0)
     1   7 N        1.773    -0.267    27.751     7.801
     2   6 C        2.827     0.100    25.768     8.318
     3   6 C        3.907     0.006    20.412     6.422
     4   6 C        2.974     0.003    27.960     8.673
     5   6 C        2.920    -0.079    29.985     8.980
     6   6 C        2.861     0.130    25.155     8.221
     7   8 O        1.706    -0.230    17.808     5.698
     8   6 C        3.643     0.027    20.453     6.501
     9   6 C        2.865     0.129    25.181     8.225
    10   8 O        1.706    -0.228    17.788     5.694
    11   6 C        3.646     0.027    20.454     6.500
    12   6 C        2.914    -0.075    29.871     8.962
    13   6 C        2.921    -0.054    29.335     8.882
    14   6 C        3.813    -0.065    21.732     6.635
    15   6 C        3.802    -0.069    21.819     6.650
    16   6 C        2.843     0.008    27.836     8.647
    17   7 N        2.729     0.009    21.099     6.822
    18   6 C        3.756    -0.016    20.917     6.521
    19   6 C        3.808    -0.070    21.842     6.653
    20   6 C        2.969    -0.000    28.033     8.685
    21   6 C        2.922    -0.049    29.212     8.863
    22   6 C        2.914    -0.067    29.680     8.933
    23   6 C        2.865     0.134    25.078     8.209
    24   8 O        1.706    -0.222    17.679     5.677
    25   6 C        3.645     0.025    20.490     6.506
    26   6 C        2.863     0.133    25.087     8.210
    27   8 O        1.706    -0.225    17.725     5.684
    28   6 C        3.645     0.027    20.453     6.500
    29   6 C        2.919    -0.079    29.987     8.980
    30   6 C        3.699    -0.070    22.018     6.711
    31   6 C        3.853    -0.008    20.678     6.468
    32   6 C        3.756    -0.119    22.831     6.813
    33   6 C        3.755    -0.119    22.826     6.812
    34   1 H        0.926     0.052     2.296     2.369
    35   1 H        0.924     0.054     2.272     2.357
    36   1 H        0.925     0.081     1.965     2.192
    37   1 H        0.924     0.048     2.348     2.396
    38   1 H        0.924     0.055     2.258     2.350
    39   1 H        0.925     0.081     1.966     2.193
    40   1 H        0.924     0.048     2.349     2.397
    41   1 H        0.926     0.052     2.300     2.372
    42   1 H        0.926     0.038     2.478     2.462
    43   1 H        0.925     0.060     2.195     2.317
    44   1 H        0.924     0.053     2.282     2.362
    45   1 H        0.925     0.066     2.133     2.284
    46   1 H        0.924     0.080     1.982     2.202
    47   1 H        0.922     0.009     2.903     2.665
    48   1 H        0.926     0.070     2.090     2.261
    49   1 H        0.924     0.067     2.118     2.276
    50   1 H        0.924     0.067     2.120     2.277
    51   1 H        0.924     0.055     2.256     2.349
    52   1 H        0.924     0.056     2.250     2.346
    53   1 H        0.926     0.045     2.382     2.414
    54   1 H        0.926     0.059     2.215     2.328
    55   1 H        0.924     0.054     2.267     2.354
    56   1 H        0.924     0.056     2.247     2.344
    57   1 H        0.925     0.082     1.954     2.186
    58   1 H        0.925     0.082     1.959     2.189
    59   1 H        0.924     0.049     2.338     2.391
    60   1 H        0.924     0.053     2.289     2.366
    61   1 H        0.926     0.047     2.356     2.400
    62   1 H        0.924     0.076     2.020     2.223
    63   1 H        0.924     0.080     1.982     2.202
    64   1 H        0.925     0.079     1.985     2.203
    65   1 H        0.924     0.038     2.469     2.457
    66   1 H        0.925     0.068     2.107     2.270
    67   1 H        0.925     0.035     2.511     2.478
    68   1 H        0.925     0.052     2.297     2.370
    69   1 H        0.925     0.062     2.178     2.308
    70   1 H        0.925     0.034     2.531     2.488
    71   1 H        0.925     0.054     2.272     2.357
    72   1 H        0.860     0.157     1.353     1.822

Wiberg/Mayer (AO) data.
largest (>0.10) Wiberg bond orders for each atom

     #   Z sym  total        # sym  WBO       # sym  WBO       # sym  WBO
 ---------------------------------------------------------------------------
     1   7 N    3.046 --     2 C    1.956    72 H    0.941
     2   6 C    3.924 --     1 N    1.956     3 C    0.995    47 H    0.891
     3   6 C    3.976 --     2 C    0.995     4 C    0.968    14 C    0.958
                            31 C    0.942
     4   6 C    3.950 --    13 C    1.414     5 C    1.368     3 C    0.968
     5   6 C    3.962 --     6 C    1.401     4 C    1.368    34 H    0.958
     6   6 C    3.906 --     5 C    1.401     9 C    1.221     7 O    1.100
     7   8 O    2.255 --     6 C    1.100     8 C    0.978
     8   6 C    3.932 --     7 O    0.978    36 H    0.977    35 H    0.974
                            37 H    0.973
     9   6 C    3.902 --    12 C    1.393     6 C    1.221    10 O    1.102
    10   8 O    2.253 --     9 C    1.102    11 C    0.978
    11   6 C    3.931 --    10 O    0.978    39 H    0.977    40 H    0.974
                            38 H    0.973
    12   6 C    3.963 --    13 C    1.402     9 C    1.393    41 H    0.964
    13   6 C    3.955 --     4 C    1.414    12 C    1.402    42 H    0.962
    14   6 C    3.973 --    15 C    0.981    44 H    0.972    43 H    0.969
                             3 C    0.958
    15   6 C    3.987 --    16 C    1.058    14 C    0.981    45 H    0.962
                            46 H    0.928
    16   6 C    3.601 --    17 N    1.396    15 C    1.058    48 H    0.957
    17   7 N    3.479 --    16 C    1.396    30 C    0.998    18 C    0.988
    18   6 C    3.956 --    17 N    0.988    50 H    0.968    19 C    0.967
                            49 H    0.964
    19   6 C    3.976 --    20 C    1.008    52 H    0.972    51 H    0.972
                            18 C    0.967
    20   6 C    3.944 --    21 C    1.409    29 C    1.380    19 C    1.008
    21   6 C    3.950 --    22 C    1.417    20 C    1.409    53 H    0.968
    22   6 C    3.959 --    21 C    1.417    23 C    1.383    54 H    0.963
    23   6 C    3.895 --    22 C    1.383    26 C    1.219    24 O    1.110
    24   8 O    2.255 --    23 C    1.110    25 C    0.976
    25   6 C    3.928 --    57 H    0.977    24 O    0.976    55 H    0.973
                            56 H    0.973
    26   6 C    3.898 --    29 C    1.395    23 C    1.219    27 O    1.104
    27   8 O    2.254 --    26 C    1.104    28 C    0.979
    28   6 C    3.932 --    27 O    0.979    58 H    0.977    59 H    0.973
                            60 H    0.973
    29   6 C    3.959 --    26 C    1.395    20 C    1.380    61 H    0.962
    30   6 C    3.957 --    17 N    0.998    64 H    0.978    62 H    0.966
                            63 H    0.960
    31   6 C    3.972 --    33 C    1.009    32 C    1.008    65 H    0.960
                             3 C    0.942
    32   6 C    3.979 --    31 C    1.008    67 H    0.982    68 H    0.981
                            66 H    0.974
    33   6 C    3.983 --    31 C    1.009    70 H    0.983    71 H    0.980
                            69 H    0.976
    34   1 H    0.996 --     5 C    0.958
    35   1 H    0.993 --     8 C    0.974
    36   1 H    0.993 --     8 C    0.977
    37   1 H    0.994 --     8 C    0.973
    38   1 H    0.993 --    11 C    0.973
    39   1 H    0.993 --    11 C    0.977
    40   1 H    0.993 --    11 C    0.974
    41   1 H    0.996 --    12 C    0.964
    42   1 H    0.998 --    13 C    0.962
    43   1 H    0.995 --    14 C    0.969
    44   1 H    0.996 --    14 C    0.972
    45   1 H    0.995 --    15 C    0.962
    46   1 H    0.971 --    15 C    0.928
    47   1 H    0.987 --     2 C    0.891
    48   1 H    0.995 --    16 C    0.957
    49   1 H    0.991 --    18 C    0.964
    50   1 H    0.994 --    18 C    0.968
    51   1 H    0.996 --    19 C    0.972
    52   1 H    0.996 --    19 C    0.972
    53   1 H    0.997 --    21 C    0.968
    54   1 H    0.995 --    22 C    0.963
    55   1 H    0.992 --    25 C    0.973
    56   1 H    0.992 --    25 C    0.973
    57   1 H    0.992 --    25 C    0.977
    58   1 H    0.993 --    28 C    0.977
    59   1 H    0.993 --    28 C    0.973
    60   1 H    0.993 --    28 C    0.973
    61   1 H    0.997 --    29 C    0.962
    62   1 H    0.985 --    30 C    0.966
    63   1 H    0.987 --    30 C    0.960
    64   1 H    0.993 --    30 C    0.978
    65   1 H    0.993 --    31 C    0.960
    66   1 H    0.991 --    32 C    0.974
    67   1 H    0.997 --    32 C    0.982
    68   1 H    0.994 --    32 C    0.981
    69   1 H    0.993 --    33 C    0.976
    70   1 H    0.997 --    33 C    0.983
    71   1 H    0.994 --    33 C    0.980
    72   1 H    0.970 --     1 N    0.941
 ---------------------------------------------------------------------------

molecular dipole:
                 x           y           z       tot (Debye)
 q only:        0.659      -0.050      -0.801
   full:        0.951      -0.101      -0.983       3.486

           -------------------------------------------------
          | TOTAL ENERGY              -99.406548937155 Eh   |
          | GRADIENT NORM               0.004355892794 Eh/α |
          | HOMO-LUMO GAP               1.675057175515 eV   |
           -------------------------------------------------

 * finished run on 2024/04/06 at 11:15:15.740
