   * xtb version 6.6.1 (8d0f1dd) compiled by 'conda@1efc2f54142f' on 2023-08-01
          program call               : xtb struc.xyz --opt loose --input .xc1 --gfn2

   ID    Z sym.   atoms
    1    7 N      1, 17
    2    6 C      2-6, 8, 9, 11-16, 18-23, 25, 26, 28-33
    3    8 O      7, 10, 24, 27
    4    1 H      34-72
constraining bond 44 46 to    4.2800000 Å, actual value:    2.4843558 Å

          :  Hamiltonian                  GFN2-xTB          :
 * total energy  :   -98.8284150 Eh     change       -0.4035485E-08 Eh
 * total energy  :   -99.0901153 Eh     change       -0.2617003E+00 Eh
 * total energy  :   -99.2297246 Eh     change       -0.1396093E+00 Eh
 * total energy  :   -99.2684601 Eh     change       -0.3873549E-01 Eh
 * total energy  :   -99.2755958 Eh     change       -0.7135699E-02 Eh
 * total energy  :   -99.2796002 Eh     change       -0.4004447E-02 Eh
 * total energy  :   -99.2830202 Eh     change       -0.3419978E-02 Eh
 * total energy  :   -99.2850043 Eh     change       -0.1984141E-02 Eh
 * total energy  :   -99.2861832 Eh     change       -0.1178859E-02 Eh
 * total energy  :   -99.2882798 Eh     change       -0.2096616E-02 Eh
 * total energy  :   -99.3395037 Eh     change       -0.1279073E-03 Eh
 * total energy  :   -99.3395802 Eh     change       -0.7650531E-04 Eh
 * total energy  :   -99.3396334 Eh     change       -0.5321804E-04 Eh
 * total energy  :   -99.3397088 Eh     change       -0.7530272E-04 Eh
 * total energy  :   -99.3398088 Eh     change       -0.1000057E-03 Eh
 * total energy  :   -99.3399210 Eh     change       -0.1121960E-03 Eh
 * total energy  :   -99.3399823 Eh     change       -0.6129928E-04 Eh
 * total energy  :   -99.3400556 Eh     change       -0.7333567E-04 Eh
 * total energy  :   -99.3400864 Eh     change       -0.3078343E-04 Eh
   *** GEOMETRY OPTIMIZATION CONVERGED AFTER 70 ITERATIONS ***

 final structure:
================
72
 xtb: 6.6.1 (8d0f1dd)
N           -2.48946818047523        3.00143048067657        2.60622925114316
C           -2.31570947675584        2.07208998003586        1.78918649143107
C           -3.18001597068400        1.85106682475326        0.57570351353114
C           -3.83555132594290        0.48201310845396        0.66114396692378
C           -4.48736403635471       -0.04648869335886       -0.45403011261907
C           -5.07600123290244       -1.29976377985845       -0.42132127896865
O           -5.72376451141890       -1.88433054719908       -1.44985937241587
C           -5.93367200387704       -1.15550873454893       -2.63664147302750
C           -5.00585526648501       -2.07521360028781        0.76904361554794
O           -5.57028403985499       -3.29565645077002        0.69950654413978
C           -5.55903789432650       -4.12295850098317        1.83945596747844
C           -4.38306306394577       -1.53024401498890        1.88150412704803
C           -3.81277418495488       -0.26694456828479        1.82822997503040
C           -2.18363830093186        1.87287260833221       -0.62958439343462
C           -1.35189833495268        0.63939380818550       -0.68292505291057
C           -0.03710951540388        0.62444905586950       -0.41106769222999
N            0.77973613845034       -0.48673757294803       -0.37648051630254
C            2.17682823562922       -0.27760972868206       -0.04848531169344
C            3.02606492377424       -0.10473911274975       -1.32083186933218
C            4.47277354257212        0.08470704016439       -0.96261339885765
C            5.06538470586842        1.33612691490005       -1.01102903380961
C            6.39851045684698        1.50511376689220       -0.67021168816106
C            7.16628061073575        0.42438975437751       -0.25914824750041
O            8.46358287577313        0.47002681037382        0.09277703167637
C            9.15498416399308        1.69590487351570        0.02146784818317
C            6.56345952527180       -0.86337808969497       -0.19285350889387
O            7.37446753354306       -1.85490885042823        0.22451659091646
C            6.87236221956778       -3.16685995399900        0.31813529435866
C            5.23196020280283       -1.00815046639509       -0.54845072835361
C            0.38754765473319       -1.71160150419185       -0.68892177399653
C           -4.28630976449087        2.92387241018853        0.38626984643418
C           -5.28675428395317        2.89150928535475        1.53940277032608
C           -3.73682870448873        4.33746484678462        0.21693161158662
H           -4.53715515732513        0.53167005877844       -1.36222604693335
H           -6.48600269514992       -0.23047467902315       -2.44576639611837
H           -6.52878479661910       -1.80474582473570       -3.27587574141229
H           -4.98933793184948       -0.92243403732756       -3.13920789245005
H           -6.09989178698516       -3.66543063932636        2.67290305795350
H           -6.06457263706425       -5.03918364379014        1.54038176378503
H           -4.53715722828277       -4.35832471245288        2.15303064920453
H           -4.33908579077511       -2.08208678948930        2.80607595616925
H           -3.35822788466644        0.13250285928783        2.72086415201636
H           -2.76423223053331        1.95814365368259       -1.54948075723947
H           -1.54851898190502        2.75405070306830       -0.54111915606349
H           -1.88532059956725       -0.26901148059779       -0.91257639217662
H           -0.14824922946113        0.18614769210794       -3.66525139018677
H           -1.49262092038978        1.34325490661589        1.85345664766702
H            0.47203526863713        1.54873814937233       -0.17969997742971
H            2.54325892664272       -1.13704449785969        0.51610220876634
H            2.27487079580237        0.61070129191700        0.57786153885802
H            2.66264124780737        0.75641896894141       -1.88247305380735
H            2.90733707715631       -0.99345936769562       -1.94379955817210
H            4.49290231237107        2.19375903677241       -1.32965073035640
H            6.83383896597842        2.48897283200757       -0.72962852216380
H            8.72299552412539        2.43983054562919        0.69748628147272
H            9.16499868310834        2.09041462937371       -0.99913637028819
H           10.17407331713574        1.47430038517058        0.33276014581641
H            7.70541369777781       -3.77342437374991        0.66738175986285
H            6.05155118787458       -3.23123487724983        1.03948146767823
H            6.53684590818264       -3.53888748876037       -0.65454501229663
H            4.77275815548595       -1.98397991145940       -0.52073595128766
H            0.12810160485246       -0.54306729937894       -3.68943365819437
H           -0.61952073386378       -1.90647484780822       -0.99610357719061
H            1.09134083039429       -2.51889637297044       -0.62700129407167
H           -4.82380489867720        2.65749171866498       -0.53161174653693
H           -4.79762385245983        3.18487440340165        2.46318116172902
H           -5.71029151337779        1.89774422978597        1.66395124091789
H           -6.09717768166308        3.58784934238521        1.34054347522342
H           -3.17030929216372        4.62680395942042        1.09611591260398
H           -3.10493793652275        4.42425369588488       -0.66263537817396
H           -4.56547768647636        5.03042538342827        0.10131994654273
H           -1.83898913787825        3.08261452090852        3.38127708565542

          :  Hamiltonian                  GFN2-xTB          :
         :: total energy             -99.340086374944 Eh    ::
         :: gradient norm              0.003076161625 Eh/a0 ::
         :: HOMO-LUMO gap              1.391106804363 eV    ::
         :: SCC energy              -100.763772451351 Eh    ::
         :: -> dispersion             -0.072786673190 Eh    ::
         :: repulsion energy           1.422678169076 Eh    ::

    * Orbital Energies and Occupations

         #    Occupation            Energy/Eh            Energy/eV
      -------------------------------------------------------------
         1        2.0000           -0.8103181             -22.0499
       ...           ...                  ...                  ...
        78        1.9976           -0.5289212             -14.3927
        79        1.9975           -0.5278066             -14.3623
        80        1.9968           -0.5239519             -14.2575
        81        1.9963           -0.5217062             -14.1963
        82        1.9950           -0.5170579             -14.0699
        83        1.9932           -0.5121182             -13.9354
        84        1.9926           -0.5107475             -13.8981
        85        1.9903           -0.5064354             -13.7808
        86        1.9733           -0.4903627             -13.3434
        87        1.9718           -0.4894825             -13.3195
        88        1.8952           -0.4680511             -12.7363
        89        1.8193           -0.4587813             -12.4841
        90        1.8153           -0.4584009             -12.4737 (HOMO)
        91        0.5605           -0.4072787             -11.0826 (LUMO)
        92        0.0090           -0.3367353              -9.1630
        93        0.0024           -0.3157358              -8.5916
        94        0.0023           -0.3152812              -8.5792
        95        0.0019           -0.3122523              -8.4968
        96        0.0019           -0.3121218              -8.4933
        97        0.0009           -0.3002339              -8.1698
        98        0.0000           -0.1897820              -5.1642
        99        0.0000           -0.1894807              -5.1560
       100                         -0.1195731              -3.2538
       101                         -0.0646561              -1.7594
       ...                                ...                  ...
       171                          0.5745828              15.6352
      -------------------------------------------------------------
                  HL-Gap            0.0511222 Eh            1.3911 eV

     #   Z          covCN         q      C6AA      α(0)
     1   7 N        1.774    -0.266    27.716     7.796
     2   6 C        2.828     0.104    25.697     8.307
     3   6 C        3.909     0.011    20.337     6.410
     4   6 C        2.974     0.006    27.872     8.660
     5   6 C        2.920    -0.076    29.907     8.968
     6   6 C        2.862     0.131    25.130     8.217
     7   8 O        1.706    -0.227    17.763     5.690
     8   6 C        3.644     0.027    20.452     6.500
     9   6 C        2.864     0.132    25.115     8.215
    10   8 O        1.706    -0.223    17.698     5.680
    11   6 C        3.646     0.026    20.477     6.503
    12   6 C        2.914    -0.069    29.713     8.938
    13   6 C        2.922    -0.046    29.150     8.854
    14   6 C        3.817    -0.061    21.667     6.625
    15   6 C        2.890    -0.045    29.111     8.846
    16   6 C        2.852    -0.016    28.407     8.736
    17   7 N        2.733     0.062    20.163     6.669
    18   6 C        3.768    -0.019    20.958     6.524
    19   6 C        3.808    -0.069    21.808     6.648
    20   6 C        2.968     0.003    27.961     8.673
    21   6 C        2.922    -0.046    29.147     8.853
    22   6 C        2.914    -0.066    29.648     8.929
    23   6 C        2.864     0.135    25.053     8.204
    24   8 O        1.706    -0.218    17.623     5.668
    25   6 C        3.645     0.024    20.508     6.509
    26   6 C        2.862     0.134    25.062     8.206
    27   8 O        1.706    -0.222    17.680     5.677
    28   6 C        3.645     0.026    20.469     6.503
    29   6 C        2.920    -0.079    29.975     8.978
    30   6 C        2.803    -0.069    29.715     8.930
    31   6 C        3.853    -0.007    20.669     6.466
    32   6 C        3.756    -0.118    22.811     6.810
    33   6 C        3.755    -0.119    22.844     6.815
    34   1 H        0.926     0.053     2.280     2.361
    35   1 H        0.924     0.055     2.258     2.350
    36   1 H        0.925     0.082     1.959     2.189
    37   1 H        0.924     0.049     2.338     2.391
    38   1 H        0.924     0.057     2.231     2.336
    39   1 H        0.925     0.082     1.956     2.187
    40   1 H        0.924     0.052     2.298     2.370
    41   1 H        0.926     0.057     2.234     2.337
    42   1 H        0.926     0.045     2.377     2.411
    43   1 H        0.924     0.067     2.117     2.275
    44   1 H        0.925     0.055     2.261     2.352
    45   1 H        0.926     0.051     2.302     2.373
    46   1 H        0.803     0.001     3.097     2.765
    47   1 H        0.923     0.009     2.906     2.666
    48   1 H        0.926     0.060     2.197     2.318
    49   1 H        0.924     0.072     2.062     2.245
    50   1 H        0.924     0.071     2.078     2.254
    51   1 H        0.924     0.057     2.231     2.336
    52   1 H        0.924     0.058     2.218     2.329
    53   1 H        0.926     0.050     2.320     2.382
    54   1 H        0.926     0.061     2.188     2.313
    55   1 H        0.924     0.056     2.243     2.342
    56   1 H        0.924     0.058     2.227     2.334
    57   1 H        0.925     0.084     1.941     2.178
    58   1 H        0.925     0.083     1.946     2.181
    59   1 H        0.924     0.050     2.322     2.383
    60   1 H        0.924     0.054     2.271     2.356
    61   1 H        0.926     0.048     2.342     2.393
    62   1 H        0.803    -0.000     3.119     2.775
    63   1 H        0.926     0.076     2.018     2.222
    64   1 H        0.926     0.076     2.022     2.224
    65   1 H        0.924     0.038     2.470     2.458
    66   1 H        0.925     0.069     2.096     2.264
    67   1 H        0.925     0.036     2.503     2.474
    68   1 H        0.925     0.052     2.291     2.367
    69   1 H        0.925     0.065     2.140     2.287
    70   1 H        0.925     0.036     2.503     2.474
    71   1 H        0.925     0.055     2.259     2.350
    72   1 H        0.860     0.160     1.337     1.811

Wiberg/Mayer (AO) data.
largest (>0.10) Wiberg bond orders for each atom

     #   Z sym  total        # sym  WBO       # sym  WBO       # sym  WBO
 ---------------------------------------------------------------------------
     1   7 N    3.012 --     2 C    1.956    72 H    0.940
     2   6 C    3.941 --     1 N    1.956     3 C    0.991    47 H    0.930
     3   6 C    3.959 --     2 C    0.991     4 C    0.973    31 C    0.949
                            14 C    0.920
     4   6 C    3.936 --    13 C    1.406     5 C    1.372     3 C    0.973
     5   6 C    3.956 --     6 C    1.398     4 C    1.372    34 H    0.957
     6   6 C    3.893 --     5 C    1.398     9 C    1.216     7 O    1.101
     7   8 O    2.248 --     6 C    1.101     8 C    0.978
     8   6 C    3.930 --     7 O    0.978    36 H    0.976    35 H    0.973
                            37 H    0.973
     9   6 C    3.888 --    12 C    1.385     6 C    1.216    10 O    1.108
    10   8 O    2.249 --     9 C    1.108    11 C    0.976
    11   6 C    3.928 --    39 H    0.977    10 O    0.976    40 H    0.973
                            38 H    0.972
    12   6 C    3.956 --    13 C    1.413     9 C    1.385    41 H    0.963
    13   6 C    3.943 --    12 C    1.413     4 C    1.406    42 H    0.962
    14   6 C    3.986 --    15 C    1.045    44 H    0.970    43 H    0.950
                             3 C    0.920
    15   6 C    3.815 --    16 C    1.711    14 C    1.045    45 H    0.957
    16   6 C    3.929 --    15 C    1.711    17 N    1.121    48 H    0.956
    17   7 N    3.574 --    30 C    1.413    16 C    1.121    18 C    0.980
    18   6 C    3.953 --    17 N    0.980    19 C    0.970    50 H    0.968
                            49 H    0.966
    19   6 C    3.978 --    20 C    1.009    51 H    0.973    18 C    0.970
                            52 H    0.967
    20   6 C    3.938 --    21 C    1.408    29 C    1.378    19 C    1.009
    21   6 C    3.943 --    22 C    1.417    20 C    1.408    53 H    0.967
    22   6 C    3.955 --    21 C    1.417    23 C    1.381    54 H    0.963
    23   6 C    3.888 --    22 C    1.381    26 C    1.214    24 O    1.114
    24   8 O    2.254 --    23 C    1.114    25 C    0.975
    25   6 C    3.926 --    57 H    0.976    24 O    0.975    56 H    0.972
                            55 H    0.972
    26   6 C    3.892 --    29 C    1.395    23 C    1.214    27 O    1.107
    27   8 O    2.253 --    26 C    1.107    28 C    0.978
    28   6 C    3.930 --    27 O    0.978    58 H    0.976    59 H    0.973
                            60 H    0.973
    29   6 C    3.956 --    26 C    1.395    20 C    1.378    61 H    0.962
    30   6 C    3.506 --    17 N    1.413    64 H    0.972    63 H    0.968
    31   6 C    3.971 --    33 C    1.008    32 C    1.006    65 H    0.958
                             3 C    0.949
    32   6 C    3.974 --    31 C    1.006    67 H    0.981    68 H    0.981
                            66 H    0.972
    33   6 C    3.978 --    31 C    1.008    70 H    0.982    71 H    0.979
                            69 H    0.974
    34   1 H    0.996 --     5 C    0.957
    35   1 H    0.992 --     8 C    0.973
    36   1 H    0.992 --     8 C    0.976
    37   1 H    0.992 --     8 C    0.973
    38   1 H    0.991 --    11 C    0.972
    39   1 H    0.992 --    11 C    0.977
    40   1 H    0.992 --    11 C    0.973
    41   1 H    0.995 --    12 C    0.963
    42   1 H    0.997 --    13 C    0.962
    43   1 H    0.988 --    14 C    0.950
    44   1 H    0.996 --    14 C    0.970
    45   1 H    0.997 --    15 C    0.957
    46   1 H    0.999 --    62 H    0.998
    47   1 H    0.979 --     2 C    0.930
    48   1 H    0.996 --    16 C    0.956
    49   1 H    0.992 --    18 C    0.966
    50   1 H    0.993 --    18 C    0.968
    51   1 H    0.996 --    19 C    0.973
    52   1 H    0.994 --    19 C    0.967
    53   1 H    0.997 --    21 C    0.967
    54   1 H    0.994 --    22 C    0.963
    55   1 H    0.990 --    25 C    0.972
    56   1 H    0.990 --    25 C    0.972
    57   1 H    0.992 --    25 C    0.976
    58   1 H    0.992 --    28 C    0.976
    59   1 H    0.992 --    28 C    0.973
    60   1 H    0.992 --    28 C    0.973
    61   1 H    0.996 --    29 C    0.962
    62   1 H    1.000 --    46 H    0.998
    63   1 H    0.994 --    30 C    0.968
    64   1 H    0.994 --    30 C    0.972
    65   1 H    0.990 --    31 C    0.958
    66   1 H    0.989 --    32 C    0.972
    67   1 H    0.996 --    32 C    0.981
    68   1 H    0.993 --    32 C    0.981
    69   1 H    0.991 --    33 C    0.974
    70   1 H    0.996 --    33 C    0.982
    71   1 H    0.993 --    33 C    0.979
    72   1 H    0.967 --     1 N    0.940
 ---------------------------------------------------------------------------

molecular dipole:
                 x           y           z       tot (Debye)
 q only:        0.929      -0.248      -0.128
   full:        1.147      -0.478      -0.083       3.166

           -------------------------------------------------
          | TOTAL ENERGY              -99.340086374944 Eh   |
          | GRADIENT NORM               0.003076161625 Eh/α |
          | HOMO-LUMO GAP               1.391106804363 eV   |
           -------------------------------------------------

 * finished run on 2024/04/06 at 11:15:11.927
