   * xtb version 6.6.1 (8d0f1dd) compiled by 'conda@1efc2f54142f' on 2023-08-01
          program call               : xtb struc.xyz --opt loose --input .xc1 --gfn2

   ID    Z sym.   atoms
    1    6 C      1, 3, 5-7, 10, 11, 14
    2    7 N      2, 4, 9, 13
    3    8 O      8, 12
    4    1 H      15-25
constraining bond 4 5 to    3.9200000 Å, actual value:    1.3653241 Å

          :  Hamiltonian                  GFN2-xTB          :
 * total energy  :     4.3643070 Eh     change       -0.6650680E-10 Eh
 * total energy  :   -17.0401730 Eh     change       -0.2140448E+02 Eh
 * total energy  :   -30.4490697 Eh     change       -0.1340890E+02 Eh
 * total energy  :   -38.2525539 Eh     change       -0.7803484E+01 Eh
 * total energy  :   -41.2742012 Eh     change       -0.3021647E+01 Eh
 * total energy  :   -41.6905260 Eh     change       -0.4163248E+00 Eh
 * total energy  :   -41.7160506 Eh     change       -0.2552457E-01 Eh
 * total energy  :   -41.7515879 Eh     change       -0.3553732E-01 Eh
 * total energy  :   -41.7860301 Eh     change       -0.3444219E-01 Eh
 * total energy  :   -41.8272709 Eh     change       -0.4124081E-01 Eh
 * total energy  :   -42.0979125 Eh     change       -0.1773183E-03 Eh
 * total energy  :   -42.0980109 Eh     change       -0.9835362E-04 Eh
 * total energy  :   -42.0981258 Eh     change       -0.1149017E-03 Eh
 * total energy  :   -42.0981940 Eh     change       -0.6821977E-04 Eh
 * total energy  :   -42.0982461 Eh     change       -0.5205561E-04 Eh
 * total energy  :   -42.0982920 Eh     change       -0.4596473E-04 Eh
 * total energy  :   -42.0983167 Eh     change       -0.2462233E-04 Eh
 * total energy  :   -42.0983467 Eh     change       -0.3007604E-04 Eh
 * total energy  :   -42.0983716 Eh     change       -0.2487789E-04 Eh
   *** GEOMETRY OPTIMIZATION CONVERGED AFTER 84 ITERATIONS ***

 final structure:
================
25
 xtb: 6.6.1 (8d0f1dd)
C            2.28304682561441       -0.15548927572167        1.31124023044339
N            1.81756935768964       -0.37343265204062       -0.04306482204246
C            2.55373736687285       -1.10787627732741       -0.93257148694601
N            2.38138921389946       -1.27925551704207       -2.16204822532652
C           -0.57671230252111        0.17147176002262       -0.03832889422320
C            0.72527472992510        0.44412463729150       -0.48060703874775
C            1.01425782070178        1.48248180446304       -1.28918347129728
O            1.34997199704509        2.31870625232695       -2.00233403781541
N           -1.77256752708687        0.82297761311256       -0.19069982100747
C           -2.19412703916441        2.11770384439174       -0.63558257996948
C           -2.39608953169802       -0.20950241267619        0.57264659902582
O           -3.48910076351513       -0.43805086298541        0.93684688679541
N           -1.12212944044369       -0.84227135246283        0.70827501587915
C           -0.73642096606011       -2.16966855574619        1.08822505668802
H            2.88755867158360       -1.00242048794545        1.62838461338113
H            2.89109992655786        0.75030426763977        1.38139530764577
H            1.43405401034630       -0.05124245642475        1.98606740809119
H            3.38784353391855       -1.63069951945654       -0.47618439731909
H           -1.86083179620444        2.29782451561777       -1.65895958249452
H           -3.28265090900767        2.13521432686938       -0.60668541253252
H           -1.80921086678894        2.90752642104222        0.01547023068190
H            0.09802693366111       -2.14691184367450        1.79074942030014
H           -0.45651641052216       -2.76663930943281        0.21710588233296
H           -1.59550592571029       -2.62972139268401        1.57506448526652
H            1.62846460504396       -0.82691498557358       -2.66404974892250

          :  Hamiltonian                  GFN2-xTB          :
         :: total energy             -42.098371613582 Eh    ::
         :: gradient norm              0.002103194127 Eh/a0 ::
         :: HOMO-LUMO gap              1.836638412359 eV    ::
         :: SCC energy               -42.654202108028 Eh    ::
         :: -> dispersion             -0.021884352650 Eh    ::
         :: repulsion energy           0.555546860428 Eh    ::

    * Orbital Energies and Occupations

         #    Occupation            Energy/Eh            Energy/eV
      -------------------------------------------------------------
         1        2.0000           -0.9540931             -25.9622
       ...           ...                  ...                  ...
        25        2.0000           -0.6871057             -18.6971
        26        2.0000           -0.6805522             -18.5188
        27        1.9997           -0.6497472             -17.6805
        28        1.9996           -0.6475290             -17.6202
        29        1.9994           -0.6405308             -17.4297
        30        1.9993           -0.6397179             -17.4076
        31        1.9992           -0.6374124             -17.3449
        32        1.9991           -0.6339683             -17.2512
        33        1.9941           -0.6047465             -16.4560
        34        1.9891           -0.5950681             -16.1926
        35        1.9490           -0.5702355             -15.5169
        36        1.8948           -0.5583300             -15.1929
        37        1.8167           -0.5488745             -14.9356 (HOMO)
        38        0.2449           -0.4813793             -13.0990 (LUMO)
        39        0.1144           -0.4681845             -12.7399
        40        0.0007           -0.3855575             -10.4916
        41        0.0003           -0.3733289             -10.1588
        42        0.0000           -0.3315090              -9.0208
        43                         -0.2181958              -5.9374
        44                         -0.1989469              -5.4136
        45                         -0.1651534              -4.4941
        46                         -0.1294310              -3.5220
        47                         -0.0897922              -2.4434
        48                         -0.0662026              -1.8015
       ...                                ...                  ...
        67                          0.9098751              24.7590
      -------------------------------------------------------------
                  HL-Gap            0.0674952 Eh            1.8366 eV

     #   Z          covCN         q      C6AA      α(0)
     1   6 C        3.697    -0.070    22.009     6.710
     2   7 N        2.740    -0.047    22.151     6.990
     3   6 C        2.763     0.122    25.302     8.238
     4   7 N        1.774    -0.252    27.374     7.748
     5   6 C        3.397     0.140    21.539     7.177
     6   6 C        2.888     0.005    27.907     8.661
     7   6 C        1.859     0.258    25.186     8.106
     8   8 O        0.856    -0.078    16.189     5.395
     9   7 N        2.995    -0.088    22.942     7.114
    10   6 C        3.682    -0.063    21.922     6.705
    11   6 C        3.253     0.342    20.397     7.307
    12   8 O        0.856    -0.250    18.909     5.830
    13   7 N        2.995    -0.079    22.778     7.088
    14   6 C        3.683    -0.063    21.919     6.704
    15   1 H        0.925     0.097     1.814     2.106
    16   1 H        0.924     0.083     1.945     2.181
    17   1 H        0.925     0.079     1.995     2.209
    18   1 H        0.925     0.108     1.713     2.047
    19   1 H        0.924     0.087     1.904     2.158
    20   1 H        0.925     0.116     1.645     2.006
    21   1 H        0.924     0.089     1.889     2.149
    22   1 H        0.924     0.092     1.862     2.134
    23   1 H        0.924     0.088     1.897     2.154
    24   1 H        0.925     0.112     1.679     2.026
    25   1 H        0.860     0.170     1.271     1.766

Wiberg/Mayer (AO) data.
largest (>0.10) Wiberg bond orders for each atom

     #   Z sym  total        # sym  WBO       # sym  WBO       # sym  WBO
 ---------------------------------------------------------------------------
     1   6 C    3.935 --     2 N    0.984    17 H    0.972    15 H    0.968
                            16 H    0.963
     2   7 N    3.380 --     3 C    1.173     1 C    0.984     6 C    0.968
                             4 N    0.146
     3   6 C    3.947 --     4 N    1.800     2 N    1.173    18 H    0.923
     4   7 N    2.921 --     3 C    1.800    25 H    0.929     2 N    0.146
     5   6 C    3.813 --     6 C    1.252     9 N    1.173    13 N    1.172
     6   6 C    3.907 --     7 C    1.397     5 C    1.252     2 N    0.968
                             8 O    0.139
     7   6 C    3.687 --     8 O    2.149     6 C    1.397
     8   8 O    2.409 --     7 C    2.149     6 C    0.139
     9   7 N    3.474 --     5 C    1.173    10 C    0.993    11 C    0.976
                            13 N    0.120    12 O    0.107
    10   6 C    3.929 --     9 N    0.993    20 H    0.967    19 H    0.965
                            21 H    0.959
    11   6 C    3.901 --    12 O    1.858     9 N    0.976    13 N    0.974
    12   8 O    2.151 --    11 C    1.858     9 N    0.107    13 N    0.106
    13   7 N    3.470 --     5 C    1.172    14 C    0.991    11 C    0.974
                             9 N    0.120    12 O    0.106
    14   6 C    3.927 --    13 N    0.991    24 H    0.968    22 H    0.962
                            23 H    0.961
    15   1 H    0.988 --     1 C    0.968
    16   1 H    0.980 --     1 C    0.963
    17   1 H    0.988 --     1 C    0.972
    18   1 H    0.974 --     3 C    0.923
    19   1 H    0.986 --    10 C    0.965
    20   1 H    0.985 --    10 C    0.967
    21   1 H    0.983 --    10 C    0.959
    22   1 H    0.984 --    14 C    0.962
    23   1 H    0.983 --    14 C    0.961
    24   1 H    0.986 --    14 C    0.968
    25   1 H    0.961 --     4 N    0.929
 ---------------------------------------------------------------------------

molecular dipole:
                 x           y           z       tot (Debye)
 q only:        0.742       0.184       0.223
   full:        0.769       0.450       0.307       2.396

           -------------------------------------------------
          | TOTAL ENERGY              -42.098371613582 Eh   |
          | GRADIENT NORM               0.002103194127 Eh/α |
          | HOMO-LUMO GAP               1.836638412359 eV   |
           -------------------------------------------------

 * finished run on 2024/06/05 at 20:00:10.324
