   * xtb version 6.6.1 (8d0f1dd) compiled by 'conda@1efc2f54142f' on 2023-08-01
          program call               : xtb struc.xyz --opt loose --input .xc1 --gfn2

   ID    Z sym.   atoms
    1    7 N      1, 17
    2    6 C      2-6, 8, 9, 11-16, 18-23, 25, 26, 28-33
    3    8 O      7, 10, 24, 27
    4    1 H      34-72
constraining bond 2 43 to    5.1400000 Å, actual value:    3.3645374 Å

          :  Hamiltonian                  GFN2-xTB          :
 * total energy  :   -98.8412834 Eh     change       -0.4035485E-08 Eh
 * total energy  :   -99.0483445 Eh     change       -0.2070611E+00 Eh
 * total energy  :   -99.1547162 Eh     change       -0.1063717E+00 Eh
 * total energy  :   -99.1994088 Eh     change       -0.4469266E-01 Eh
 * total energy  :   -99.2154598 Eh     change       -0.1605098E-01 Eh
 * total energy  :   -99.2228177 Eh     change       -0.7357829E-02 Eh
 * total energy  :   -99.2272290 Eh     change       -0.4411307E-02 Eh
 * total energy  :   -99.2304451 Eh     change       -0.3216160E-02 Eh
 * total energy  :   -99.2333084 Eh     change       -0.2863309E-02 Eh
 * total energy  :   -99.2363104 Eh     change       -0.3002005E-02 Eh
 * total energy  :   -99.3083813 Eh     change       -0.2867132E-03 Eh
 * total energy  :   -99.3086731 Eh     change       -0.2917682E-03 Eh
 * total energy  :   -99.3088898 Eh     change       -0.2167198E-03 Eh
 * total energy  :   -99.3090358 Eh     change       -0.1459768E-03 Eh
 * total energy  :   -99.3091917 Eh     change       -0.1558828E-03 Eh
 * total energy  :   -99.3093069 Eh     change       -0.1151850E-03 Eh
 * total energy  :   -99.3093927 Eh     change       -0.8584286E-04 Eh
 * total energy  :   -99.3094479 Eh     change       -0.5520751E-04 Eh
 * total energy  :   -99.3094837 Eh     change       -0.3581354E-04 Eh
   *** GEOMETRY OPTIMIZATION CONVERGED AFTER 49 ITERATIONS ***

 final structure:
================
72
 xtb: 6.6.1 (8d0f1dd)
N           -1.71754860000685        2.62417241699465        2.47748366237674
C           -1.52274988240463        1.83746923556397        1.52811488111714
C           -2.49315091541515        1.67272032319868        0.36652302471978
C           -3.12363894946041        0.29009862233290        0.44640075158707
C           -4.03366296558022       -0.10144622265369       -0.53734160080677
C           -4.66331718587549       -1.33613725707435       -0.49614366122504
O           -5.55939477708856       -1.77599876547856       -1.39618211198421
C           -5.95838968471198       -0.92567772396984       -2.44789920198991
C           -4.36876082824760       -2.23832183649862        0.56650510788182
O           -5.00676367015421       -3.41945087009615        0.51722579061332
C           -4.79278361273910       -4.36709709965994        1.53805951575800
C           -3.47756601513136       -1.83309835295262        1.55047707586277
C           -2.87065364047165       -0.58650811431437        1.49481739404815
C           -1.66158304788747        1.85841044436790       -0.90993558158588
C           -1.59327567646560        0.90995975301695       -2.07215089489255
C           -0.36188815929931        1.13027916051493       -1.24755728449197
N            0.21146838200184        0.12159511907461       -0.41731190373363
C            1.61301685781545        0.29550743716968       -0.12119545661484
C            2.56042054522809       -0.10341886743716       -1.27846231323652
C            3.98957603541848        0.06883076640993       -0.86600558721026
C            4.64881637052875        1.27609207253617       -1.06056383119881
C            5.96685891256763        1.43878036215179       -0.66822408541576
C            6.65849868252103        0.39620219819652       -0.06321592276693
O            7.93520032069156        0.43503806591236        0.34846555940553
C            8.69457250509174        1.60548254220483        0.14782117884953
C            5.98772038750049       -0.84333420376553        0.15307046629934
O            6.72755852006039       -1.79612330976392        0.74575691514840
C            6.16665533550085       -3.06656729630532        0.97943934616962
C            4.66793943575738       -0.98032444014218       -0.25058951312787
C           -0.20816504378870       -1.24711633504158       -0.61206147579966
C           -3.64493304247580        2.73109477971892        0.38749236684038
C           -4.61246620024545        2.47847599470725        1.53712754242998
C           -3.17723231130924        4.17938398346641        0.44133701047629
H           -4.27505310343992        0.58572663008416       -1.33218273365691
H           -6.38768761692699        0.00722524911521       -2.07055818035381
H           -6.71769454886632       -1.47794433126171       -2.99764549039981
H           -5.12199009456917       -0.69653994519863       -3.11589863128627
H           -5.10232757195332       -3.98204404139666        2.51374201763867
H           -5.41143715891130       -5.22332888775973        1.27559467367318
H           -3.74427093589592       -4.67705634577855        1.58235458637353
H           -3.25477134046001       -2.48375124002426        2.38042758355948
H           -2.20471259740817       -0.30647955159595        2.29503903043439
H           -5.26892119186688        2.57286565283535       -1.87865648127540
H           -1.61997802738000        2.90312255515252       -1.19063100529725
H           -2.08490485781418       -0.04413837156959       -1.99488330671824
H           -1.62017963870160        1.33032053374720       -3.06637698949167
H           -0.63699168007042        1.20041658672591        1.41844097239545
H            0.39425990837486        1.77924570091759       -1.67716623579444
H            1.85260806778929       -0.31616895239326        0.75337625711159
H            1.78875299928355        1.34243295593855        0.13909044116984
H            2.34270571480485        0.52000974060378       -2.14688605894215
H            2.37389358396688       -1.14462024978226       -1.54357933211518
H            4.13597049636953        2.09843852943988       -1.53538407358414
H            6.45411474346688        2.38421931238836       -0.84190555924379
H            8.27141619225795        2.45506728782088        0.69188952644075
H            8.77269083904443        1.85338323856701       -0.91474789705422
H            9.68449597096561        1.38175679288455        0.54075827798309
H            6.95555533147038       -3.65264594249507        1.44665732986291
H            5.30984235411751       -3.00748286982254        1.65778332687643
H            5.86248929577416       -3.54786841400663        0.04512802456229
H            4.15484858258409       -1.91760427741007       -0.10237073105187
H           -0.02715516234095       -1.59943840813449       -1.63412705660696
H           -1.26994382448407       -1.34424209254175       -0.39313789382384
H            0.33896727090571       -1.88275532088298        0.08113862281014
H           -4.22653729485777        2.61600943040857       -0.57408295476403
H           -4.08909095285897        2.59851849529918        2.48336479561969
H           -5.04089430050116        1.48010694951947        1.49779824259257
H           -5.42450700407203        3.20012800125009        1.49893397652207
H           -2.61552115863831        4.35238670653183        1.35677717752259
H           -2.56062477684201        4.46027083050476       -0.40902051910024
H           -4.04654235071519        4.83240023722920        0.44381580089869
H           -1.01473664650033        2.68522476522320        3.20711814559826

          :  Hamiltonian                  GFN2-xTB          :
         :: total energy             -99.309483746243 Eh    ::
         :: gradient norm              0.002120674632 Eh/a0 ::
         :: HOMO-LUMO gap              0.636315990783 eV    ::
         :: SCC energy              -100.672006926365 Eh    ::
         :: -> dispersion             -0.077786811286 Eh    ::
         :: repulsion energy           1.360925186776 Eh    ::

    * Orbital Energies and Occupations

         #    Occupation            Energy/Eh            Energy/eV
      -------------------------------------------------------------
         1        2.0000           -0.8188139             -22.2811
       ...           ...                  ...                  ...
        78        1.9967           -0.5361951             -14.5906
        79        1.9959           -0.5327646             -14.4973
        80        1.9947           -0.5286852             -14.3863
        81        1.9944           -0.5277828             -14.3617
        82        1.9932           -0.5246114             -14.2754
        83        1.9925           -0.5230608             -14.2332
        84        1.9887           -0.5165847             -14.0570
        85        1.9638           -0.4980119             -13.5516
        86        1.9623           -0.4973682             -13.5341
        87        1.9104           -0.4832151             -13.1490
        88        1.7891           -0.4686300             -12.7521
        89        1.7641           -0.4666330             -12.6977
        90        1.6416           -0.4588738             -12.4866 (HOMO)
        91        1.0225           -0.4354896             -11.8503 (LUMO)
        92        0.0075           -0.3462962              -9.4232
        93        0.0019           -0.3242210              -8.8225
        94        0.0016           -0.3216903              -8.7536
        95        0.0015           -0.3211200              -8.7381
        96        0.0014           -0.3191884              -8.6856
        97        0.0000           -0.1994480              -5.4273
        98        0.0000           -0.1968537              -5.3567
        99        0.0000           -0.1765487              -4.8041
       100                         -0.1124274              -3.0593
       101                         -0.0741973              -2.0190
       ...                                ...                  ...
       171                          0.5654048              15.3854
      -------------------------------------------------------------
                  HL-Gap            0.0233842 Eh            0.6363 eV

     #   Z          covCN         q      C6AA      α(0)
     1   7 N        1.774    -0.257    27.503     7.766
     2   6 C        2.826     0.099    25.798     8.323
     3   6 C        3.906     0.013    20.306     6.405
     4   6 C        2.972     0.011    27.758     8.642
     5   6 C        2.920    -0.078    29.947     8.974
     6   6 C        2.862     0.134    25.068     8.207
     7   8 O        1.706    -0.217    17.605     5.665
     8   6 C        3.645     0.023    20.520     6.511
     9   6 C        2.862     0.134    25.078     8.208
    10   8 O        1.706    -0.215    17.576     5.660
    11   6 C        3.645     0.023    20.518     6.510
    12   6 C        2.913    -0.069    29.730     8.941
    13   6 C        2.920    -0.045    29.115     8.848
    14   6 C        3.866    -0.033    21.127     6.536
    15   6 C        3.806    -0.076    21.948     6.669
    16   6 C        3.804     0.033    20.022     6.370
    17   7 N        2.725    -0.103    23.260     7.163
    18   6 C        3.755    -0.001    20.654     6.480
    19   6 C        3.807    -0.072    21.869     6.657
    20   6 C        2.968     0.009    27.806     8.649
    21   6 C        2.921    -0.043    29.064     8.841
    22   6 C        2.912    -0.064    29.599     8.921
    23   6 C        2.864     0.137    25.007     8.197
    24   8 O        1.706    -0.211    17.500     5.648
    25   6 C        3.645     0.022    20.542     6.514
    26   6 C        2.862     0.137    25.010     8.197
    27   8 O        1.706    -0.214    17.562     5.658
    28   6 C        3.645     0.024    20.503     6.508
    29   6 C        2.919    -0.076    29.901     8.967
    30   6 C        3.698    -0.050    21.635     6.653
    31   6 C        3.847    -0.005    20.641     6.462
    32   6 C        3.757    -0.118    22.809     6.809
    33   6 C        3.756    -0.119    22.827     6.812
    34   1 H        0.926     0.073     2.057     2.243
    35   1 H        0.924     0.065     2.147     2.291
    36   1 H        0.925     0.086     1.921     2.168
    37   1 H        0.924     0.055     2.256     2.349
    38   1 H        0.924     0.060     2.196     2.317
    39   1 H        0.925     0.086     1.919     2.167
    40   1 H        0.924     0.055     2.254     2.348
    41   1 H        0.926     0.059     2.206     2.323
    42   1 H        0.926     0.048     2.340     2.392
    43   1 H        0.000    -0.141    18.000     7.758
    44   1 H        0.925     0.057     2.230     2.335
    45   1 H        0.926     0.059     2.215     2.327
    46   1 H        0.926     0.057     2.229     2.335
    47   1 H        0.924     0.038     2.477     2.461
    48   1 H        0.925     0.044     2.394     2.420
    49   1 H        0.924     0.053     2.283     2.363
    50   1 H        0.924     0.052     2.295     2.369
    51   1 H        0.924     0.052     2.295     2.369
    52   1 H        0.924     0.055     2.256     2.349
    53   1 H        0.926     0.053     2.279     2.361
    54   1 H        0.926     0.064     2.158     2.297
    55   1 H        0.924     0.060     2.199     2.319
    56   1 H        0.924     0.061     2.185     2.312
    57   1 H        0.925     0.087     1.910     2.161
    58   1 H        0.925     0.086     1.920     2.167
    59   1 H        0.924     0.054     2.268     2.355
    60   1 H        0.924     0.058     2.226     2.333
    61   1 H        0.926     0.054     2.273     2.357
    62   1 H        0.924     0.051     2.307     2.375
    63   1 H        0.925     0.060     2.195     2.317
    64   1 H        0.925     0.058     2.217     2.329
    65   1 H        0.918     0.087     1.911     2.162
    66   1 H        0.925     0.074     2.037     2.232
    67   1 H        0.925     0.041     2.438     2.442
    68   1 H        0.925     0.060     2.201     2.320
    69   1 H        0.925     0.076     2.021     2.223
    70   1 H        0.925     0.040     2.447     2.446
    71   1 H        0.925     0.063     2.166     2.301
    72   1 H        0.860     0.166     1.298     1.785

Wiberg/Mayer (AO) data.
largest (>0.10) Wiberg bond orders for each atom

     #   Z sym  total        # sym  WBO       # sym  WBO       # sym  WBO
 ---------------------------------------------------------------------------
     1   7 N    3.014 --     2 C    1.964    72 H    0.935
     2   6 C    3.925 --     1 N    1.964     3 C    0.969    47 H    0.919
     3   6 C    3.960 --     4 C    0.971     2 C    0.969    14 C    0.959
                            31 C    0.938
     4   6 C    3.925 --    13 C    1.394     5 C    1.372     3 C    0.971
     5   6 C    3.940 --     6 C    1.387     4 C    1.372    34 H    0.947
     6   6 C    3.883 --     5 C    1.387     9 C    1.206     7 O    1.116
     7   8 O    2.251 --     6 C    1.116     8 C    0.973
     8   6 C    3.921 --    36 H    0.976     7 O    0.973    37 H    0.971
                            35 H    0.969
     9   6 C    3.876 --    12 C    1.377     6 C    1.206    10 O    1.118
    10   8 O    2.251 --     9 C    1.118    11 C    0.974
    11   6 C    3.924 --    39 H    0.976    10 O    0.974    40 H    0.972
                            38 H    0.971
    12   6 C    3.949 --    13 C    1.415     9 C    1.377    41 H    0.962
    13   6 C    3.930 --    12 C    1.415     4 C    1.394    42 H    0.961
    14   6 C    3.886 --    15 C    0.965     3 C    0.959    44 H    0.958
                            16 C    0.905
    15   6 C    3.922 --    46 H    0.974    45 H    0.966    14 C    0.965
                            16 C    0.957
    16   6 C    3.902 --    17 N    1.027    48 H    0.958    15 C    0.957
                            14 C    0.905
    17   7 N    3.145 --    16 C    1.027    18 C    1.011    30 C    1.009
    18   6 C    3.962 --    17 N    1.011    50 H    0.970    49 H    0.967
                            19 C    0.955
    19   6 C    3.964 --    20 C    1.018    52 H    0.969    51 H    0.969
                            18 C    0.955
    20   6 C    3.921 --    21 C    1.385    29 C    1.382    19 C    1.018
    21   6 C    3.922 --    22 C    1.428    20 C    1.385    53 H    0.967
    22   6 C    3.945 --    21 C    1.428    23 C    1.369    54 H    0.962
    23   6 C    3.866 --    22 C    1.369    26 C    1.203    24 O    1.123
    24   8 O    2.250 --    23 C    1.123    25 C    0.973
    25   6 C    3.921 --    57 H    0.976    24 O    0.973    56 H    0.970
                            55 H    0.970
    26   6 C    3.876 --    29 C    1.387    23 C    1.203    27 O    1.116
    27   8 O    2.251 --    26 C    1.116    28 C    0.976
    28   6 C    3.926 --    58 H    0.976    27 O    0.976    59 H    0.972
                            60 H    0.971
    29   6 C    3.946 --    26 C    1.387    20 C    1.382    61 H    0.961
    30   6 C    3.963 --    17 N    1.009    64 H    0.979    63 H    0.967
                            62 H    0.964
    31   6 C    3.858 --    33 C    1.011    32 C    1.010     3 C    0.938
                            65 H    0.836
    32   6 C    3.967 --    31 C    1.010    67 H    0.978    68 H    0.978
                            66 H    0.961
    33   6 C    3.966 --    31 C    1.011    71 H    0.976    70 H    0.974
                            69 H    0.957
    34   1 H    0.993 --     5 C    0.947
    35   1 H    0.989 --     8 C    0.969
    36   1 H    0.992 --     8 C    0.976
    37   1 H    0.989 --     8 C    0.971
    38   1 H    0.989 --    11 C    0.971
    39   1 H    0.992 --    11 C    0.976
    40   1 H    0.990 --    11 C    0.972
    41   1 H    0.994 --    12 C    0.962
    42   1 H    0.996 --    13 C    0.961
    43   1 H    0.161 --    65 H    0.114
    44   1 H    0.993 --    14 C    0.958
    45   1 H    0.996 --    15 C    0.966
    46   1 H    0.991 --    15 C    0.974
    47   1 H    0.969 --     2 C    0.919
    48   1 H    0.989 --    16 C    0.958
    49   1 H    0.992 --    18 C    0.967
    50   1 H    0.994 --    18 C    0.970
    51   1 H    0.995 --    19 C    0.969
    52   1 H    0.995 --    19 C    0.969
    53   1 H    0.996 --    21 C    0.967
    54   1 H    0.994 --    22 C    0.962
    55   1 H    0.988 --    25 C    0.970
    56   1 H    0.988 --    25 C    0.970
    57   1 H    0.991 --    25 C    0.976
    58   1 H    0.992 --    28 C    0.976
    59   1 H    0.990 --    28 C    0.972
    60   1 H    0.990 --    28 C    0.971
    61   1 H    0.995 --    29 C    0.961
    62   1 H    0.976 --    30 C    0.964
    63   1 H    0.989 --    30 C    0.967
    64   1 H    0.996 --    30 C    0.979
    65   1 H    0.976 --    31 C    0.836    43 H    0.114
    66   1 H    0.980 --    32 C    0.961
    67   1 H    0.994 --    32 C    0.978
    68   1 H    0.991 --    32 C    0.978
    69   1 H    0.980 --    33 C    0.957
    70   1 H    0.994 --    33 C    0.974
    71   1 H    0.990 --    33 C    0.976
    72   1 H    0.961 --     1 N    0.935
 ---------------------------------------------------------------------------

molecular dipole:
                 x           y           z       tot (Debye)
 q only:        1.277      -0.378       0.314
   full:        1.661      -0.522       0.140       4.440

           -------------------------------------------------
          | TOTAL ENERGY              -99.309483746243 Eh   |
          | GRADIENT NORM               0.002120674632 Eh/α |
          | HOMO-LUMO GAP               0.636315990783 eV   |
           -------------------------------------------------

 * finished run on 2024/04/06 at 11:11:46.978
