   * xtb version 6.6.1 (8d0f1dd) compiled by 'conda@1efc2f54142f' on 2023-08-01
          program call               : xtb struc.xyz --opt loose --input .xc1 --gfn2

   ID    Z sym.   atoms
    1    6 C      1, 3, 5-7, 10, 11, 14
    2    7 N      2, 4, 9, 13
    3    8 O      8, 12
    4    1 H      15-25
constraining bond 8 10 to    5.7600000 Å, actual value:    2.7438924 Å

          :  Hamiltonian                  GFN2-xTB          :
 * total energy  :    -9.7622267 Eh     change       -0.6650680E-10 Eh
 * total energy  :   -21.9885165 Eh     change       -0.1222629E+02 Eh
 * total energy  :   -31.0488300 Eh     change       -0.9060313E+01 Eh
 * total energy  :   -37.1191948 Eh     change       -0.6070365E+01 Eh
 * total energy  :   -40.4319270 Eh     change       -0.3312732E+01 Eh
 * total energy  :   -41.5487158 Eh     change       -0.1116789E+01 Eh
 * total energy  :   -41.6590993 Eh     change       -0.1103834E+00 Eh
 * total energy  :   -41.6649491 Eh     change       -0.5849789E-02 Eh
 * total energy  :   -41.6803809 Eh     change       -0.1543179E-01 Eh
 * total energy  :   -41.6928615 Eh     change       -0.1248062E-01 Eh
 * total energy  :   -42.1431640 Eh     change       -0.1501917E-02 Eh
 * total energy  :   -42.1440905 Eh     change       -0.9265084E-03 Eh
 * total energy  :   -42.1449022 Eh     change       -0.8117395E-03 Eh
 * total energy  :   -42.1451886 Eh     change       -0.2863613E-03 Eh
 * total energy  :   -42.1454373 Eh     change       -0.2487325E-03 Eh
 * total energy  :   -42.1455836 Eh     change       -0.1463028E-03 Eh
 * total energy  :   -42.1456869 Eh     change       -0.1032696E-03 Eh
 * total energy  :   -42.1457614 Eh     change       -0.7444729E-04 Eh
 * total energy  :   -42.1458045 Eh     change       -0.4318897E-04 Eh
   *** GEOMETRY OPTIMIZATION CONVERGED AFTER 53 ITERATIONS ***

 final structure:
================
25
 xtb: 6.6.1 (8d0f1dd)
C            3.91870238716498        0.44786818105284        0.16254359375517
N            2.77666686825775       -0.23182103938384        0.05805631537160
C            2.66771514439930       -1.57694090685449       -0.03055591472266
N            1.34592246219669       -1.94173502923454       -0.08844607208368
C            0.60191259458460       -0.82562715007187       -0.04320968767210
C            1.46781586210059        0.27669113053807        0.01679887822666
C            0.90965845848424        1.57015050586208       -0.04702903187752
O            1.71575189266878        2.64817912752597       -0.14538365454409
N           -0.45574674134702        1.65487120386200       -0.02174977376944
C           -3.85103225449396        1.22315653783936        0.10515922036063
C           -1.26403997462605        0.62092019106110        0.00318227408172
O           -2.57670827083232        0.49137875926181        0.06874725303155
N           -0.74670697847689       -0.69804460975533       -0.05349831266157
C           -1.54584315550504       -1.90896922436946       -0.07763407733694
H            3.93388896527544        1.47617894753789        0.46118317724481
H            4.83422211096866       -0.11023969119252        0.16734739910511
H            2.60968215225657        2.39711017571938       -0.41326963273763
H            3.48785170613654       -2.25991160463838       -0.03595413996877
H           -3.69710180688492        2.30072153008952        0.11001036498932
H           -4.39764303876361        0.91042381556011       -0.78047333791167
H           -4.34868867851669        0.89510408213797        1.01394838408281
H           -1.28957143144085       -2.53542749877022        0.77808506709595
H           -1.36281003037680       -2.45576825905490       -1.00413431101255
H           -2.59848127994260       -1.65578674052608       -0.02174548736612
H            1.02501455081126       -2.89424389259369       -0.15080687577997

          :  Hamiltonian                  GFN2-xTB          :
         :: total energy             -42.145804540352 Eh    ::
         :: gradient norm              0.003050756755 Eh/a0 ::
         :: HOMO-LUMO gap              1.423616306109 eV    ::
         :: SCC energy               -42.646361266853 Eh    ::
         :: -> dispersion             -0.022151377870 Eh    ::
         :: repulsion energy           0.500287565566 Eh    ::

    * Orbital Energies and Occupations

         #    Occupation            Energy/Eh            Energy/eV
      -------------------------------------------------------------
         1        2.0000           -0.8843052             -24.0632
       ...           ...                  ...                  ...
        25        2.0000           -0.6632236             -18.0472
        26        2.0000           -0.6554447             -17.8356
        27        2.0000           -0.6505351             -17.7020
        28        2.0000           -0.6392025             -17.3936
        29        2.0000           -0.6314831             -17.1835
        30        2.0000           -0.6260178             -17.0348
        31        1.9999           -0.6061771             -16.4949
        32        1.9998           -0.6000514             -16.3282
        33        1.9998           -0.5938897             -16.1606
        34        1.9994           -0.5784824             -15.7413
        35        1.9973           -0.5551722             -15.1070
        36        1.9943           -0.5433087             -14.7842
        37        1.6654           -0.4760790             -12.9548 (HOMO)
        38        0.3091           -0.4237621             -11.5312 (LUMO)
        39        0.0298           -0.3843138             -10.4577
        40        0.0053           -0.3567885              -9.7087
        41        0.0000           -0.2800617              -7.6209
        42        0.0000           -0.2432671              -6.6196
        43                         -0.1661139              -4.5202
        44                         -0.1569473              -4.2708
        45                         -0.1404834              -3.8227
        46                         -0.1256281              -3.4185
        47                         -0.0520759              -1.4171
        48                         -0.0315289              -0.8579
       ...                                ...                  ...
        67                          0.4918944              13.3851
      -------------------------------------------------------------
                  HL-Gap            0.0523169 Eh            1.4236 eV

     #   Z          covCN         q      C6AA      α(0)
     1   6 C        2.789    -0.124    31.127     9.139
     2   7 N        2.798     0.099    19.526     6.563
     3   6 C        3.041    -0.004    28.090     8.693
     4   7 N        2.768    -0.071    22.607     7.062
     5   6 C        3.041     0.110    25.541     8.289
     6   6 C        3.083    -0.034    28.754     8.791
     7   6 C        2.781     0.230    23.173     7.885
     8   8 O        1.659    -0.323    19.417     5.949
     9   7 N        1.834    -0.251    27.377     7.754
    10   6 C        3.616     0.011    20.864     6.590
    11   6 C        2.726     0.296    21.974     7.674
    12   8 O        1.704    -0.225    17.740     5.687
    13   7 N        2.743    -0.051    22.226     7.002
    14   6 C        3.699    -0.074    22.087     6.722
    15   1 H        0.926     0.076     2.024     2.225
    16   1 H        0.926     0.080     1.982     2.202
    17   1 H        0.805     0.345     0.599     1.216
    18   1 H        0.927     0.101     1.778     2.085
    19   1 H        0.925     0.098     1.803     2.100
    20   1 H        0.925     0.107     1.725     2.054
    21   1 H        0.925     0.108     1.712     2.046
    22   1 H        0.924     0.084     1.943     2.180
    23   1 H        0.924     0.084     1.937     2.176
    24   1 H        0.925     0.113     1.669     2.020
    25   1 H        0.860     0.214     1.036     1.595

Wiberg/Mayer (AO) data.
largest (>0.10) Wiberg bond orders for each atom

     #   Z sym  total        # sym  WBO       # sym  WBO       # sym  WBO
 ---------------------------------------------------------------------------
     1   6 C    3.554 --     2 N    1.310    16 H    0.971    15 H    0.960
                             3 C    0.170
     2   7 N    3.728 --     1 C    1.310     3 C    1.246     6 C    1.072
     3   6 C    3.690 --     2 N    1.246     4 N    1.172    18 H    0.960
                             1 C    0.170
     4   7 N    3.551 --     5 C    1.254     3 C    1.172    25 H    0.925
     5   6 C    3.890 --     6 C    1.265     4 N    1.254    13 N    1.179
     6   6 C    3.892 --     5 C    1.265     7 C    1.256     2 N    1.072
     7   6 C    3.777 --     6 C    1.256     9 N    1.256     8 O    1.158
     8   8 O    2.177 --     7 C    1.158    17 H    0.842
     9   7 N    3.052 --    11 C    1.445     7 C    1.256    12 O    0.109
    10   6 C    3.863 --    19 H    0.980    20 H    0.969    21 H    0.968
                            12 O    0.899
    11   6 C    3.851 --     9 N    1.445    12 O    1.202    13 N    1.067
    12   8 O    2.334 --    11 C    1.202    10 C    0.899     9 N    0.109
    13   7 N    3.501 --     5 C    1.179    11 C    1.067    14 C    0.979
    14   6 C    3.935 --    13 N    0.979    22 H    0.969    23 H    0.969
                            24 H    0.969
    15   1 H    0.994 --     1 C    0.960
    16   1 H    0.992 --     1 C    0.971
    17   1 H    0.879 --     8 O    0.842
    18   1 H    0.989 --     3 C    0.960
    19   1 H    0.990 --    10 C    0.980
    20   1 H    0.985 --    10 C    0.969
    21   1 H    0.985 --    10 C    0.968
    22   1 H    0.988 --    14 C    0.969
    23   1 H    0.988 --    14 C    0.969
    24   1 H    0.987 --    14 C    0.969
    25   1 H    0.954 --     4 N    0.925
 ---------------------------------------------------------------------------

molecular dipole:
                 x           y           z       tot (Debye)
 q only:        0.230      -1.480      -0.173
   full:        0.492      -1.979      -0.184       5.204

           -------------------------------------------------
          | TOTAL ENERGY              -42.145804540352 Eh   |
          | GRADIENT NORM               0.003050756755 Eh/α |
          | HOMO-LUMO GAP               1.423616306109 eV   |
           -------------------------------------------------

 * finished run on 2024/06/05 at 19:59:16.748
