   * xtb version 6.6.1 (8d0f1dd) compiled by 'conda@1efc2f54142f' on 2023-08-01
          program call               : xtb xtbopt.xyz --opt crude --input .xc2 --gfn2

   ID    Z sym.   atoms
    1    6 C      1, 3, 5-7, 10, 11, 14
    2    7 N      2, 4, 9, 13
    3    8 O      8, 12
    4    1 H      15-25
########################################################################
[WARNING] Please study the warnings concerning your input carefully
-1- readin_getIntValue: could not parse ''
########################################################################

          :  Hamiltonian                  GFN2-xTB          :
 * total energy  :   -42.1460480 Eh     change       -0.4831691E-12 Eh
 * total energy  :   -42.1556594 Eh     change       -0.9611454E-02 Eh
 * total energy  :   -42.1634760 Eh     change       -0.7816539E-02 Eh
 * total energy  :   -42.1688718 Eh     change       -0.5395810E-02 Eh
 * total energy  :   -42.1732195 Eh     change       -0.4347762E-02 Eh
 * total energy  :   -42.1763500 Eh     change       -0.3130439E-02 Eh
 * total energy  :   -42.1778618 Eh     change       -0.1511802E-02 Eh
 * total energy  :   -42.1782915 Eh     change       -0.4297265E-03 Eh
   *** GEOMETRY OPTIMIZATION CONVERGED AFTER 8 ITERATIONS ***

 final structure:
================
25
 xtb: 6.6.1 (8d0f1dd)
C            3.76820183623985        0.58468374548550        0.12020554130188
N            2.69308624545244       -0.19177009844294        0.03834369527339
C            2.69392021377853       -1.54446057782533       -0.01928300596286
N            1.40514776306925       -2.01734482124106       -0.05991496440003
C            0.57157768760219       -0.96892656223609       -0.03441527370375
C            1.34807152183689        0.20802017552402        0.00932282418540
C            0.66849596507650        1.43887809341011       -0.01975527956234
O            1.18768070090788        2.64801658014469       -0.07762595953962
N           -0.67372067596975        1.40247194421339        0.00444266191994
C           -3.38931990695787        1.52834092295152        0.08782285794508
C           -1.36356289757032        0.30365752907067        0.01123473196160
O           -2.67143750899170        0.29674763178215        0.06480442805547
N           -0.79121328761931       -0.95592064564721       -0.04228585316684
C           -1.55672301176652       -2.18441719363264       -0.09630944983714
H            3.68452684971674        1.64225041465201        0.25113446170032
H            4.73295548086476        0.12061884016665        0.14260920401343
H            2.14763717245466        2.66675752431468       -0.17860793296755
H            3.56636869797285       -2.15876647582453       -0.01934250790616
H           -2.71953397912402        2.38348816283598        0.08683517920732
H           -4.02853364651333        1.55095136533085       -0.79338624165265
H           -4.00059792726314        1.53368610502423        0.98665195473202
H           -1.31881695635257       -2.81574177957894        0.76119069030333
H           -1.33956228192990       -2.72298424532783       -1.02056457007676
H           -2.61403130264562       -1.93648738628972       -0.07012857491813
H            1.15981476183043       -2.99351070725751       -0.10180699900504

          :  Hamiltonian                  GFN2-xTB          :
         :: total energy             -42.178291515080 Eh    ::
         :: gradient norm              0.007920433633 Eh/a0 ::
         :: HOMO-LUMO gap              1.525657008040 eV    ::
         :: SCC energy               -42.697084663450 Eh    ::
         :: -> dispersion             -0.022431931654 Eh    ::
         :: repulsion energy           0.518746186117 Eh    ::

    * Orbital Energies and Occupations

         #    Occupation            Energy/Eh            Energy/eV
      -------------------------------------------------------------
         1        2.0000           -0.8905894             -24.2342
       ...           ...                  ...                  ...
        25        2.0000           -0.6656229             -18.1125
        26        2.0000           -0.6537080             -17.7883
        27        2.0000           -0.6532466             -17.7757
        28        2.0000           -0.6453016             -17.5595
        29        2.0000           -0.6303605             -17.1530
        30        2.0000           -0.6301796             -17.1481
        31        1.9999           -0.6084295             -16.5562
        32        1.9998           -0.5981698             -16.2770
        33        1.9998           -0.5949947             -16.1906
        34        1.9995           -0.5796298             -15.7725
        35        1.9977           -0.5565206             -15.1437
        36        1.9965           -0.5495433             -14.9538
        37        1.6929           -0.4762129             -12.9584 (HOMO)
        38        0.2756           -0.4201461             -11.4328 (LUMO)
        39        0.0334           -0.3846373             -10.4665
        40        0.0050           -0.3543277              -9.6417
        41        0.0000           -0.2742025              -7.4614
        42        0.0000           -0.1899739              -5.1695
        43                         -0.1568964              -4.2694
        44                         -0.1392847              -3.7901
        45                         -0.1191921              -3.2434
        46                         -0.1069605              -2.9105
        47                         -0.0366709              -0.9979
        48                         -0.0329056              -0.8954
       ...                                ...                  ...
        67                          0.5060011              13.7690
      -------------------------------------------------------------
                  HL-Gap            0.0560669 Eh            1.5257 eV

     #   Z          covCN         q      C6AA      α(0)
     1   6 C        2.791    -0.118    30.973     9.116
     2   7 N        2.796     0.102    19.479     6.555
     3   6 C        3.039    -0.007    28.168     8.705
     4   7 N        2.766    -0.068    22.555     7.054
     5   6 C        3.051     0.106    25.605     8.299
     6   6 C        3.082    -0.037    28.838     8.804
     7   6 C        2.800     0.235    23.085     7.871
     8   8 O        1.663    -0.306    19.110     5.901
     9   7 N        1.842    -0.270    27.850     7.821
    10   6 C        3.648    -0.001    20.927     6.573
    11   6 C        2.789     0.292    22.058     7.693
    12   8 O        1.707    -0.197    17.290     5.614
    13   7 N        2.738    -0.047    22.144     6.989
    14   6 C        3.693    -0.072    22.073     6.722
    15   1 H        0.927     0.064     2.151     2.293
    16   1 H        0.926     0.081     1.972     2.196
    17   1 H        0.805     0.343     0.604     1.221
    18   1 H        0.927     0.101     1.780     2.086
    19   1 H        0.925     0.101     1.774     2.083
    20   1 H        0.925     0.098     1.805     2.101
    21   1 H        0.925     0.099     1.794     2.094
    22   1 H        0.924     0.086     1.915     2.164
    23   1 H        0.924     0.087     1.913     2.163
    24   1 H        0.925     0.114     1.660     2.015
    25   1 H        0.860     0.214     1.035     1.594

Wiberg/Mayer (AO) data.
largest (>0.10) Wiberg bond orders for each atom

     #   Z sym  total        # sym  WBO       # sym  WBO       # sym  WBO
 ---------------------------------------------------------------------------
     1   6 C    3.585 --     2 N    1.324    16 H    0.971    15 H    0.965
                             3 C    0.179
     2   7 N    3.730 --     1 C    1.324     3 C    1.239     6 C    1.071
     3   6 C    3.694 --     2 N    1.239     4 N    1.169    18 H    0.961
                             1 C    0.179
     4   7 N    3.556 --     5 C    1.264     3 C    1.169    25 H    0.925
     5   6 C    3.881 --     4 N    1.264     6 C    1.259    13 N    1.156
     6   6 C    3.891 --     5 C    1.259     7 C    1.250     2 N    1.071
     7   6 C    3.796 --     9 N    1.262     6 C    1.250     8 O    1.180
     8   8 O    2.214 --     7 C    1.180    17 H    0.847
     9   7 N    3.045 --    11 C    1.431     7 C    1.262
    10   6 C    3.878 --    19 H    0.973    21 H    0.970    20 H    0.970
                            12 O    0.927
    11   6 C    3.874 --     9 N    1.431    12 O    1.197    13 N    1.116
    12   8 O    2.342 --    11 C    1.197    10 C    0.927
    13   7 N    3.512 --     5 C    1.156    11 C    1.116    14 C    0.977
    14   6 C    3.932 --    13 N    0.977    24 H    0.970    22 H    0.969
                            23 H    0.969
    15   1 H    0.996 --     1 C    0.965
    16   1 H    0.992 --     1 C    0.971
    17   1 H    0.881 --     8 O    0.847
    18   1 H    0.989 --     3 C    0.961
    19   1 H    0.990 --    10 C    0.973
    20   1 H    0.987 --    10 C    0.970
    21   1 H    0.987 --    10 C    0.970
    22   1 H    0.988 --    14 C    0.969
    23   1 H    0.988 --    14 C    0.969
    24   1 H    0.986 --    14 C    0.970
    25   1 H    0.953 --     4 N    0.925
 ---------------------------------------------------------------------------

molecular dipole:
                 x           y           z       tot (Debye)
 q only:        0.666      -1.235      -0.098
   full:        1.074      -1.775      -0.110       5.280

           -------------------------------------------------
          | TOTAL ENERGY              -42.178291515080 Eh   |
          | GRADIENT NORM               0.007920433633 Eh/α |
          | HOMO-LUMO GAP               1.525657008040 eV   |
           -------------------------------------------------

 * finished run on 2024/06/05 at 19:59:17.106
