   * xtb version 6.6.1 (8d0f1dd) compiled by 'conda@1efc2f54142f' on 2023-08-01
          program call               : xtb struc.xyz --opt loose --input .xc1 --gfn2

   ID    Z sym.   atoms
    1    7 N      1, 17
    2    6 C      2-6, 8, 9, 11-16, 18-23, 25, 26, 28-33
    3    8 O      7, 10, 24, 27
    4    1 H      34-72
constraining bond 14 32 to    6.0000000 Å, actual value:    3.9127657 Å

          :  Hamiltonian                  GFN2-xTB          :
 * total energy  :   -98.6262555 Eh     change       -0.4035485E-08 Eh
 * total energy  :   -98.8649300 Eh     change       -0.2386745E+00 Eh
 * total energy  :   -98.9982121 Eh     change       -0.1332822E+00 Eh
 * total energy  :   -99.0792176 Eh     change       -0.8100544E-01 Eh
 * total energy  :   -99.1309247 Eh     change       -0.5170716E-01 Eh
 * total energy  :   -99.1613443 Eh     change       -0.3041957E-01 Eh
 * total energy  :   -99.1837389 Eh     change       -0.2239462E-01 Eh
 * total energy  :   -99.2028097 Eh     change       -0.1907073E-01 Eh
 * total energy  :   -99.2125045 Eh     change       -0.9694865E-02 Eh
 * total energy  :   -99.2173888 Eh     change       -0.4884301E-02 Eh
 * total energy  :   -99.3156649 Eh     change       -0.1673257E-03 Eh
 * total energy  :   -99.3158441 Eh     change       -0.1792905E-03 Eh
 * total energy  :   -99.3159910 Eh     change       -0.1468931E-03 Eh
 * total energy  :   -99.3161317 Eh     change       -0.1406524E-03 Eh
 * total energy  :   -99.3163095 Eh     change       -0.1777976E-03 Eh
 * total energy  :   -99.3164380 Eh     change       -0.1285335E-03 Eh
 * total energy  :   -99.3165134 Eh     change       -0.7537174E-04 Eh
 * total energy  :   -99.3165810 Eh     change       -0.6758008E-04 Eh
 * total energy  :   -99.3166222 Eh     change       -0.4121192E-04 Eh
   *** GEOMETRY OPTIMIZATION CONVERGED AFTER 46 ITERATIONS ***

 final structure:
================
72
 xtb: 6.6.1 (8d0f1dd)
N           -1.83583505794884        3.41346250801021        2.08553982560226
C           -2.11796660142254        2.21223319117416        1.73089387576820
C           -3.38422884424971        1.82864032241377        1.23598733995654
C           -3.62399515792343        0.46031972080317        0.87964058423782
C           -4.56372741646503        0.11411511159117       -0.11859308837797
C           -4.82775545686789       -1.19812163818435       -0.45289673921426
O           -5.69954346661542       -1.60342661417430       -1.39992499744499
C           -6.51484293574503       -0.64895447016407       -2.04101263362668
C           -4.14667211453307       -2.24980485166545        0.22527741756565
O           -4.48063476075642       -3.49923859655015       -0.15016267517294
C           -3.94327407274454       -4.59593841390590        0.55140739512580
C           -3.21384889355098       -1.91651270977891        1.20084303526632
C           -2.95171189416926       -0.59718301241928        1.51771838357656
C           -1.99930097692236        2.05177744931778       -2.62064935985796
C           -1.52187184271157        0.84008436415997       -1.93900907312405
C           -0.19086084232289        0.95806967680261       -1.31943531889195
N            0.44273175827327       -0.04976108826344       -0.73932764062797
C            1.80426386637005        0.09258886605857       -0.28072848253356
C            2.81003455302939       -0.45206154644759       -1.31452111414902
C            4.21944229911298       -0.21582306080417       -0.84792842580100
C            4.83530537463474        1.00637947606326       -1.06723853162287
C            6.12911649107553        1.23915298026775       -0.62872431880435
C            6.83546938885223        0.25137998407034        0.04318646747786
O            8.09289742095416        0.36248487081256        0.50758993590318
C            8.80154785153076        1.56250824567309        0.29791899751650
C            6.21073707395212       -1.00555984522141        0.27668195293076
O            6.96895083358412       -1.90714313358401        0.93031415202403
C            6.45633220278432       -3.19508304870820        1.17499443812471
C            4.91436926163524       -1.21334962920551       -0.16857816078406
C           -0.14013685253889       -1.36721944555770       -0.70812665968452
C           -4.47316062980442        2.85774155703550        1.10875472534069
C           -4.81501359800892        3.42849333783447        2.49180370135197
C           -4.07087981251883        3.98563159938308        0.15540216052045
H           -5.06837115699363        0.90317602741333       -0.65101942578496
H           -7.11977572894147       -0.08976334965961       -1.32059907856531
H           -7.17067569610365       -1.21892901502236       -2.69524322570712
H           -5.92335330882446        0.04924401194250       -2.64031816131471
H           -4.17757611794668       -4.54199867773533        1.61785680816646
H           -4.41647457979905       -5.47600192833752        0.12176047902360
H           -2.85899278166238       -4.66632861138205        0.41860442509396
H           -2.70110107646587       -2.69462534657691        1.74453438790746
H           -2.26135898892104       -0.38933567380606        2.31925609840507
H           -2.91700216270231        2.01700292567006       -3.17159490588076
H           -1.47637328523709        2.98303525720450       -2.54518949047984
H           -2.25885686598615        0.54921843031148       -1.16056220209131
H           -1.53810242767481       -0.01484186079784       -2.63720694768951
H           -1.35327973307702        1.42325533543500        1.75060787383072
H            0.30467410243961        1.91590043032102       -1.31873310282677
H            1.92307429895138       -0.44714489670029        0.66263757217841
H            2.01433037596033        1.14845400507007       -0.10119525744492
H            2.64429490128137        0.06087169460609       -2.26376699416407
H            2.63991934655227       -1.51892426964929       -1.46388628831070
H            4.31207336011648        1.78709707400140       -1.59815118745628
H            6.58398425867373        2.19671456137822       -0.82192569094643
H            8.31123424726007        2.40835974424285        0.78915157398588
H            8.91947106170091        1.77644349619886       -0.76845687766349
H            9.78115777840222        1.40435037601144        0.74483101322452
H            7.25288493296692       -3.73415718516274        1.68416161575809
H            5.57388761898462       -3.15990911262069        1.82181979375039
H            6.20833160866611       -3.71188924288267        0.24277612196235
H            4.43576413512944       -2.16600499405798       -0.00298290274460
H           -0.24567963118163       -1.77669532821228       -1.71634198709973
H           -1.13116427562446       -1.33325366284630       -0.24796537906045
H            0.49417019681945       -2.03128923989543       -0.12688444077821
H           -5.37685559514451        2.37477952781299        0.72665933554520
H           -3.95045920004439        3.94408121048511        2.89773594079863
H           -5.10842948034905        2.63235804852999        3.17176001066531
H           -5.63838111412304        4.13172169147582        2.40267699314126
H           -3.20086990045380        4.50061106130552        0.55374908686602
H           -3.82644266984898        3.59110763149250       -0.82999446930388
H           -4.88579740231782        4.69642293347819        0.05525981950295
H           -0.89330059543457        3.59114428661248        2.41034673952827

          :  Hamiltonian                  GFN2-xTB          :
         :: total energy             -99.316622189364 Eh    ::
         :: gradient norm              0.003332639109 Eh/a0 ::
         :: HOMO-LUMO gap              0.051645498367 eV    ::
         :: SCC energy              -100.707435971185 Eh    ::
         :: -> dispersion             -0.071098752807 Eh    ::
         :: repulsion energy           1.389338316943 Eh    ::

    * Orbital Energies and Occupations

         #    Occupation            Energy/Eh            Energy/eV
      -------------------------------------------------------------
         1        2.0000           -0.8152538             -22.1842
       ...           ...                  ...                  ...
        78        1.9982           -0.5304915             -14.4354
        79        1.9981           -0.5300994             -14.4247
        80        1.9974           -0.5250807             -14.2882
        81        1.9968           -0.5216839             -14.1957
        82        1.9949           -0.5140858             -13.9890
        83        1.9935           -0.5104561             -13.8902
        84        1.9918           -0.5066545             -13.7868
        85        1.9860           -0.4981114             -13.5543
        86        1.9774           -0.4904463             -13.3457
        87        1.9239           -0.4708296             -12.8119
        88        1.8339           -0.4577008             -12.4547
        89        1.8324           -0.4575514             -12.4506
        90        1.1088           -0.4231375             -11.5142 (HOMO)
        91        1.0493           -0.4212395             -11.4625 (LUMO)
        92        0.3140           -0.3930660             -10.6959
        93        0.0048           -0.3240565              -8.8180
        94        0.0034           -0.3185021              -8.6669
        95        0.0026           -0.3142019              -8.5499
        96        0.0022           -0.3121336              -8.4936
        97        0.0001           -0.2617600              -7.1229
        98        0.0000           -0.1894716              -5.1558
        99        0.0000           -0.1866740              -5.0797
       100                         -0.1360151              -3.7012
       101                         -0.0693348              -1.8867
       ...                                ...                  ...
       171                          0.5755150              15.6606
      -------------------------------------------------------------
                  HL-Gap            0.0018979 Eh            0.0516 eV

     #   Z          covCN         q      C6AA      α(0)
     1   7 N        1.780    -0.292    28.400     7.892
     2   6 C        2.824     0.078    26.257     8.396
     3   6 C        2.964    -0.007    28.184     8.708
     4   6 C        2.968    -0.001    28.050     8.687
     5   6 C        2.919    -0.083    30.072     8.993
     6   6 C        2.858     0.130    25.156     8.221
     7   8 O        1.706    -0.234    17.874     5.708
     8   6 C        3.644     0.027    20.455     6.501
     9   6 C        2.863     0.128    25.187     8.226
    10   8 O        1.706    -0.224    17.723     5.684
    11   6 C        3.645     0.026    20.470     6.502
    12   6 C        2.910    -0.075    29.861     8.960
    13   6 C        2.921    -0.054    29.330     8.881
    14   6 C        2.837    -0.117    30.952     9.117
    15   6 C        3.803    -0.055    21.560     6.611
    16   6 C        2.850     0.005    27.903     8.657
    17   7 N        2.730     0.019    20.929     6.795
    18   6 C        3.754    -0.019    20.964     6.529
    19   6 C        3.808    -0.071    21.847     6.654
    20   6 C        2.968     0.000    28.017     8.682
    21   6 C        2.922    -0.048    29.201     8.862
    22   6 C        2.914    -0.067    29.666     8.931
    23   6 C        2.865     0.134    25.066     8.207
    24   8 O        1.706    -0.220    17.651     5.672
    25   6 C        3.645     0.024    20.500     6.507
    26   6 C        2.862     0.134    25.076     8.208
    27   8 O        1.706    -0.223    17.700     5.680
    28   6 C        3.645     0.027    20.463     6.502
    29   6 C        2.919    -0.079    29.973     8.978
    30   6 C        3.703    -0.074    22.074     6.718
    31   6 C        3.854    -0.005    20.625     6.459
    32   6 C        3.757    -0.112    22.691     6.792
    33   6 C        3.756    -0.113    22.719     6.796
    34   1 H        0.926     0.056     2.244     2.343
    35   1 H        0.924     0.055     2.262     2.352
    36   1 H        0.925     0.081     1.965     2.192
    37   1 H        0.924     0.048     2.343     2.394
    38   1 H        0.924     0.057     2.231     2.336
    39   1 H        0.925     0.083     1.951     2.184
    40   1 H        0.924     0.047     2.355     2.400
    41   1 H        0.926     0.050     2.323     2.383
    42   1 H        0.926     0.045     2.383     2.414
    43   1 H        0.926     0.056     2.252     2.347
    44   1 H        0.926     0.057     2.231     2.336
    45   1 H        0.921     0.103     1.755     2.072
    46   1 H        0.923     0.093     1.851     2.128
    47   1 H        0.923    -0.003     3.113     2.759
    48   1 H        0.926     0.080     1.976     2.198
    49   1 H        0.924     0.069     2.091     2.262
    50   1 H        0.924     0.072     2.063     2.246
    51   1 H        0.924     0.057     2.230     2.335
    52   1 H        0.924     0.055     2.256     2.349
    53   1 H        0.926     0.046     2.364     2.404
    54   1 H        0.926     0.060     2.202     2.321
    55   1 H        0.924     0.055     2.254     2.348
    56   1 H        0.924     0.057     2.237     2.339
    57   1 H        0.925     0.083     1.946     2.182
    58   1 H        0.925     0.083     1.952     2.185
    59   1 H        0.924     0.050     2.326     2.385
    60   1 H        0.924     0.053     2.283     2.363
    61   1 H        0.926     0.048     2.347     2.396
    62   1 H        0.924     0.077     2.008     2.216
    63   1 H        0.924     0.080     1.981     2.201
    64   1 H        0.925     0.082     1.962     2.190
    65   1 H        0.924     0.042     2.429     2.437
    66   1 H        0.925     0.072     2.059     2.244
    67   1 H        0.925     0.040     2.451     2.448
    68   1 H        0.925     0.053     2.284     2.363
    69   1 H        0.925     0.070     2.089     2.260
    70   1 H        0.925     0.031     2.570     2.507
    71   1 H        0.925     0.052     2.293     2.368
    72   1 H        0.860     0.144     1.444     1.882

Wiberg/Mayer (AO) data.
largest (>0.10) Wiberg bond orders for each atom

     #   Z sym  total        # sym  WBO       # sym  WBO       # sym  WBO
 ---------------------------------------------------------------------------
     1   7 N    2.714 --     2 C    1.671    72 H    0.949
     2   6 C    3.928 --     1 N    1.671     3 C    1.266    47 H    0.927
     3   6 C    3.595 --     2 C    1.266     4 C    1.200    31 C    1.012
     4   6 C    3.966 --    13 C    1.308     5 C    1.280     3 C    1.200
     5   6 C    3.908 --     6 C    1.433     4 C    1.280    34 H    0.956
     6   6 C    3.910 --     5 C    1.433     9 C    1.206     7 O    1.097
     7   8 O    2.253 --     6 C    1.097     8 C    0.977
     8   6 C    3.931 --     7 O    0.977    36 H    0.977    35 H    0.974
                            37 H    0.973
     9   6 C    3.840 --    12 C    1.360     6 C    1.206    10 O    1.109
    10   8 O    2.246 --     9 C    1.109    11 C    0.977
    11   6 C    3.931 --    10 O    0.977    39 H    0.977    40 H    0.973
                            38 H    0.973
    12   6 C    3.964 --    13 C    1.450     9 C    1.360    41 H    0.963
    13   6 C    3.876 --    12 C    1.450     4 C    1.308    42 H    0.964
    14   6 C    3.120 --    15 C    1.095    43 H    0.983    44 H    0.982
    15   6 C    3.982 --    14 C    1.095    16 C    1.071    46 H    0.902
                            45 H    0.865
    16   6 C    3.604 --    17 N    1.421    15 C    1.071    48 H    0.957
    17   7 N    3.490 --    16 C    1.421    30 C    1.002    18 C    0.987
    18   6 C    3.953 --    17 N    0.987    50 H    0.967    19 C    0.966
                            49 H    0.964
    19   6 C    3.977 --    20 C    1.008    52 H    0.972    51 H    0.970
                            18 C    0.966
    20   6 C    3.942 --    21 C    1.406    29 C    1.382    19 C    1.008
    21   6 C    3.948 --    22 C    1.419    20 C    1.406    53 H    0.968
    22   6 C    3.958 --    21 C    1.419    23 C    1.381    54 H    0.963
    23   6 C    3.893 --    22 C    1.381    26 C    1.218    24 O    1.113
    24   8 O    2.255 --    23 C    1.113    25 C    0.975
    25   6 C    3.927 --    57 H    0.977    24 O    0.975    56 H    0.972
                            55 H    0.972
    26   6 C    3.896 --    29 C    1.393    23 C    1.218    27 O    1.106
    27   8 O    2.255 --    26 C    1.106    28 C    0.978
    28   6 C    3.931 --    27 O    0.978    58 H    0.977    59 H    0.973
                            60 H    0.973
    29   6 C    3.958 --    26 C    1.393    20 C    1.382    61 H    0.962
    30   6 C    3.957 --    17 N    1.002    64 H    0.978    62 H    0.962
                            63 H    0.958
    31   6 C    3.970 --     3 C    1.012    33 C    0.984    32 C    0.975
                            65 H    0.955
    32   6 C    3.948 --    67 H    0.985    68 H    0.979    31 C    0.975
                            66 H    0.971
    33   6 C    3.955 --    31 C    0.984    70 H    0.984    71 H    0.980
                            69 H    0.972
    34   1 H    0.995 --     5 C    0.956
    35   1 H    0.994 --     8 C    0.974
    36   1 H    0.993 --     8 C    0.977
    37   1 H    0.994 --     8 C    0.973
    38   1 H    0.992 --    11 C    0.973
    39   1 H    0.992 --    11 C    0.977
    40   1 H    0.993 --    11 C    0.973
    41   1 H    0.995 --    12 C    0.963
    42   1 H    0.997 --    13 C    0.964
    43   1 H    0.996 --    14 C    0.983
    44   1 H    0.996 --    14 C    0.982
    45   1 H    0.939 --    15 C    0.865
    46   1 H    0.955 --    15 C    0.902
    47   1 H    0.968 --     2 C    0.927
    48   1 H    0.993 --    16 C    0.957
    49   1 H    0.991 --    18 C    0.964
    50   1 H    0.994 --    18 C    0.967
    51   1 H    0.995 --    19 C    0.970
    52   1 H    0.996 --    19 C    0.972
    53   1 H    0.997 --    21 C    0.968
    54   1 H    0.995 --    22 C    0.963
    55   1 H    0.991 --    25 C    0.972
    56   1 H    0.991 --    25 C    0.972
    57   1 H    0.992 --    25 C    0.977
    58   1 H    0.992 --    28 C    0.977
    59   1 H    0.993 --    28 C    0.973
    60   1 H    0.992 --    28 C    0.973
    61   1 H    0.996 --    29 C    0.962
    62   1 H    0.985 --    30 C    0.962
    63   1 H    0.987 --    30 C    0.958
    64   1 H    0.993 --    30 C    0.978
    65   1 H    0.989 --    31 C    0.955
    66   1 H    0.989 --    32 C    0.971
    67   1 H    0.996 --    32 C    0.985
    68   1 H    0.991 --    32 C    0.979
    69   1 H    0.990 --    33 C    0.972
    70   1 H    0.997 --    33 C    0.984
    71   1 H    0.992 --    33 C    0.980
    72   1 H    0.968 --     1 N    0.949
 ---------------------------------------------------------------------------

molecular dipole:
                 x           y           z       tot (Debye)
 q only:        0.776      -0.611      -0.914
   full:        0.890      -0.876      -0.813       3.787

           -------------------------------------------------
          | TOTAL ENERGY              -99.316622189364 Eh   |
          | GRADIENT NORM               0.003332639109 Eh/α |
          | HOMO-LUMO GAP               0.051645498367 eV   |
           -------------------------------------------------

 * finished run on 2024/04/06 at 11:13:09.830
