   * xtb version 6.6.1 (8d0f1dd) compiled by 'conda@1efc2f54142f' on 2023-08-01
          program call               : xtb struc.xyz --opt loose --input .xc1 --gfn2

   ID    Z sym.   atoms
    1    7 N      1, 17
    2    6 C      2-6, 8, 9, 11-16, 18-23, 25, 26, 28-33
    3    8 O      7, 10, 24, 27
    4    1 H      34-72
constraining bond 13 34 to    3.7133300 Å, actual value:    3.3658249 Å

          :  Hamiltonian                  GFN2-xTB          :
 * total energy  :   -99.4256930 Eh     change       -0.4035485E-08 Eh
 * total energy  :   -99.4624719 Eh     change       -0.3677897E-01 Eh
 * total energy  :   -99.4891131 Eh     change       -0.2664119E-01 Eh
 * total energy  :   -99.5226557 Eh     change       -0.3354258E-01 Eh
 * total energy  :   -99.6059114 Eh     change       -0.8325568E-01 Eh
 * total energy  :   -99.7215856 Eh     change       -0.1156742E+00 Eh
 * total energy  :   -99.8139264 Eh     change       -0.9234078E-01 Eh
 * total energy  :  -100.1159041 Eh     change       -0.3019777E+00 Eh
 * total energy  :  -100.1764331 Eh     change       -0.6052902E-01 Eh
 * total energy  :  -100.3052920 Eh     change       -0.1288589E+00 Eh
 * total energy  :  -100.7355059 Eh     change       -0.1741807E-03 Eh
 * total energy  :  -100.7356027 Eh     change       -0.9681632E-04 Eh
 * total energy  :  -100.7357146 Eh     change       -0.1119688E-03 Eh
 * total energy  :  -100.7357826 Eh     change       -0.6794039E-04 Eh
 * total energy  :  -100.7358560 Eh     change       -0.7342913E-04 Eh
 * total energy  :  -100.7359079 Eh     change       -0.5186511E-04 Eh
 * total energy  :  -100.7359584 Eh     change       -0.5053769E-04 Eh
 * total energy  :  -100.7360183 Eh     change       -0.5986782E-04 Eh
 * total energy  :  -100.7360536 Eh     change       -0.3533920E-04 Eh
   *** GEOMETRY OPTIMIZATION CONVERGED AFTER 68 ITERATIONS ***

 final structure:
================
72
 xtb: 6.6.1 (8d0f1dd)
N           -1.43767948695792        1.41949545402093        1.89775338156627
C           -1.75185296712258        2.10547016373844        0.88509915414050
C           -3.00271585266733        1.90979172981183        0.07212923554855
C           -3.71071325977545        0.58889775687994        0.26554854250931
C           -4.32207401544511       -0.02683125932284       -0.75640446670679
C           -4.73875426563339       -1.32559489379156       -0.78995634831663
O           -5.59706198422805       -1.87191499913496       -1.64606537108775
C           -6.30117054551392       -0.97307472694280       -2.47683153961418
C           -4.13787555769972       -2.20897698376882        0.21493340271554
O           -4.13042940550570       -3.52168315647503       -0.09286346736707
C           -3.74349146540333       -4.44006922091594        0.90350751947526
C           -3.77775602873680       -1.62164709867223        1.37760930049523
C           -3.77683701933075       -0.12669348582078        1.60365495643450
C           -2.60183379436041        2.02397590088723       -1.41615900686774
C           -1.60044317928079        0.93405317476833       -1.83253087190515
C           -0.31611377956552        1.04661872209637       -1.11007787492129
N            0.26202117045229        0.08907419327885       -0.39721868342824
C            1.64582729101416        0.21694977813980       -0.00621341359264
C            2.57894332523990       -0.43097541359141       -1.04862206708690
C            4.02121370898668       -0.19496140159718       -0.69831297398407
C            4.60826689642145        1.03778610392907       -0.93668330893853
C            5.93804007095023        1.26500961784838       -0.61956193178766
C            6.71198811045735        0.25956599334520       -0.05796510234334
O            8.01277588260090        0.36296928606707        0.27476256946427
C            8.69452606292568        1.56823811022023        0.01456593711729
C            6.11761731241557       -1.00662193629294        0.19600196850482
O            6.93985682470402       -1.92806832731807        0.73736057152954
C            6.45552662123766       -3.22798394384112        0.97589315272509
C            4.78344167466154       -1.20764988268051       -0.12250334834382
C           -0.39190916967810       -1.16824716636167       -0.13165985303115
C           -4.00274646055471        3.07681473289113        0.40509177852672
C           -4.68863310290337        2.87901941502256        1.75574929631526
C           -3.35899816432826        4.46381313340356        0.38471460410214
H           -4.36628687630741        0.09176381964373        2.07426354720332
H           -7.05311893193601       -0.42470601544356       -1.90325180153805
H           -6.78673064531003       -1.57208934898476       -3.24342643425326
H           -5.61035527678036       -0.25489670685838       -2.92991200702600
H           -4.41176341239631       -4.39459845758356        1.76794164410054
H           -3.81322723267100       -5.42341962750086        0.44341864311584
H           -2.71386500086550       -4.25938220861269        1.22977651115104
H           -3.51938435934718       -2.21187167108763        2.24210835676154
H           -2.80195472327243        0.13347137053084        2.06859927533678
H           -3.49935664433082        1.92293337126063       -2.02594870720930
H           -2.16134406889362        3.00069058432088       -1.61111222948732
H           -2.05588342536977       -0.04446277040350       -1.69881608519135
H           -1.39987073368763        1.07260465188370       -2.90140676534965
H           -1.15889372064809        2.95958511184682        0.54104816462765
H            0.26597011418528        1.94279244176499       -1.26510576121834
H            1.79325274559630       -0.25929517666982        0.96542944958078
H            1.89937024467940        1.27483645255301        0.08827252407605
H            2.36110797851876        0.00874005461182       -2.02448540746844
H            2.37651637276457       -1.50113003541154       -1.10073142944017
H            4.03407343527858        1.83199034263504       -1.38955182347162
H            6.36773679674061        2.23207217230196       -0.82309867948982
H            8.27199612641677        2.39966324510667        0.58705369182569
H            8.68111134164281        1.81379218763862       -1.05155664602094
H            9.72118296891774        1.39715700391108        0.33235302586250
H            7.30093567144525       -3.78615961181827        1.37342196567477
H            5.64572196470205       -3.22621045293827        1.71257192719340
H            6.11037615757783       -3.70327850070623        0.05243771438934
H            4.32576588434213       -2.16716942081470        0.06031782860896
H           -0.41957875263487       -1.80004670738631       -1.02284704138065
H           -1.41284866633238       -0.99599440214528        0.20889304300885
H            0.15033329965063       -1.69336595732264        0.65088739882265
H           -4.76797643396576        3.04229592524249       -0.37778629922196
H           -3.95693602134666        2.69841103663857        2.53963593381252
H           -5.39437673990173        2.05481223936530        1.72607028618013
H           -5.24466737351920        3.77756023239289        2.01129974752153
H           -2.70147280824130        4.60120165927322        1.23982603467763
H           -2.79993683511088        4.65393845507134       -0.52710927352236
H           -4.14337799844968        5.21442972635089        0.44623014097418
H           -0.58668427153144        1.69092514002022        2.38080863753981

          :  Hamiltonian                  GFN2-xTB          :
         :: total energy            -100.736053627826 Eh    ::
         :: gradient norm              0.002408026818 Eh/a0 ::
         :: HOMO-LUMO gap              1.062191096042 eV    ::
         :: SCC energy              -100.700752221195 Eh    ::
         :: -> dispersion             -0.076387769512 Eh    ::
         :: repulsion energy           1.494052643196 Eh    ::

    * Orbital Energies and Occupations

         #    Occupation            Energy/Eh            Energy/eV
      -------------------------------------------------------------
         1        2.0000           -0.8153680             -22.1873
       ...           ...                  ...                  ...
        78        1.9992           -0.5367844             -14.6066
        79        1.9989           -0.5304186             -14.4334
        80        1.9985           -0.5264044             -14.3242
        81        1.9983           -0.5238753             -14.2554
        82        1.9980           -0.5212246             -14.1832
        83        1.9975           -0.5179166             -14.0932
        84        1.9973           -0.5166966             -14.0600
        85        1.9895           -0.4951503             -13.4737
        86        1.9802           -0.4850490             -13.1989
        87        1.9727           -0.4798928             -13.0585
        88        1.9571           -0.4725718             -12.8593
        89        1.8538           -0.4523068             -12.3079
        90        1.5840           -0.4332592             -11.7896 (HOMO)
        91        0.4889           -0.3942244             -10.7274 (LUMO)
        92        0.1675           -0.3742126             -10.1828
        93        0.0168           -0.3365720              -9.1586
        94        0.0029           -0.3084636              -8.3937
        95        0.0026           -0.3067377              -8.3468
        96        0.0016           -0.2996168              -8.1530
        97        0.0000           -0.2277456              -6.1973
        98        0.0000           -0.1836620              -4.9977
        99                         -0.1272533              -3.4627
       100                         -0.0672776              -1.8307
       101                         -0.0660081              -1.7962
       ...                                ...                  ...
       171                          1.1477207              31.2311
      -------------------------------------------------------------
                  HL-Gap            0.0390348 Eh            1.0622 eV

     #   Z          covCN         q      C6AA      α(0)
     1   7 N        1.773    -0.318    29.070     7.984
     2   6 C        2.825     0.094    25.897     8.339
     3   6 C        3.906     0.007    20.399     6.420
     4   6 C        2.963     0.016    27.663     8.627
     5   6 C        1.996    -0.146    35.180     9.579
     6   6 C        2.888     0.149    24.772     8.160
     7   8 O        1.705    -0.203    17.384     5.629
     8   6 C        3.664     0.023    20.448     6.486
     9   6 C        2.859     0.124    25.266     8.239
    10   8 O        1.705    -0.240    17.979     5.725
    11   6 C        3.648     0.026    20.455     6.498
    12   6 C        2.908    -0.089    30.232     9.016
    13   6 C        3.818    -0.115    22.678     6.777
    14   6 C        3.816    -0.068    21.785     6.643
    15   6 C        3.803    -0.071    21.852     6.655
    16   6 C        2.847     0.004    27.927     8.661
    17   7 N        2.729     0.016    20.983     6.803
    18   6 C        3.756    -0.017    20.937     6.524
    19   6 C        3.808    -0.070    21.835     6.652
    20   6 C        2.968    -0.000    28.037     8.685
    21   6 C        2.922    -0.050    29.235     8.867
    22   6 C        2.914    -0.068    29.692     8.935
    23   6 C        2.865     0.133    25.094     8.211
    24   8 O        1.706    -0.224    17.710     5.682
    25   6 C        3.645     0.026    20.478     6.504
    26   6 C        2.863     0.133    25.095     8.211
    27   8 O        1.706    -0.226    17.746     5.688
    28   6 C        3.645     0.027    20.451     6.500
    29   6 C        2.920    -0.079    29.973     8.978
    30   6 C        3.700    -0.073    22.057     6.716
    31   6 C        3.853    -0.009    20.704     6.472
    32   6 C        3.756    -0.114    22.731     6.798
    33   6 C        3.755    -0.112    22.688     6.792
    34   1 H        0.930     0.128     1.549     1.946
    35   1 H        0.924     0.062     2.171     2.304
    36   1 H        0.925     0.081     1.972     2.196
    37   1 H        0.924     0.060     2.195     2.317
    38   1 H        0.924     0.054     2.267     2.355
    39   1 H        0.925     0.080     1.982     2.201
    40   1 H        0.924     0.044     2.401     2.423
    41   1 H        0.926     0.058     2.222     2.331
    42   1 H        0.921     0.129     1.540     1.941
    43   1 H        0.925     0.067     2.121     2.277
    44   1 H        0.925     0.052     2.300     2.372
    45   1 H        0.925     0.069     2.101     2.267
    46   1 H        0.924     0.078     2.002     2.213
    47   1 H        0.924     0.016     2.788     2.611
    48   1 H        0.926     0.065     2.141     2.288
    49   1 H        0.924     0.068     2.107     2.270
    50   1 H        0.924     0.067     2.117     2.275
    51   1 H        0.924     0.055     2.264     2.353
    52   1 H        0.924     0.054     2.266     2.354
    53   1 H        0.926     0.042     2.423     2.434
    54   1 H        0.926     0.057     2.234     2.337
    55   1 H        0.924     0.053     2.277     2.360
    56   1 H        0.924     0.055     2.263     2.353
    57   1 H        0.925     0.082     1.963     2.191
    58   1 H        0.925     0.081     1.967     2.193
    59   1 H        0.924     0.049     2.331     2.388
    60   1 H        0.924     0.052     2.297     2.370
    61   1 H        0.926     0.048     2.342     2.393
    62   1 H        0.924     0.075     2.032     2.229
    63   1 H        0.925     0.088     1.903     2.157
    64   1 H        0.925     0.078     1.995     2.209
    65   1 H        0.924     0.046     2.370     2.407
    66   1 H        0.925     0.046     2.369     2.407
    67   1 H        0.925     0.042     2.423     2.434
    68   1 H        0.925     0.053     2.280     2.361
    69   1 H        0.925     0.043     2.411     2.428
    70   1 H        0.925     0.037     2.483     2.464
    71   1 H        0.925     0.053     2.280     2.361
    72   1 H        0.860     0.146     1.426     1.871

Wiberg/Mayer (AO) data.
largest (>0.10) Wiberg bond orders for each atom

     #   Z sym  total        # sym  WBO       # sym  WBO       # sym  WBO
 ---------------------------------------------------------------------------
     1   7 N    3.002 --     2 C    1.875    72 H    0.945
     2   6 C    3.908 --     1 N    1.875     3 C    0.998    47 H    0.936
     3   6 C    3.975 --     2 C    0.998     4 C    0.996    14 C    0.966
                            31 C    0.908
     4   6 C    3.845 --     5 C    1.684     3 C    0.996    13 C    0.987
     5   6 C    3.393 --     4 C    1.684     6 C    1.443
     6   6 C    3.786 --     5 C    1.443     7 O    1.149     9 C    1.042
     7   8 O    2.296 --     6 C    1.149     8 C    0.968
     8   6 C    3.921 --    36 H    0.978    35 H    0.972    37 H    0.970
                             7 O    0.968
     9   6 C    3.894 --    12 C    1.635    10 O    1.088     6 C    1.042
    10   8 O    2.250 --     9 C    1.088    11 C    0.975    12 C    0.114
    11   6 C    3.932 --    39 H    0.977    40 H    0.975    10 O    0.975
                            38 H    0.975
    12   6 C    3.883 --     9 C    1.635    13 C    1.032    41 H    0.956
                            10 O    0.114
    13   6 C    3.924 --    12 C    1.032     4 C    0.987    34 H    0.930
                            42 H    0.865
    14   6 C    3.961 --    15 C    0.975    44 H    0.969     3 C    0.966
                            43 H    0.965
    15   6 C    3.985 --    16 C    1.059    14 C    0.975    45 H    0.962
                            46 H    0.934
    16   6 C    3.574 --    17 N    1.405    15 C    1.059    48 H    0.959
    17   7 N    3.466 --    16 C    1.405    30 C    0.999    18 C    0.989
    18   6 C    3.955 --    17 N    0.989    50 H    0.966    49 H    0.966
                            19 C    0.966
    19   6 C    3.975 --    20 C    1.009    52 H    0.974    51 H    0.969
                            18 C    0.966
    20   6 C    3.947 --    21 C    1.407    29 C    1.383    19 C    1.009
    21   6 C    3.951 --    22 C    1.419    20 C    1.407    53 H    0.968
    22   6 C    3.961 --    21 C    1.419    23 C    1.383    54 H    0.963
    23   6 C    3.897 --    22 C    1.383    26 C    1.223    24 O    1.108
    24   8 O    2.254 --    23 C    1.108    25 C    0.976
    25   6 C    3.929 --    57 H    0.977    24 O    0.976    56 H    0.973
                            55 H    0.973
    26   6 C    3.901 --    29 C    1.393    23 C    1.223    27 O    1.102
    27   8 O    2.254 --    26 C    1.102    28 C    0.979
    28   6 C    3.932 --    27 O    0.979    58 H    0.977    60 H    0.973
                            59 H    0.973
    29   6 C    3.960 --    26 C    1.393    20 C    1.383    61 H    0.962
    30   6 C    3.956 --    17 N    0.999    64 H    0.977    62 H    0.964
                            63 H    0.962
    31   6 C    3.976 --    32 C    1.010    33 C    1.009    65 H    0.964
                             3 C    0.908
    32   6 C    3.990 --    31 C    1.010    66 H    0.984    67 H    0.983
                            68 H    0.981
    33   6 C    3.990 --    31 C    1.009    69 H    0.984    71 H    0.981
                            70 H    0.979
    34   1 H    0.971 --    13 C    0.930
    35   1 H    0.991 --     8 C    0.972
    36   1 H    0.992 --     8 C    0.978
    37   1 H    0.994 --     8 C    0.970
    38   1 H    0.995 --    11 C    0.975
    39   1 H    0.993 --    11 C    0.977
    40   1 H    0.996 --    11 C    0.975
    41   1 H    0.992 --    12 C    0.956
    42   1 H    0.972 --    13 C    0.865
    43   1 H    0.993 --    14 C    0.965
    44   1 H    0.996 --    14 C    0.969
    45   1 H    0.995 --    15 C    0.962
    46   1 H    0.973 --    15 C    0.934
    47   1 H    0.989 --     2 C    0.936
    48   1 H    0.995 --    16 C    0.959
    49   1 H    0.992 --    18 C    0.966
    50   1 H    0.993 --    18 C    0.966
    51   1 H    0.995 --    19 C    0.969
    52   1 H    0.996 --    19 C    0.974
    53   1 H    0.998 --    21 C    0.968
    54   1 H    0.995 --    22 C    0.963
    55   1 H    0.992 --    25 C    0.973
    56   1 H    0.992 --    25 C    0.973
    57   1 H    0.993 --    25 C    0.977
    58   1 H    0.993 --    28 C    0.977
    59   1 H    0.993 --    28 C    0.973
    60   1 H    0.993 --    28 C    0.973
    61   1 H    0.996 --    29 C    0.962
    62   1 H    0.983 --    30 C    0.964
    63   1 H    0.986 --    30 C    0.962
    64   1 H    0.993 --    30 C    0.977
    65   1 H    0.996 --    31 C    0.964
    66   1 H    0.997 --    32 C    0.984
    67   1 H    0.998 --    32 C    0.983
    68   1 H    0.996 --    32 C    0.981
    69   1 H    0.997 --    33 C    0.984
    70   1 H    0.998 --    33 C    0.979
    71   1 H    0.994 --    33 C    0.981
    72   1 H    0.975 --     1 N    0.945
 ---------------------------------------------------------------------------

molecular dipole:
                 x           y           z       tot (Debye)
 q only:       -0.147       0.093      -0.338
   full:       -0.020       0.406      -0.293       1.273

           -------------------------------------------------
          | TOTAL ENERGY             -100.736053627826 Eh   |
          | GRADIENT NORM               0.002408026818 Eh/α |
          | HOMO-LUMO GAP               1.062191096042 eV   |
           -------------------------------------------------

 * finished run on 2024/04/06 at 11:16:31.978
