   * xtb version 6.6.1 (8d0f1dd) compiled by 'conda@1efc2f54142f' on 2023-08-01
          program call               : xtb xtbopt.xyz --opt crude --input .xc2 --gfn2

   ID    Z sym.   atoms
    1    7 N      1, 17
    2    6 C      2-6, 8, 9, 11-16, 18-23, 25, 26, 28-33
    3    8 O      7, 10, 24, 27
    4    1 H      34-72
########################################################################
[WARNING] Please study the warnings concerning your input carefully
-1- readin_getIntValue: could not parse ''
########################################################################

          :  Hamiltonian                  GFN2-xTB          :
 * total energy  :   -99.2052203 Eh     change       -0.1989520E-11 Eh
 * total energy  :   -99.3150620 Eh     change       -0.1098417E+00 Eh
 * total energy  :   -99.3164031 Eh     change       -0.1341112E-02 Eh
 * total energy  :   -99.3172708 Eh     change       -0.8677156E-03 Eh
 * total energy  :   -99.3173406 Eh     change       -0.6972266E-04 Eh
   *** GEOMETRY OPTIMIZATION CONVERGED AFTER 5 ITERATIONS ***

 final structure:
================
72
 xtb: 6.6.1 (8d0f1dd)
N           -1.41337704439563        1.43628716733691        1.88693049460325
C           -1.74675814530712        2.11921566241339        0.87849789556234
C           -2.99948768108083        1.91180437780225        0.07129930000486
C           -3.69896384097593        0.58550804023577        0.26780269020776
C           -4.32520680978746       -0.02403951152218       -0.75247857324016
C           -4.73689466042174       -1.32673654454457       -0.78585896133051
O           -5.59702127378507       -1.87112215202471       -1.64329296292177
C           -6.30280635209829       -0.97274302872495       -2.47231306988448
C           -4.13289341568600       -2.21669299309881        0.20766851990925
O           -4.15140365232624       -3.53089004014323       -0.09570923814831
C           -3.76000200776919       -4.45052436609341        0.89844758889210
C           -3.74222773477088       -1.63568922306538        1.36609606828507
C           -3.71288479439578       -0.15636527841168        1.57543026311903
C           -2.60088240526950        2.02581724301515       -1.41837134102809
C           -1.59581359677816        0.93884432465587       -1.83330708867346
C           -0.31529100276045        1.05120119589866       -1.10434854581408
N            0.26572801350299        0.08754233561177       -0.40210810754529
C            1.64864162928578        0.21536072055678       -0.00856906081913
C            2.58136441058837       -0.43259164798019       -1.05121886205600
C            4.02345374301399       -0.19693777523437       -0.70116029482922
C            4.61063321091241        1.03522932366450       -0.94165033843963
C            5.93992996014692        1.26321960635673       -0.62300518722892
C            6.71264595502362        0.25881507318574       -0.05798015503779
O            8.01254655560353        0.36283980099859        0.27756443273763
C            8.69372994241284        1.56880664344202        0.01937856509880
C            6.11827060779774       -1.00730769811186        0.19696393699933
O            6.94016265068929       -1.92767766453048        0.74024233649847
C            6.45564775051410       -3.22724877004256        0.98043240429373
C            4.78451165765465       -1.20892135378411       -0.12260620013604
C           -0.38426959814641       -1.17326714124448       -0.14545827974842
C           -4.00371975754065        3.07703818301859        0.40115095606826
C           -4.68989383517827        2.87937321002411        1.75075684011699
C           -3.36439294005990        4.46626911836826        0.38148462004311
H           -4.53873852094393        0.12934126572485        2.23478283024412
H           -7.05575265256005       -0.42598746355664       -1.89823908605745
H           -6.78807394700385       -1.57203134729630       -3.23920631395737
H           -5.61378785275814       -0.25291837569719       -2.92552469260080
H           -4.42406232684040       -4.40376931206838        1.76609734221928
H           -3.83372948675551       -5.43357646446875        0.43841199475977
H           -2.72868713131120       -4.27158750906168        1.21949177581279
H           -3.47388306247051       -2.23171646773958        2.22350938121238
H           -2.79482211679071        0.13692369749135        2.10155000632837
H           -3.49839670194476        1.92103758294455       -2.02752420868255
H           -2.16390258328499        3.00395398301048       -1.61461817123398
H           -2.05029506559816       -0.04062101359185       -1.70367102282478
H           -1.39002687986559        1.08022344530369       -2.90075612010834
H           -1.16917645236762        2.98364827677408        0.53407701681537
H            0.26553414914060        1.94980348607265       -1.24963246710725
H            1.79488272788875       -0.26134124944396        0.96308253876695
H            1.90285037770063        1.27297390399889        0.08670827866217
H            2.36314437167457        0.00776416341160       -2.02678184374827
H            2.37844296766182       -1.50261081005394       -1.10382172029633
H            4.03677165491736        1.82812406007261       -1.39719609735365
H            6.36987280133269        2.22984078557476       -0.82801608659118
H            8.26655655674138        2.40035595693401        0.58825571592291
H            8.68567664257908        1.81274734363800       -1.04722738044512
H            9.71892958668707        1.39991678551828        0.34304255409993
H            7.30017773430246       -3.78412811090922        1.38158765914951
H            5.64370485096275       -3.22415546789319        1.71471707407859
H            6.11329594944893       -3.70470858050116        0.05700275991694
H            4.32620861807040       -2.16790111010855        0.06131974249551
H           -0.40989878290136       -1.79909159762883       -1.04123678706139
H           -1.40564438525133       -1.00697675790965        0.19710627522071
H            0.16007948134605       -1.70258966452016        0.63298028793751
H           -4.76782192598013        3.03971285780000       -0.38241469796515
H           -3.95867837400064        2.68680085163782        2.53241680650469
H           -5.40183695141068        2.06053979964745        1.71495604415283
H           -5.23875824738756        3.78048066084967        2.01305242706414
H           -2.71098245501912        4.60633110551600        1.23948476864287
H           -2.80219577215140        4.65803425012246       -0.52804622603894
H           -4.15136903602707        5.21435021741935        0.43989539828839
H           -0.56216770145781        1.72252950745539        2.36093844082102

          :  Hamiltonian                  GFN2-xTB          :
         :: total energy             -99.317340558138 Eh    ::
         :: gradient norm              0.002552759170 Eh/a0 ::
         :: HOMO-LUMO gap              1.051063542977 eV    ::
         :: SCC energy              -100.675371996223 Eh    ::
         :: -> dispersion             -0.076339805557 Eh    ::
         :: repulsion energy           1.356557247698 Eh    ::

    * Orbital Energies and Occupations

         #    Occupation            Energy/Eh            Energy/eV
      -------------------------------------------------------------
         1        2.0000           -0.8150505             -22.1787
       ...           ...                  ...                  ...
        78        1.9992           -0.5368422             -14.6082
        79        1.9989           -0.5304228             -14.4335
        80        1.9985           -0.5263799             -14.3235
        81        1.9983           -0.5238107             -14.2536
        82        1.9979           -0.5210599             -14.1788
        83        1.9975           -0.5177237             -14.0880
        84        1.9973           -0.5167520             -14.0615
        85        1.9884           -0.4936598             -13.4332
        86        1.9802           -0.4850938             -13.2001
        87        1.9713           -0.4791594             -13.0386
        88        1.9560           -0.4722666             -12.8510
        89        1.8533           -0.4523356             -12.3087
        90        1.5739           -0.4328694             -11.7790 (HOMO)
        91        0.4873           -0.3942435             -10.7279 (LUMO)
        92        0.1849           -0.3760100             -10.2318
        93        0.0155           -0.3353562              -9.1255
        94        0.0029           -0.3084839              -8.3943
        95        0.0026           -0.3067615              -8.3474
        96        0.0017           -0.2999477              -8.1620
        97        0.0000           -0.2282908              -6.2121
        98        0.0000           -0.1836809              -4.9982
        99                         -0.1268135              -3.4508
       100                         -0.0665985              -1.8122
       101                         -0.0651331              -1.7724
       ...                                ...                  ...
       171                          0.5792940              15.7634
      -------------------------------------------------------------
                  HL-Gap            0.0386259 Eh            1.0511 eV

     #   Z          covCN         q      C6AA      α(0)
     1   7 N        1.773    -0.319    29.093     7.987
     2   6 C        2.825     0.094    25.893     8.338
     3   6 C        3.906     0.007    20.402     6.420
     4   6 C        2.963     0.020    27.564     8.611
     5   6 C        1.997    -0.146    35.166     9.577
     6   6 C        2.886     0.148    24.776     8.160
     7   8 O        1.705    -0.203    17.387     5.630
     8   6 C        3.663     0.023    20.450     6.487
     9   6 C        2.858     0.125    25.258     8.238
    10   8 O        1.705    -0.240    17.973     5.724
    11   6 C        3.648     0.026    20.454     6.498
    12   6 C        2.908    -0.084    30.115     8.998
    13   6 C        3.820    -0.087    22.144     6.697
    14   6 C        3.816    -0.068    21.781     6.642
    15   6 C        3.803    -0.070    21.844     6.654
    16   6 C        2.847     0.004    27.917     8.659
    17   7 N        2.729     0.016    20.974     6.802
    18   6 C        3.757    -0.017    20.935     6.524
    19   6 C        3.808    -0.070    21.834     6.652
    20   6 C        2.968    -0.000    28.035     8.685
    21   6 C        2.922    -0.050    29.234     8.867
    22   6 C        2.914    -0.068    29.691     8.935
    23   6 C        2.865     0.133    25.094     8.211
    24   8 O        1.706    -0.224    17.708     5.682
    25   6 C        3.645     0.026    20.478     6.504
    26   6 C        2.863     0.133    25.094     8.211
    27   8 O        1.706    -0.226    17.744     5.687
    28   6 C        3.645     0.027    20.451     6.500
    29   6 C        2.919    -0.079    29.973     8.978
    30   6 C        3.700    -0.072    22.050     6.715
    31   6 C        3.853    -0.009    20.707     6.472
    32   6 C        3.756    -0.113    22.716     6.796
    33   6 C        3.755    -0.111    22.686     6.791
    34   1 H        0.924     0.089     1.886     2.148
    35   1 H        0.924     0.062     2.172     2.305
    36   1 H        0.925     0.081     1.971     2.196
    37   1 H        0.924     0.060     2.195     2.317
    38   1 H        0.924     0.054     2.266     2.354
    39   1 H        0.925     0.080     1.980     2.200
    40   1 H        0.924     0.044     2.399     2.422
    41   1 H        0.926     0.058     2.218     2.329
    42   1 H        0.923     0.128     1.550     1.947
    43   1 H        0.925     0.067     2.119     2.277
    44   1 H        0.925     0.052     2.300     2.372
    45   1 H        0.925     0.068     2.105     2.269
    46   1 H        0.924     0.078     2.001     2.212
    47   1 H        0.924     0.016     2.792     2.613
    48   1 H        0.926     0.065     2.141     2.288
    49   1 H        0.924     0.068     2.106     2.269
    50   1 H        0.924     0.067     2.117     2.275
    51   1 H        0.924     0.054     2.265     2.353
    52   1 H        0.924     0.054     2.266     2.354
    53   1 H        0.926     0.042     2.423     2.434
    54   1 H        0.926     0.057     2.234     2.337
    55   1 H        0.924     0.053     2.277     2.360
    56   1 H        0.924     0.055     2.263     2.352
    57   1 H        0.925     0.082     1.963     2.191
    58   1 H        0.925     0.081     1.967     2.193
    59   1 H        0.924     0.049     2.331     2.388
    60   1 H        0.924     0.052     2.297     2.370
    61   1 H        0.926     0.048     2.342     2.393
    62   1 H        0.924     0.075     2.036     2.232
    63   1 H        0.925     0.088     1.898     2.155
    64   1 H        0.925     0.078     1.996     2.210
    65   1 H        0.924     0.046     2.367     2.406
    66   1 H        0.925     0.046     2.373     2.409
    67   1 H        0.925     0.041     2.432     2.439
    68   1 H        0.925     0.054     2.272     2.357
    69   1 H        0.925     0.043     2.408     2.427
    70   1 H        0.925     0.038     2.482     2.464
    71   1 H        0.925     0.053     2.278     2.360
    72   1 H        0.860     0.146     1.429     1.872

Wiberg/Mayer (AO) data.
largest (>0.10) Wiberg bond orders for each atom

     #   Z sym  total        # sym  WBO       # sym  WBO       # sym  WBO
 ---------------------------------------------------------------------------
     1   7 N    2.994 --     2 C    1.876    72 H    0.946
     2   6 C    3.910 --     1 N    1.876     3 C    0.998    47 H    0.936
     3   6 C    3.975 --     2 C    0.998     4 C    0.995    14 C    0.966
                            31 C    0.908
     4   6 C    3.839 --     5 C    1.671    13 C    0.999     3 C    0.995
     5   6 C    3.372 --     4 C    1.671     6 C    1.434
     6   6 C    3.781 --     5 C    1.434     7 O    1.148     9 C    1.049
     7   8 O    2.294 --     6 C    1.148     8 C    0.969
     8   6 C    3.921 --    36 H    0.978    35 H    0.972    37 H    0.969
                             7 O    0.969
     9   6 C    3.892 --    12 C    1.624    10 O    1.088     6 C    1.049
    10   8 O    2.249 --     9 C    1.088    11 C    0.975    12 C    0.112
    11   6 C    3.932 --    39 H    0.977    40 H    0.975    10 O    0.975
                            38 H    0.975
    12   6 C    3.880 --     9 C    1.624    13 C    1.045    41 H    0.956
                            10 O    0.112
    13   6 C    3.933 --    12 C    1.045     4 C    0.999    34 H    0.906
                            42 H    0.881
    14   6 C    3.961 --    15 C    0.976    44 H    0.969     3 C    0.966
                            43 H    0.965
    15   6 C    3.985 --    16 C    1.059    14 C    0.976    45 H    0.962
                            46 H    0.934
    16   6 C    3.576 --    17 N    1.406    15 C    1.059    48 H    0.959
    17   7 N    3.468 --    16 C    1.406    30 C    0.999    18 C    0.989
    18   6 C    3.955 --    17 N    0.989    50 H    0.966    49 H    0.966
                            19 C    0.965
    19   6 C    3.975 --    20 C    1.009    52 H    0.974    51 H    0.969
                            18 C    0.965
    20   6 C    3.947 --    21 C    1.407    29 C    1.382    19 C    1.009
    21   6 C    3.951 --    22 C    1.419    20 C    1.407    53 H    0.968
    22   6 C    3.961 --    21 C    1.419    23 C    1.383    54 H    0.963
    23   6 C    3.897 --    22 C    1.383    26 C    1.223    24 O    1.108
    24   8 O    2.254 --    23 C    1.108    25 C    0.976
    25   6 C    3.929 --    57 H    0.977    24 O    0.976    56 H    0.973
                            55 H    0.973
    26   6 C    3.900 --    29 C    1.394    23 C    1.223    27 O    1.103
    27   8 O    2.254 --    26 C    1.103    28 C    0.979
    28   6 C    3.932 --    27 O    0.979    58 H    0.977    60 H    0.973
                            59 H    0.973
    29   6 C    3.960 --    26 C    1.394    20 C    1.382    61 H    0.962
    30   6 C    3.956 --    17 N    0.999    64 H    0.977    62 H    0.964
                            63 H    0.962
    31   6 C    3.975 --    32 C    1.011    33 C    1.008    65 H    0.964
                             3 C    0.908
    32   6 C    3.990 --    31 C    1.011    66 H    0.984    67 H    0.982
                            68 H    0.981
    33   6 C    3.990 --    31 C    1.008    69 H    0.984    71 H    0.981
                            70 H    0.979
    34   1 H    0.966 --    13 C    0.906
    35   1 H    0.991 --     8 C    0.972
    36   1 H    0.992 --     8 C    0.978
    37   1 H    0.994 --     8 C    0.969
    38   1 H    0.995 --    11 C    0.975
    39   1 H    0.993 --    11 C    0.977
    40   1 H    0.996 --    11 C    0.975
    41   1 H    0.992 --    12 C    0.956
    42   1 H    0.973 --    13 C    0.881
    43   1 H    0.993 --    14 C    0.965
    44   1 H    0.996 --    14 C    0.969
    45   1 H    0.995 --    15 C    0.962
    46   1 H    0.973 --    15 C    0.934
    47   1 H    0.989 --     2 C    0.936
    48   1 H    0.995 --    16 C    0.959
    49   1 H    0.992 --    18 C    0.966
    50   1 H    0.994 --    18 C    0.966
    51   1 H    0.995 --    19 C    0.969
    52   1 H    0.996 --    19 C    0.974
    53   1 H    0.998 --    21 C    0.968
    54   1 H    0.995 --    22 C    0.963
    55   1 H    0.992 --    25 C    0.973
    56   1 H    0.992 --    25 C    0.973
    57   1 H    0.993 --    25 C    0.977
    58   1 H    0.993 --    28 C    0.977
    59   1 H    0.993 --    28 C    0.973
    60   1 H    0.993 --    28 C    0.973
    61   1 H    0.996 --    29 C    0.962
    62   1 H    0.983 --    30 C    0.964
    63   1 H    0.986 --    30 C    0.962
    64   1 H    0.993 --    30 C    0.977
    65   1 H    0.996 --    31 C    0.964
    66   1 H    0.997 --    32 C    0.984
    67   1 H    0.998 --    32 C    0.982
    68   1 H    0.996 --    32 C    0.981
    69   1 H    0.997 --    33 C    0.984
    70   1 H    0.998 --    33 C    0.979
    71   1 H    0.994 --    33 C    0.981
    72   1 H    0.975 --     1 N    0.946
 ---------------------------------------------------------------------------

molecular dipole:
                 x           y           z       tot (Debye)
 q only:       -0.128       0.079      -0.366
   full:       -0.020       0.403      -0.291       1.266

           -------------------------------------------------
          | TOTAL ENERGY              -99.317340558138 Eh   |
          | GRADIENT NORM               0.002552759170 Eh/α |
          | HOMO-LUMO GAP               1.051063542977 eV   |
           -------------------------------------------------

 * finished run on 2024/04/06 at 11:16:33.125
