   * xtb version 6.6.1 (8d0f1dd) compiled by 'conda@1efc2f54142f' on 2023-08-01
          program call               : xtb struc.xyz --opt loose --input .xc1 --gfn2

   ID    Z sym.   atoms
    1    6 C      1, 3, 5-7, 10, 11, 14
    2    7 N      2, 4, 9, 13
    3    8 O      8, 12
    4    1 H      15-25
constraining bond 11 24 to    3.7133300 Å, actual value:    2.4695195 Å

          :  Hamiltonian                  GFN2-xTB          :
 * total energy  :   -45.0223837 Eh     change       -0.2401990E-09 Eh
 * total energy  :   -49.1435961 Eh     change       -0.4121212E+01 Eh
 * total energy  :   -55.0768955 Eh     change       -0.5933299E+01 Eh
 * total energy  :   -58.0038511 Eh     change       -0.2926956E+01 Eh
 * total energy  :   -58.2774505 Eh     change       -0.2735994E+00 Eh
 * total energy  :   -59.0226834 Eh     change       -0.7452329E+00 Eh
 * total energy  :   -58.3917639 Eh     change        0.6309195E+00 Eh
 * total energy  :   -59.4506391 Eh     change       -0.1058875E+01 Eh
 * total energy  :   -59.5327986 Eh     change       -0.8215948E-01 Eh
 * total energy  :   -59.5656009 Eh     change       -0.3280226E-01 Eh
 * total energy  :   -59.7301117 Eh     change       -0.1149875E-03 Eh
 * total energy  :   -59.7301964 Eh     change       -0.8472933E-04 Eh
 * total energy  :   -59.7302443 Eh     change       -0.4791036E-04 Eh
 * total energy  :   -59.7302871 Eh     change       -0.4276106E-04 Eh
 * total energy  :   -59.7302640 Eh     change        0.2304989E-04 Eh
 * total energy  :   -59.7303139 Eh     change       -0.4987666E-04 Eh
 * total energy  :   -59.7303282 Eh     change       -0.1431481E-04 Eh
 * total energy  :   -59.7303474 Eh     change       -0.1916124E-04 Eh
 * total energy  :   -59.7303682 Eh     change       -0.2087500E-04 Eh
   *** GEOMETRY OPTIMIZATION CONVERGED AFTER 67 ITERATIONS ***

 final structure:
================
25
 xtb: 6.6.1 (8d0f1dd)
C            3.01058501566925        1.18912370601027       -0.09858988300755
N            2.12621340206511        0.05634480715925       -0.08650633137401
C            2.51361622868992       -1.21869820883348       -0.09243301078140
N            1.43020133066278       -2.01214529416362       -0.05339864587321
C            0.31108868158705       -1.21387643733963       -0.02637878840460
C            0.75412179180645        0.10087172271735       -0.03643738293884
C           -0.03733395801919        1.35742445983283        0.05710820252728
O            0.49011324946218        2.44987301583286       -0.16830908442825
N           -1.28605562298449        1.14658691944387        0.43288971851458
C           -2.22819817151693        2.17841897865461        0.57126946074591
C           -1.90873266085403       -1.12665898867939       -1.15929451944531
O           -1.35198998692793       -0.33577517010917       -1.91934899779383
N           -0.97498732448030       -1.70771134077554       -0.10898500600281
C           -1.39645778353162       -2.72652782101348        0.63977050810960
H            3.20277557958598        1.53011748848606        0.92120146567828
H            3.95257183317979        0.91726006239303       -0.56988571816655
H            2.53736574532416        2.01081285490357       -0.63865455410975
H            3.52905226742230       -1.56057917414552       -0.12432073001259
H           -1.76179311820598        3.17228573131688        0.56887608006940
H           -2.94636641276215        2.12972863392244       -0.25633829504993
H           -2.78136746061152        2.02878896883611        1.50291812792786
H           -0.77460714554556       -3.13041138918812        1.41616718598475
H           -2.38686534702945       -3.10989036314771        0.47819288293722
H           -2.30111565625150       -1.28546039293616       -1.13142642977326
H            1.43859703736721       -3.02166422757524       -0.08691463743540

          :  Hamiltonian                  GFN2-xTB          :
         :: total energy             -59.730368236031 Eh    ::
         :: gradient norm              0.003715960261 Eh/a0 ::
         :: HOMO-LUMO gap              1.257785383690 eV    ::
         :: SCC energy               -42.674139857856 Eh    ::
         :: -> dispersion             -0.022831209921 Eh    ::
         :: repulsion energy           2.259927727517 Eh    ::

    * Orbital Energies and Occupations

         #    Occupation            Energy/Eh            Energy/eV
      -------------------------------------------------------------
         1        2.0000           -0.9039612             -24.5980
       ...           ...                  ...                  ...
        25        1.9991           -0.6699629             -18.2306
        26        1.9982           -0.6530629             -17.7707
        27        1.9978           -0.6489816             -17.6597
        28        1.9972           -0.6433136             -17.5055
        29        1.9949           -0.6287136             -17.1082
        30        1.9930           -0.6211029             -16.9011
        31        1.9889           -0.6102316             -16.6052
        32        1.9877           -0.6076548             -16.5351
        33        1.9694           -0.5858151             -15.9408
        34        1.9544           -0.5761439             -15.6777
        35        1.8598           -0.5483046             -14.9201
        36        1.6412           -0.5230154             -14.2320
        37        1.6100           -0.5205810             -14.1657 (HOMO)
        38        0.7419           -0.4743582             -12.9079 (LUMO)
        39        0.1423           -0.4258835             -11.5889
        40        0.1032           -0.4177516             -11.3676
        41        0.0238           -0.3819742             -10.3940
        42        0.0007           -0.2965860              -8.0705
        43        0.0000           -0.2049376              -5.5766
        44        0.0000           -0.1833524              -4.9893
        45        0.0000           -0.1448980              -3.9429
        46                         -0.0797552              -2.1702
        47                         -0.0606114              -1.6493
        48                         -0.0320170              -0.8712
       ...                                ...                  ...
        67                         10.5076488             285.9277
      -------------------------------------------------------------
                  HL-Gap            0.0462228 Eh            1.2578 eV

     #   Z          covCN         q      C6AA      α(0)
     1   6 C        3.692    -0.091    22.435     6.777
     2   7 N        2.845     0.083    19.801     6.609
     3   6 C        3.033     0.050    26.837     8.497
     4   7 N        2.796    -0.055    22.297     7.013
     5   6 C        3.029     0.104    25.663     8.309
     6   6 C        3.092     0.019    27.473     8.591
     7   6 C        2.762     0.289    22.104     7.699
     8   8 O        0.858    -0.371    21.108     6.160
     9   7 N        1.835    -0.221    26.666     7.653
    10   6 C        3.698    -0.027    21.230     6.590
    11   6 C        2.698     0.182    24.091     8.033
    12   8 O        0.863    -0.315    20.049     6.003
    13   7 N        2.727    -0.006    21.373     6.866
    14   6 C        2.792    -0.053    29.289     8.865
    15   1 H        0.924     0.114     1.664     2.017
    16   1 H        0.925     0.103     1.760     2.075
    17   1 H        0.924     0.148     1.407     1.855
    18   1 H        0.926     0.124     1.578     1.964
    19   1 H        0.924     0.109     1.709     2.044
    20   1 H        0.924     0.109     1.705     2.042
    21   1 H        0.924     0.102     1.763     2.077
    22   1 H        0.926     0.096     1.819     2.109
    23   1 H        0.926     0.111     1.689     2.032
    24   1 H        0.939     0.168     1.276     1.766
    25   1 H        0.860     0.227     0.976     1.548

Wiberg/Mayer (AO) data.
largest (>0.10) Wiberg bond orders for each atom

     #   Z sym  total        # sym  WBO       # sym  WBO       # sym  WBO
 ---------------------------------------------------------------------------
     1   6 C    3.895 --     2 N    0.989    16 H    0.967    15 H    0.948
                            17 H    0.941
     2   7 N    3.663 --     3 C    1.353     6 C    1.185     1 C    0.989
     3   6 C    3.810 --     2 N    1.353     4 N    1.297    18 H    0.952
     4   7 N    3.555 --     3 C    1.297     5 C    1.169    25 H    0.920
     5   6 C    3.859 --     6 C    1.406     4 N    1.169    13 N    1.085
     6   6 C    3.823 --     5 C    1.406     2 N    1.185     7 C    0.984
     7   6 C    3.902 --     8 O    1.527     9 N    1.334     6 C    0.984
     8   8 O    1.736 --     7 C    1.527     9 N    0.118
     9   7 N    2.597 --     7 C    1.334    10 C    1.087     8 O    0.118
    10   6 C    3.856 --     9 N    1.087    21 H    0.924    19 H    0.911
                            20 H    0.906
    11   6 C    3.719 --    12 O    1.791    24 H    0.958    13 N    0.903
    12   8 O    1.948 --    11 C    1.791    13 N    0.121
    13   7 N    3.530 --    14 C    1.366     5 C    1.085    11 C    0.903
                            12 O    0.121
    14   6 C    3.376 --    13 N    1.366    22 H    0.966    23 H    0.965
    15   1 H    0.978 --     1 C    0.948
    16   1 H    0.984 --     1 C    0.967
    17   1 H    0.971 --     1 C    0.941
    18   1 H    0.983 --     3 C    0.952
    19   1 H    0.916 --    10 C    0.911
    20   1 H    0.926 --    10 C    0.906
    21   1 H    0.940 --    10 C    0.924
    22   1 H    0.987 --    14 C    0.966
    23   1 H    0.985 --    14 C    0.965
    24   1 H    0.968 --    11 C    0.958
    25   1 H    0.947 --     4 N    0.920
 ---------------------------------------------------------------------------

molecular dipole:
                 x           y           z       tot (Debye)
 q only:        1.315      -2.549       0.810
   full:        1.375      -2.911       0.925       8.513

           -------------------------------------------------
          | TOTAL ENERGY              -59.730368236031 Eh   |
          | GRADIENT NORM               0.003715960261 Eh/α |
          | HOMO-LUMO GAP               1.257785383690 eV   |
           -------------------------------------------------

 * finished run on 2024/06/05 at 19:58:53.560
