   * xtb version 6.6.1 (8d0f1dd) compiled by 'conda@1efc2f54142f' on 2023-08-01
          program call               : xtb xtbopt.xyz --opt crude --input .xc2 --gfn2

   ID    Z sym.   atoms
    1    6 C      1, 3, 5-7, 10, 11, 14
    2    7 N      2, 4, 9, 13
    3    8 O      8, 12
    4    1 H      15-25
########################################################################
[WARNING] Please study the warnings concerning your input carefully
-1- readin_getIntValue: could not parse ''
########################################################################

          :  Hamiltonian                  GFN2-xTB          :
 * total energy  :   -40.4139950 Eh     change       -0.2991385E-11 Eh
 * total energy  :   -42.1017182 Eh     change       -0.1687723E+01 Eh
 * total energy  :   -42.1357009 Eh     change       -0.3398265E-01 Eh
 * total energy  :   -42.1426359 Eh     change       -0.6935001E-02 Eh
 * total energy  :   -42.1453559 Eh     change       -0.2719998E-02 Eh
 * total energy  :   -42.1458219 Eh     change       -0.4659996E-03 Eh
 * total energy  :   -42.1467473 Eh     change       -0.9254603E-03 Eh
 * total energy  :   -42.1471038 Eh     change       -0.3565179E-03 Eh
 * total energy  :   -42.1474602 Eh     change       -0.3563925E-03 Eh
 * total energy  :   -42.1475657 Eh     change       -0.1054818E-03 Eh
   *** GEOMETRY OPTIMIZATION CONVERGED AFTER 10 ITERATIONS ***

 final structure:
================
25
 xtb: 6.6.1 (8d0f1dd)
C            3.04394565791768        1.18884297734083       -0.04063095040547
N            2.15015178491849        0.06389636255595       -0.07305119587917
C            2.52647223172995       -1.21505831122254       -0.09994331134103
N            1.43410472483517       -1.99713053030663       -0.10312517991011
C            0.32297771696320       -1.18799767956342       -0.08485554479688
C            0.77769923234716        0.12071021262201       -0.05195019663595
C           -0.00944553337744        1.38209758196515        0.05041240296066
O            0.52671099018325        2.47413018092910       -0.15068580724850
N           -1.26188764828674        1.16366712546430        0.40555784378061
C           -2.21532245758462        2.18618561981784        0.53753990840967
C           -1.82576333481796       -1.12558931509155       -1.12151283427022
O           -1.44124990034906       -0.34718465621591       -1.95026573455680
N           -0.97148254763763       -1.68960501249581       -0.15202870522102
C           -1.34638873649211       -2.71317500706876        0.63396915066660
H            3.22394813322175        1.49921398955412        0.99121049897087
H            3.99061762400554        0.92145188150697       -0.50521460942944
H            2.58600882187010        2.02936826427689       -0.56439211201906
H            3.53894928700992       -1.56614218096436       -0.11446318754582
H           -1.75812203749416        3.18414152829255        0.55623019982441
H           -2.91529932957309        2.13966633810170       -0.30547049370864
H           -2.78549333011905        2.02074525828162        1.45604087139329
H           -0.68846484340350       -3.07030166508235        1.40148046415316
H           -2.32957878931773       -3.12500063293324        0.51998534350350
H           -2.84640329451754       -1.51263955749975       -1.04504009795028
H            1.43374709207021       -3.00605423066296       -0.15862510484659

          :  Hamiltonian                  GFN2-xTB          :
         :: total energy             -42.147565706426 Eh    ::
         :: gradient norm              0.003946480848 Eh/a0 ::
         :: HOMO-LUMO gap              1.195590490149 eV    ::
         :: SCC energy               -42.668312062605 Eh    ::
         :: -> dispersion             -0.022768059507 Eh    ::
         :: repulsion energy           0.520534166967 Eh    ::

    * Orbital Energies and Occupations

         #    Occupation            Energy/Eh            Energy/eV
      -------------------------------------------------------------
         1        2.0000           -0.9062584             -24.6605
       ...           ...                  ...                  ...
        25        1.9990           -0.6670930             -18.1525
        26        1.9981           -0.6521838             -17.7468
        27        1.9976           -0.6465894             -17.5946
        28        1.9969           -0.6406200             -17.4322
        29        1.9951           -0.6293835             -17.1264
        30        1.9931           -0.6212068             -16.9039
        31        1.9892           -0.6105058             -16.6127
        32        1.9882           -0.6084459             -16.5567
        33        1.9704           -0.5863678             -15.9559
        34        1.9423           -0.5701995             -15.5159
        35        1.8633           -0.5487241             -14.9315
        36        1.6453           -0.5231277             -14.2350
        37        1.6133           -0.5206063             -14.1664 (HOMO)
        38        0.7922           -0.4766691             -12.9708 (LUMO)
        39        0.1123           -0.4196496             -11.4192
        40        0.0943           -0.4152949             -11.3007
        41        0.0122           -0.3657087              -9.9514
        42        0.0007           -0.2967567              -8.0752
        43        0.0000           -0.1859724              -5.0606
        44        0.0000           -0.1827765              -4.9736
        45        0.0000           -0.1175746              -3.1994
        46                         -0.0694956              -1.8911
        47                         -0.0526390              -1.4324
        48                         -0.0301943              -0.8216
       ...                                ...                  ...
        67                          0.5090147              13.8510
      -------------------------------------------------------------
                  HL-Gap            0.0439371 Eh            1.1956 eV

     #   Z          covCN         q      C6AA      α(0)
     1   6 C        3.692    -0.091    22.437     6.778
     2   7 N        2.846     0.082    19.819     6.612
     3   6 C        3.031     0.049    26.861     8.501
     4   7 N        2.797    -0.054    22.282     7.011
     5   6 C        3.046     0.101    25.717     8.317
     6   6 C        3.092     0.019    27.483     8.593
     7   6 C        2.762     0.288    22.114     7.701
     8   8 O        0.858    -0.372    21.127     6.163
     9   7 N        1.836    -0.224    26.734     7.662
    10   6 C        3.697    -0.027    21.224     6.589
    11   6 C        2.722     0.230    23.162     7.879
    12   8 O        0.857    -0.295    19.689     5.949
    13   7 N        2.732     0.034    20.660     6.751
    14   6 C        2.800    -0.067    29.642     8.919
    15   1 H        0.924     0.114     1.666     2.019
    16   1 H        0.925     0.103     1.759     2.074
    17   1 H        0.924     0.148     1.409     1.856
    18   1 H        0.926     0.125     1.573     1.962
    19   1 H        0.924     0.109     1.709     2.045
    20   1 H        0.924     0.110     1.699     2.038
    21   1 H        0.924     0.102     1.769     2.080
    22   1 H        0.926     0.097     1.811     2.105
    23   1 H        0.926     0.109     1.701     2.039
    24   1 H        0.924     0.083     1.953     2.186
    25   1 H        0.860     0.228     0.973     1.545

Wiberg/Mayer (AO) data.
largest (>0.10) Wiberg bond orders for each atom

     #   Z sym  total        # sym  WBO       # sym  WBO       # sym  WBO
 ---------------------------------------------------------------------------
     1   6 C    3.895 --     2 N    0.989    16 H    0.967    15 H    0.948
                            17 H    0.942
     2   7 N    3.659 --     3 C    1.351     6 C    1.185     1 C    0.989
     3   6 C    3.806 --     2 N    1.351     4 N    1.296    18 H    0.952
     4   7 N    3.556 --     3 C    1.296     5 C    1.174    25 H    0.919
     5   6 C    3.856 --     6 C    1.418     4 N    1.174    13 N    1.059
     6   6 C    3.828 --     5 C    1.418     2 N    1.185     7 C    0.980
     7   6 C    3.903 --     8 O    1.528     9 N    1.337     6 C    0.980
     8   8 O    1.740 --     7 C    1.528     9 N    0.120
     9   7 N    2.603 --     7 C    1.337    10 C    1.086     8 O    0.120
    10   6 C    3.857 --     9 N    1.086    21 H    0.925    19 H    0.911
                            20 H    0.906
    11   6 C    3.815 --    12 O    1.800    13 N    1.040    24 H    0.913
    12   8 O    1.971 --    11 C    1.800    13 N    0.102
    13   7 N    3.561 --    14 C    1.299     5 C    1.059    11 C    1.040
                            12 O    0.102
    14   6 C    3.311 --    13 N    1.299    22 H    0.969    23 H    0.965
    15   1 H    0.978 --     1 C    0.948
    16   1 H    0.984 --     1 C    0.967
    17   1 H    0.971 --     1 C    0.942
    18   1 H    0.983 --     3 C    0.952
    19   1 H    0.916 --    10 C    0.911
    20   1 H    0.926 --    10 C    0.906
    21   1 H    0.941 --    10 C    0.925
    22   1 H    0.988 --    14 C    0.969
    23   1 H    0.986 --    14 C    0.965
    24   1 H    0.973 --    11 C    0.913
    25   1 H    0.947 --     4 N    0.919
 ---------------------------------------------------------------------------

molecular dipole:
                 x           y           z       tot (Debye)
 q only:        1.463      -2.540       0.816
   full:        1.451      -2.918       0.931       8.615

           -------------------------------------------------
          | TOTAL ENERGY              -42.147565706426 Eh   |
          | GRADIENT NORM               0.003946480848 Eh/α |
          | HOMO-LUMO GAP               1.195590490149 eV   |
           -------------------------------------------------

 * finished run on 2024/06/05 at 19:58:53.958
