   * xtb version 6.6.1 (8d0f1dd) compiled by 'conda@1efc2f54142f' on 2023-08-01
          program call               : xtb xtbopt.xyz --opt crude --input .xc2 --gfn2

   ID    Z sym.   atoms
    1    6 C      1, 3, 5-7, 10, 11, 14
    2    7 N      2, 4, 9, 13
    3    8 O      8, 12
    4    1 H      15-25

          :  Hamiltonian                  GFN2-xTB          :
 * total energy  :   -42.1367685 Eh     change       -0.4850165E-10 Eh
   *** GEOMETRY OPTIMIZATION CONVERGED AFTER 1 ITERATIONS ***

 final structure:
================
25
 xtb: 6.6.1 (8d0f1dd)
C            3.31580526384576        2.38616801604931        0.01511146008147
N            2.83107382385816        1.03018657924483        0.01558042331633
C            3.56133545302416       -0.07760497398508        0.01904968311483
N            2.76606622759830       -1.16084234755571        0.01906531588449
C            1.46164245114018       -0.73674465676866        0.01529505776613
C            1.51427582939724        0.66440786053391        0.01332168310035
C            0.28671746776998        1.43160500812703        0.00352393101766
O            0.21733977701692        2.64507336975071       -0.00165576272035
N           -0.82136025512570        0.60469105489239       -0.00055664327322
C           -2.12941831560802        1.22824667915308       -0.01551517970162
C           -0.81841809777665       -0.81705170735551        0.00571442903064
O           -1.88087507303368       -1.39699555524758        0.00297815459403
N            0.37380315397671       -1.46218075087880        0.01311351832047
C           -4.53879414813879       -4.15630532383482       -0.02585521440462
H            3.91474770183621        2.57502524714765        0.90627275322589
H            3.93003797131246        2.56899387943741       -0.86673427125842
H            2.45956547695186        3.06067023163687        0.00580104868406
H            4.63456003458426       -0.10494151536764        0.02109561636437
H           -1.99328639114673        2.30806655774591       -0.01262512167766
H           -2.67662579651206        0.91693843022714       -0.90639232624766
H           -2.69848352621276        0.91415530248280        0.86047205625580
H           -4.76851792067000       -4.64614053778329        0.90062659607679
H           -4.97675009203542       -4.51244127684809       -0.93866273487195
H           -3.86552735558272       -3.31742899672475       -0.03915263854295
H            3.06151785362966       -2.12731203248162        0.02129978376844

          :  Hamiltonian                  GFN2-xTB          :
         :: total energy             -42.136768465389 Eh    ::
         :: gradient norm              0.002706858399 Eh/a0 ::
         :: HOMO-LUMO gap              1.107416752815 eV    ::
         :: SCC energy               -42.664031847851 Eh    ::
         :: -> dispersion             -0.020105203711 Eh    ::
         :: repulsion energy           0.527269463418 Eh    ::

    * Orbital Energies and Occupations

         #    Occupation            Energy/Eh            Energy/eV
      -------------------------------------------------------------
         1        2.0000           -0.8985822             -24.4517
       ...           ...                  ...                  ...
        25        1.9998           -0.6500825             -17.6896
        26        1.9993           -0.6310464             -17.1716
        27        1.9993           -0.6298584             -17.1393
        28        1.9981           -0.6145665             -16.7232
        29        1.9980           -0.6136126             -16.6972
        30        1.9978           -0.6121039             -16.6562
        31        1.9970           -0.6068957             -16.5145
        32        1.9944           -0.5971239             -16.2486
        33        1.9640           -0.5673025             -15.4371
        34        1.9062           -0.5516573             -15.0114
        35        1.9005           -0.5506778             -14.9847
        36        1.8284           -0.5414377             -14.7333
        37        1.7356           -0.5337700             -14.5246 (HOMO)
        38        0.6688           -0.4930731             -13.4172 (LUMO)
        39        0.0119           -0.4229492             -11.5090
        40        0.0009           -0.3825325             -10.4092
        41        0.0001           -0.3499412              -9.5224
        42        0.0000           -0.2630297              -7.1574
        43                         -0.1804185              -4.9094
        44                         -0.1606323              -4.3710
        45                         -0.1189022              -3.2355
        46                         -0.0691015              -1.8803
        47                         -0.0231045              -0.6287
        48                         -0.0188123              -0.5119
       ...                                ...                  ...
        67                          0.5455047              14.8439
      -------------------------------------------------------------
                  HL-Gap            0.0406968 Eh            1.1074 eV

     #   Z          covCN         q      C6AA      α(0)
     1   6 C        3.692    -0.092    22.456     6.781
     2   7 N        2.827     0.086    19.744     6.599
     3   6 C        3.063     0.064    26.504     8.442
     4   7 N        2.795    -0.053    22.267     7.008
     5   6 C        3.067     0.149    24.709     8.151
     6   6 C        3.132    -0.021    28.320     8.712
     7   6 C        2.767     0.277    22.324     7.738
     8   8 O        0.858    -0.368    21.054     6.152
     9   7 N        2.747    -0.087    22.930     7.112
    10   6 C        3.704    -0.054    21.708     6.661
    11   6 C        2.755     0.339    21.236     7.546
    12   8 O        0.860    -0.352    20.749     6.107
    13   7 N        1.832    -0.247    27.295     7.742
    14   6 C        2.779    -0.072    29.766     8.936
    15   1 H        0.924     0.107     1.723     2.053
    16   1 H        0.925     0.107     1.725     2.054
    17   1 H        0.925     0.135     1.494     1.911
    18   1 H        0.926     0.125     1.572     1.961
    19   1 H        0.925     0.112     1.681     2.028
    20   1 H        0.924     0.101     1.780     2.086
    21   1 H        0.924     0.101     1.776     2.084
    22   1 H        0.926     0.131     1.527     1.932
    23   1 H        0.926     0.131     1.525     1.931
    24   1 H        0.926     0.144     1.434     1.872
    25   1 H        0.860     0.238     0.930     1.511

Wiberg/Mayer (AO) data.
largest (>0.10) Wiberg bond orders for each atom

     #   Z sym  total        # sym  WBO       # sym  WBO       # sym  WBO
 ---------------------------------------------------------------------------
     1   6 C    3.911 --     2 N    0.983    17 H    0.961    16 H    0.959
                            15 H    0.959
     2   7 N    3.710 --     3 C    1.393     6 C    1.182     1 C    0.983
     3   6 C    3.877 --     2 N    1.393     4 N    1.316    18 H    0.951
     4   7 N    3.595 --     3 C    1.316     5 C    1.153    25 H    0.916
     5   6 C    3.948 --    13 N    1.379     6 C    1.259     4 N    1.153
     6   6 C    3.807 --     5 C    1.259     2 N    1.182     7 C    1.076
     7   6 C    3.954 --     8 O    1.638     9 N    1.143     6 C    1.076
     8   8 O    1.942 --     7 C    1.638     9 N    0.140
     9   7 N    3.471 --     7 C    1.143    11 C    1.030    10 C    0.987
                             8 O    0.140
    10   6 C    3.893 --     9 N    0.987    19 H    0.962    21 H    0.952
                            20 H    0.952
    11   6 C    3.943 --    12 O    1.648    13 N    1.180     9 N    1.030
    12   8 O    1.909 --    11 C    1.648
    13   7 N    2.832 --     5 C    1.379    11 C    1.180
    14   6 C    2.936 --    22 H    0.980    23 H    0.980    24 H    0.975
    15   1 H    0.986 --     1 C    0.959
    16   1 H    0.986 --     1 C    0.959
    17   1 H    0.980 --     1 C    0.961
    18   1 H    0.983 --     3 C    0.951
    19   1 H    0.980 --    10 C    0.962
    20   1 H    0.970 --    10 C    0.952
    21   1 H    0.970 --    10 C    0.952
    22   1 H    0.982 --    14 C    0.980
    23   1 H    0.982 --    14 C    0.980
    24   1 H    0.978 --    14 C    0.975
    25   1 H    0.942 --     4 N    0.916
 ---------------------------------------------------------------------------

molecular dipole:
                 x           y           z       tot (Debye)
 q only:        1.683      -1.537       0.001
   full:        2.135      -1.578       0.003       6.747

           -------------------------------------------------
          | TOTAL ENERGY              -42.136768465389 Eh   |
          | GRADIENT NORM               0.002706858399 Eh/α |
          | HOMO-LUMO GAP               1.107416752815 eV   |
           -------------------------------------------------

 * finished run on 2024/06/05 at 19:58:03.994
