   * xtb version 6.6.1 (8d0f1dd) compiled by 'conda@1efc2f54142f' on 2023-08-01
          program call               : xtb xtbopt.xyz --opt crude --input .xc2 --gfn2

   ID    Z sym.   atoms
    1    7 N      1, 17
    2    6 C      2-6, 8, 9, 11-16, 18-23, 25, 26, 28-33
    3    8 O      7, 10, 24, 27
    4    1 H      34-72

          :  Hamiltonian                  GFN2-xTB          :
 * total energy  :   -99.2587574 Eh     change       -0.3160494E-10 Eh
   *** GEOMETRY OPTIMIZATION CONVERGED AFTER 1 ITERATIONS ***

 final structure:
================
72
 xtb: 6.6.1 (8d0f1dd)
N           -2.04725000394066        2.62838795454374        2.31293974571053
C           -1.98416261099917        2.01252655297755        1.23006940989017
C           -3.07224732610453        1.99724231182391        0.19108971691125
C           -3.65652405076385        0.59231086393051        0.07509977805741
C           -4.59990678884258        0.32933034331451       -0.91745067509037
C           -5.14439672206228       -0.95396749571427       -1.08391350792804
O           -6.06736640196824       -1.29451249678614       -1.99653088997647
C           -6.59924895815759       -0.30954229878807       -2.85229978870112
C           -4.64021819810886       -1.90865430342277       -0.22650345613132
O           -2.43966238893629       -3.87641841771181        2.35197581454419
C           -3.14890570535957       -4.93875207264854        2.72160791654486
C           -3.73191469924606       -1.72442547519600        0.74725324003048
C           -3.23275843933994       -0.42577369901879        0.91893102105144
C           -2.38275695731881        2.36164105968678       -1.15029348750305
C           -1.48665112273184        1.24734194819406       -1.72022444062333
C           -0.19881881824246        1.09590905057313       -1.00606832349849
N            0.39541865723903       -0.05046765897124       -0.72340160422925
C            1.76065619145108       -0.06397030865492       -0.25081461699061
C            2.74781854945040       -0.38951818772064       -1.38975297053478
C            4.16119670773938       -0.20553947336721       -0.91241966517926
C            4.79719531102015        1.01861653853783       -1.05261562213042
C            6.09174266272260        1.20388569355473       -0.59433646143090
C            6.77792263460027        0.16622049772783        0.02177168054605
O            8.03198960618067        0.22959843545110        0.49963932924232
C            8.76864072587861        1.42216247573398        0.35272346928698
C            6.13054629204653       -1.09292468883852        0.17728185212631
O            6.86616281139407       -2.04144614241126        0.78391315132118
C            6.32401720524471       -3.32836324352341        0.96699739617814
C            4.83474980119768       -1.25340904963065       -0.29044576878284
C           -0.23993777834545       -1.32729917753874       -0.94857657309507
C           -4.22322238593896        2.99668888821669        0.50196070568462
C           -4.96762214285621        2.60495609823040        1.77643390140705
C           -3.75423740727661        4.44570010173722        0.59947870700360
H           -4.93340251852439        1.11934107194679       -1.57076995938167
H           -7.09309277282128        0.48805376265068       -2.28921402253584
H           -7.33589390764822       -0.82392272053058       -3.46637779412666
H           -5.82718380896848        0.11822889942633       -3.50014379365936
H           -4.10933502319376       -4.65218094290848        3.19496185054172
H           -3.39063979051317       -5.59526641771532        1.86157240529521
H           -2.59818996964344       -5.55604016119963        3.45717750368354
H           -3.35457069625910       -2.53207213244360        1.37817763144395
H           -2.53710188808451       -0.24165625501889        1.72196374051018
H           -3.15271934469420        2.58732931632159       -1.88723816968231
H           -1.78642599091133        3.26372750286056       -1.00849995472268
H           -2.03895742957093        0.30950252623040       -1.75562289261736
H           -1.24784906969736        1.53046114408493       -2.75398666136682
H           -1.09022868205152        1.45183629262915        0.89152434759143
H            0.37990765516026        1.99342414251424       -0.83776848065376
H            1.85950366015254       -0.80630985850735        0.54456956389484
H            2.01111076901294        0.91615973047208        0.16088685773925
H            2.55188366274278        0.28495465258523       -2.22541776375242
H            2.59317415805179       -1.41430445542746       -1.72861398038137
H            4.28921788238338        1.83931200371536       -1.53604032532943
H            6.56222238750924        2.16448068708893       -0.72500565168954
H            8.30453537336232        2.24945067497849        0.89810626551885
H            8.88126857215480        1.69553727842288       -0.70046040916043
H            9.74816962248670        1.21429496025730        0.77873258803892
H            7.10395394277264       -3.90604337848083        1.45908545393543
H            5.43600382983211       -3.30199829982455        1.60617952168003
H            6.07466501916230       -3.79786731838472        0.01061255530075
H            4.33975747518988       -2.20604192555131       -0.18657440927041
H           -0.35585159705837       -1.52715344403435       -2.01570054391425
H           -1.22448031604999       -1.35688806500494       -0.47628890663655
H            0.36683177904269       -2.11523405544603       -0.51083783226111
H           -4.92918999479377        2.93121195775542       -0.33352582160869
H           -4.32123399729654        2.73143906465578        2.63883185052779
H           -5.30023440852659        1.57064340382324        1.73625890974305
H           -5.83965740247300        3.24112680285448        1.90042104073654
H           -3.02051558343272        4.55486665407903        1.39221008923810
H           -3.32843495003183        4.79808365250268       -0.33650920416336
H           -4.60510946199453        5.07870537152954        0.83691591760116
H           -1.24563983724193        2.59741277591801        2.93415434275771

          :  Hamiltonian                  GFN2-xTB          :
         :: total energy             -99.258757414813 Eh    ::
         :: gradient norm              0.003475332741 Eh/a0 ::
         :: HOMO-LUMO gap              0.753975875845 eV    ::
         :: SCC energy              -100.639039049410 Eh    ::
         :: -> dispersion             -0.072641879924 Eh    ::
         :: repulsion energy           1.379115854099 Eh    ::

    * Orbital Energies and Occupations

         #    Occupation            Energy/Eh            Energy/eV
      -------------------------------------------------------------
         1        2.0000           -0.8144225             -22.1616
       ...           ...                  ...                  ...
        78        1.9977           -0.5337719             -14.5247
        79        1.9969           -0.5294062             -14.4059
        80        1.9962           -0.5259841             -14.3128
        81        1.9956           -0.5235868             -14.2475
        82        1.9938           -0.5182883             -14.1033
        83        1.9933           -0.5169786             -14.0677
        84        1.9826           -0.5017457             -13.6532
        85        1.9730           -0.4947296             -13.4623
        86        1.9297           -0.4792136             -13.0401
        87        1.9220           -0.4775060             -12.9936
        88        1.8043           -0.4619377             -12.5700
        89        1.6266           -0.4500651             -12.2469
        90        1.6087           -0.4491478             -12.2219 (HOMO)
        91        0.8335           -0.4214397             -11.4680 (LUMO)
        92        0.3382           -0.4015547             -10.9269
        93        0.0119           -0.3457712              -9.4089
        94        0.0028           -0.3229569              -8.7881
        95        0.0022           -0.3188855              -8.6773
        96        0.0021           -0.3181160              -8.6564
        97        0.0019           -0.3166802              -8.6173
        98        0.0000           -0.1942690              -5.2863
        99        0.0000           -0.1903792              -5.1805
       100                         -0.1411038              -3.8396
       101                         -0.0760968              -2.0707
       ...                                ...                  ...
       171                          0.5824057              15.8481
      -------------------------------------------------------------
                  HL-Gap            0.0277081 Eh            0.7540 eV

     #   Z          covCN         q      C6AA      α(0)
     1   7 N        1.774    -0.260    27.568     7.775
     2   6 C        2.826     0.101    25.756     8.316
     3   6 C        3.908     0.008    20.392     6.419
     4   6 C        2.972     0.008    27.836     8.654
     5   6 C        2.938    -0.076    29.887     8.966
     6   6 C        2.856     0.165    24.440     8.103
     7   8 O        1.705    -0.227    17.769     5.691
     8   6 C        3.645     0.028    20.446     6.499
     9   6 C        2.030    -0.047    32.255     9.173
    10   8 O        0.854    -0.443    22.557     6.368
    11   6 C        3.620     0.084    19.627     6.388
    12   6 C        2.909    -0.027    28.679     8.781
    13   6 C        2.936    -0.045    29.121     8.850
    14   6 C        3.813    -0.065    21.742     6.637
    15   6 C        3.802    -0.070    21.841     6.654
    16   6 C        2.845     0.012    27.734     8.631
    17   7 N        2.729     0.023    20.844     6.781
    18   6 C        3.757    -0.019    20.970     6.529
    19   6 C        3.808    -0.071    21.851     6.654
    20   6 C        2.969     0.002    27.974     8.675
    21   6 C        2.922    -0.047    29.178     8.858
    22   6 C        2.913    -0.066    29.655     8.930
    23   6 C        2.864     0.135    25.041     8.202
    24   8 O        1.706    -0.216    17.587     5.662
    25   6 C        3.645     0.023    20.517     6.510
    26   6 C        2.862     0.135    25.038     8.202
    27   8 O        1.706    -0.218    17.625     5.668
    28   6 C        3.645     0.025    20.497     6.507
    29   6 C        2.919    -0.078    29.957     8.975
    30   6 C        3.700    -0.076    22.127     6.727
    31   6 C        3.852    -0.007    20.673     6.467
    32   6 C        3.756    -0.120    22.845     6.815
    33   6 C        3.755    -0.119    22.838     6.814
    34   1 H        0.926     0.057     2.237     2.339
    35   1 H        0.924     0.055     2.259     2.350
    36   1 H        0.925     0.082     1.954     2.186
    37   1 H        0.924     0.048     2.342     2.393
    38   1 H        0.922     0.056     2.246     2.344
    39   1 H        0.922     0.055     2.263     2.353
    40   1 H        0.922     0.063     2.167     2.302
    41   1 H        0.924     0.135     1.495     1.912
    42   1 H        0.926     0.053     2.281     2.362
    43   1 H        0.925     0.061     2.183     2.311
    44   1 H        0.924     0.055     2.254     2.348
    45   1 H        0.925     0.069     2.094     2.263
    46   1 H        0.923     0.084     1.941     2.179
    47   1 H        0.922     0.011     2.870     2.649
    48   1 H        0.926     0.073     2.050     2.239
    49   1 H        0.924     0.075     2.027     2.226
    50   1 H        0.924     0.068     2.102     2.268
    51   1 H        0.924     0.055     2.253     2.347
    52   1 H        0.924     0.060     2.200     2.319
    53   1 H        0.926     0.047     2.356     2.400
    54   1 H        0.926     0.061     2.189     2.314
    55   1 H        0.924     0.057     2.234     2.338
    56   1 H        0.924     0.058     2.221     2.330
    57   1 H        0.925     0.085     1.928     2.172
    58   1 H        0.925     0.085     1.931     2.173
    59   1 H        0.924     0.053     2.278     2.360
    60   1 H        0.924     0.056     2.249     2.345
    61   1 H        0.926     0.052     2.291     2.367
    62   1 H        0.924     0.079     1.985     2.203
    63   1 H        0.924     0.090     1.882     2.145
    64   1 H        0.925     0.090     1.881     2.144
    65   1 H        0.924     0.039     2.467     2.456
    66   1 H        0.925     0.072     2.062     2.246
    67   1 H        0.925     0.038     2.472     2.459
    68   1 H        0.925     0.053     2.283     2.363
    69   1 H        0.925     0.061     2.189     2.314
    70   1 H        0.925     0.035     2.511     2.478
    71   1 H        0.925     0.057     2.233     2.337
    72   1 H        0.860     0.163     1.319     1.799

Wiberg/Mayer (AO) data.
largest (>0.10) Wiberg bond orders for each atom

     #   Z sym  total        # sym  WBO       # sym  WBO       # sym  WBO
 ---------------------------------------------------------------------------
     1   7 N    3.046 --     2 C    1.962    72 H    0.939
     2   6 C    3.931 --     1 N    1.962     3 C    0.993    47 H    0.894
     3   6 C    3.966 --     2 C    0.993     4 C    0.960    14 C    0.956
                            31 C    0.945
     4   6 C    3.966 --    13 C    1.421     5 C    1.402     3 C    0.960
     5   6 C    3.903 --     4 C    1.402     6 C    1.307    34 H    0.947
     6   6 C    3.890 --     9 C    1.336     5 C    1.307     7 O    1.106
     7   8 O    2.262 --     6 C    1.106     8 C    0.975
     8   6 C    3.930 --    36 H    0.976     7 O    0.975    37 H    0.974
                            35 H    0.973
     9   6 C    3.144 --    12 C    1.562     6 C    1.336
    10   8 O    1.251 --    11 C    1.171
    11   6 C    3.884 --    10 O    1.171    39 H    0.904    38 H    0.904
                            40 H    0.901
    12   6 C    3.909 --     9 C    1.562    13 C    1.316    41 H    0.883
    13   6 C    3.885 --     4 C    1.421    12 C    1.316    42 H    0.953
    14   6 C    3.976 --    15 C    0.984    44 H    0.972    43 H    0.969
                             3 C    0.956
    15   6 C    3.986 --    16 C    1.059    14 C    0.984    45 H    0.960
                            46 H    0.924
    16   6 C    3.640 --    17 N    1.434    15 C    1.059    48 H    0.956
    17   7 N    3.512 --    16 C    1.434    30 C    0.996    18 C    0.987
    18   6 C    3.952 --    17 N    0.987    50 H    0.967    19 C    0.965
                            49 H    0.963
    19   6 C    3.976 --    20 C    1.008    51 H    0.972    52 H    0.971
                            18 C    0.965
    20   6 C    3.937 --    21 C    1.402    29 C    1.383    19 C    1.008
    21   6 C    3.942 --    22 C    1.420    20 C    1.402    53 H    0.968
    22   6 C    3.954 --    21 C    1.420    23 C    1.378    54 H    0.963
    23   6 C    3.886 --    22 C    1.378    26 C    1.212    24 O    1.117
    24   8 O    2.255 --    23 C    1.117    25 C    0.974
    25   6 C    3.925 --    57 H    0.976    24 O    0.974    56 H    0.972
                            55 H    0.971
    26   6 C    3.891 --    29 C    1.389    23 C    1.212    27 O    1.113
    27   8 O    2.256 --    26 C    1.113    28 C    0.976
    28   6 C    3.927 --    58 H    0.976    27 O    0.976    59 H    0.972
                            60 H    0.972
    29   6 C    3.954 --    26 C    1.389    20 C    1.383    61 H    0.962
    30   6 C    3.950 --    17 N    0.996    64 H    0.976    62 H    0.965
                            63 H    0.957
    31   6 C    3.972 --    33 C    1.009    32 C    1.008    65 H    0.957
                             3 C    0.945
    32   6 C    3.974 --    31 C    1.008    67 H    0.981    68 H    0.981
                            66 H    0.972
    33   6 C    3.980 --    31 C    1.009    70 H    0.983    71 H    0.979
                            69 H    0.976
    34   1 H    0.984 --     5 C    0.947
    35   1 H    0.993 --     8 C    0.973
    36   1 H    0.992 --     8 C    0.976
    37   1 H    0.994 --     8 C    0.974
    38   1 H    0.909 --    11 C    0.904
    39   1 H    0.909 --    11 C    0.904
    40   1 H    0.905 --    11 C    0.901
    41   1 H    0.958 --    12 C    0.883
    42   1 H    0.989 --    13 C    0.953
    43   1 H    0.995 --    14 C    0.969
    44   1 H    0.996 --    14 C    0.972
    45   1 H    0.994 --    15 C    0.960
    46   1 H    0.971 --    15 C    0.924
    47   1 H    0.984 --     2 C    0.894
    48   1 H    0.994 --    16 C    0.956
    49   1 H    0.990 --    18 C    0.963
    50   1 H    0.994 --    18 C    0.967
    51   1 H    0.996 --    19 C    0.972
    52   1 H    0.995 --    19 C    0.971
    53   1 H    0.997 --    21 C    0.968
    54   1 H    0.994 --    22 C    0.963
    55   1 H    0.990 --    25 C    0.971
    56   1 H    0.990 --    25 C    0.972
    57   1 H    0.992 --    25 C    0.976
    58   1 H    0.992 --    28 C    0.976
    59   1 H    0.991 --    28 C    0.972
    60   1 H    0.991 --    28 C    0.972
    61   1 H    0.996 --    29 C    0.962
    62   1 H    0.985 --    30 C    0.965
    63   1 H    0.986 --    30 C    0.957
    64   1 H    0.992 --    30 C    0.976
    65   1 H    0.991 --    31 C    0.957
    66   1 H    0.989 --    32 C    0.972
    67   1 H    0.996 --    32 C    0.981
    68   1 H    0.993 --    32 C    0.981
    69   1 H    0.992 --    33 C    0.976
    70   1 H    0.997 --    33 C    0.983
    71   1 H    0.993 --    33 C    0.979
    72   1 H    0.968 --     1 N    0.939
 ---------------------------------------------------------------------------

molecular dipole:
                 x           y           z       tot (Debye)
 q only:        1.088       1.238      -1.737
   full:        1.195       1.077      -1.916       6.359

           -------------------------------------------------
          | TOTAL ENERGY              -99.258757414813 Eh   |
          | GRADIENT NORM               0.003475332741 Eh/α |
          | HOMO-LUMO GAP               0.753975875845 eV   |
           -------------------------------------------------

 * finished run on 2024/04/06 at 11:12:30.582
