   * xtb version 6.6.1 (8d0f1dd) compiled by 'conda@1efc2f54142f' on 2023-08-01
          program call               : xtb struc.xyz --opt loose --input .xc1 --gfn2

   ID    Z sym.   atoms
    1    7 N      1, 17
    2    6 C      2-6, 8, 9, 11-16, 18-23, 25, 26, 28-33
    3    8 O      7, 10, 24, 27
    4    1 H      34-72
constraining bond 16 44 to    3.7133300 Å, actual value:    2.7389900 Å

          :  Hamiltonian                  GFN2-xTB          :
 * total energy  :   -99.5736384 Eh     change       -0.4035485E-08 Eh
 * total energy  :   -99.8232748 Eh     change       -0.2496365E+00 Eh
 * total energy  :  -100.1336498 Eh     change       -0.3103750E+00 Eh
 * total energy  :  -100.5018848 Eh     change       -0.3682350E+00 Eh
 * total energy  :   -98.2510390 Eh     change        0.2250846E+01 Eh
 * total energy  :  -100.5623930 Eh     change       -0.2311354E+01 Eh
 * total energy  :  -100.6354446 Eh     change       -0.7305166E-01 Eh
 * total energy  :  -100.6390098 Eh     change       -0.3565201E-02 Eh
 * total energy  :  -100.7149835 Eh     change       -0.7597366E-01 Eh
 * total energy  :  -100.7286927 Eh     change       -0.1370927E-01 Eh
 * total energy  :  -100.8069043 Eh     change       -0.1965688E-02 Eh
 * total energy  :  -100.8074660 Eh     change       -0.5617102E-03 Eh
 * total energy  :  -100.8078679 Eh     change       -0.4018257E-03 Eh
 * total energy  :  -100.8080359 Eh     change       -0.1680383E-03 Eh
 * total energy  :  -100.8081431 Eh     change       -0.1071835E-03 Eh
 * total energy  :  -100.8082244 Eh     change       -0.8130297E-04 Eh
 * total energy  :  -100.8083060 Eh     change       -0.8157469E-04 Eh
 * total energy  :  -100.8083640 Eh     change       -0.5806114E-04 Eh
 * total energy  :  -100.8084113 Eh     change       -0.4724873E-04 Eh
   *** GEOMETRY OPTIMIZATION CONVERGED AFTER 53 ITERATIONS ***

 final structure:
================
72
 xtb: 6.6.1 (8d0f1dd)
N           -1.25071804777448        3.03256758886911        1.44675839969948
C           -1.62056156704169        1.94438163381073        0.76730674490431
C           -3.13931804321463        1.77169757952825        0.33309931487520
C           -3.63390817763552        0.36473864682470        0.39387585327549
C           -4.49249891223851       -0.08496980257702       -0.61173018739332
C           -4.99462207729050       -1.37704970114928       -0.60125536354088
O           -5.81787278087562       -1.90217937376333       -1.52685229048684
C           -6.26836739465222       -1.09720447758395       -2.59153700271572
C           -4.63054939968598       -2.25938653815382        0.45609266843846
O           -5.15528316236968       -3.49488956758329        0.38261179335962
C           -4.87672129299234       -4.42321336779097        1.40565110163719
C           -3.78891847290398       -1.79534028193505        1.45719897133847
C           -3.29899466289680       -0.49854937325345        1.42736476527202
C           -2.10945857516129        2.11690850768615       -0.68261936943613
C           -1.66264916360240        1.12547167638235       -1.73224861452124
C           -0.12252326578155        0.95242283557911       -1.79392728206132
N            0.36231978841643        0.15371150260488       -0.66605418423820
C            1.73647544422293        0.41117500068478       -0.31548328955750
C            2.76049203376385       -0.07953228066684       -1.36919340583338
C            4.16354439683650        0.09217212208424       -0.87734926645258
C            4.83780378761592        1.29407632591563       -1.05594057541177
C            6.13831299185874        1.45431302923310       -0.60888505214377
C            6.79846530552990        0.41381143313343        0.03381995896519
O            8.05927534166504        0.44805046992891        0.49391358474016
C            8.83430548672844        1.61051567411596        0.30880901537674
C            6.11168940720348       -0.81890250924761        0.23583633706054
O            6.82337686137535       -1.77111691958521        0.86445891271627
C            6.24733485764540       -3.03703271759718        1.08483594936785
C            4.80847273796964       -0.95260743797502       -0.21976902407962
C           -0.02334128033719       -1.23558681043944       -0.65825003756493
C           -4.16791010891265        2.77573243927142        0.84020768815926
C           -4.35505327114168        2.61217061315120        2.34992207104879
C           -3.84906629674563        4.22813476205470        0.50840483335711
H           -4.76173046377423        0.59541109334429       -1.40414093061883
H           -6.82682274962293       -0.22902615770835       -2.22935975504362
H           -6.92988115891493       -1.73274274821631       -3.17708366194587
H           -5.43774492077537       -0.76200029206044       -3.22065762987603
H           -5.23583140796515       -4.06834682451656        2.37613265979616
H           -5.41292654020619       -5.32951240193905        1.13167872204796
H           -3.80600330821577       -4.64032934341592        1.46892116688704
H           -3.51046839434957       -2.43921449291364        2.27534302234609
H           -2.65813959060800       -0.16381767345875        2.22779341144807
H           -2.08019719832790        3.15026156220499       -1.00000122058088
H            0.23308334039281        1.65352607872870       -1.79767376992336
H           -2.13948206248935        0.16009993946977       -1.57327811693411
H           -1.98685164308240        1.49870465318346       -2.70581976393187
H           -1.14092085566905        0.98440288439840        0.96758049269298
H            0.06607305094146        0.38103013244852       -2.72920564685480
H            1.94413042698080       -0.08619272763353        0.63562949381977
H            1.85970679246358        1.48703047756498       -0.16867347917543
H            2.61943920648468        0.48829962024707       -2.28992703474757
H            2.57034089167056       -1.13366866533537       -1.57556557665064
H            4.34978639851370        2.11293877960237       -1.56184496282692
H            6.63786792619680        2.39528774500110       -0.77149085885482
H            8.39708292505462        2.46967389826989        0.82601664184110
H            8.95491187691242        1.84507862121284       -0.75291381457692
H            9.80684110274786        1.38457985578050        0.74198900653938
H            7.01511656609746       -3.62428125402629        1.58487994307026
H            5.36594607458284       -2.96929650815205        1.73010904801281
H            5.97584385875513       -3.52292609721526        0.14271881634436
H            4.28352068339519       -1.88492546068320       -0.08115137259379
H            0.22891216312014       -1.74724883582590       -1.59580821745824
H           -1.09924615260863       -1.32315152812642       -0.50498622034694
H            0.47550830058586       -1.74295989051636        0.16453916734596
H           -5.11498544315134        2.50448326929427        0.35238670283526
H           -3.43064578360930        2.87655033759023        2.85934417765405
H           -4.62335702769681        1.58903438742105        2.60390976166617
H           -5.14331110507767        3.27070395058686        2.70270742485373
H           -2.86711235757112        4.48708610465781        0.89854478136775
H           -3.87550652073168        4.40815830599733       -0.56356705099196
H           -4.58822421304973        4.87327659931657        0.97513043649246
H           -0.63173957794501        2.87367144636163        2.22998603132084

          :  Hamiltonian                  GFN2-xTB          :
         :: total energy            -100.808411267146 Eh    ::
         :: gradient norm              0.002586821551 Eh/a0 ::
         :: HOMO-LUMO gap              0.722533581021 eV    ::
         :: SCC energy              -100.766857793381 Eh    ::
         :: -> dispersion             -0.073377302864 Eh    ::
         :: repulsion energy           1.487168114662 Eh    ::

    * Orbital Energies and Occupations

         #    Occupation            Energy/Eh            Energy/eV
      -------------------------------------------------------------
         1        2.0000           -0.8168034             -22.2264
       ...           ...                  ...                  ...
        78        1.9973           -0.5351275             -14.5616
        79        1.9966           -0.5315645             -14.4646
        80        1.9955           -0.5269815             -14.3399
        81        1.9943           -0.5231688             -14.2361
        82        1.9936           -0.5212850             -14.1849
        83        1.9926           -0.5190691             -14.1246
        84        1.9892           -0.5129286             -13.9575
        85        1.9698           -0.4965529             -13.5119
        86        1.9644           -0.4939107             -13.4400
        87        1.8937           -0.4760028             -12.9527
        88        1.8244           -0.4674671             -12.7204
        89        1.7796           -0.4634712             -12.6117
        90        1.6624           -0.4556414             -12.3986 (HOMO)
        91        0.9587           -0.4290888             -11.6761 (LUMO)
        92        0.0023           -0.3230001              -8.7893
        93        0.0019           -0.3200171              -8.7081
        94        0.0015           -0.3164924              -8.6122
        95        0.0013           -0.3146330              -8.5616
        96        0.0000           -0.1976938              -5.3795
        97        0.0000           -0.1921552              -5.2288
        98        0.0000           -0.1769645              -4.8155
        99                         -0.1039620              -2.8289
       100                         -0.0697907              -1.8991
       101                         -0.0659620              -1.7949
       ...                                ...                  ...
       171                          1.1101189              30.2079
      -------------------------------------------------------------
                  HL-Gap            0.0265526 Eh            0.7225 eV

     #   Z          covCN         q      C6AA      α(0)
     1   7 N        1.773    -0.316    29.016     7.977
     2   6 C        3.776     0.089    19.132     6.232
     3   6 C        3.911     0.022    20.149     6.380
     4   6 C        2.970     0.002    27.975     8.676
     5   6 C        2.920    -0.077    29.919     8.970
     6   6 C        2.862     0.134    25.071     8.207
     7   8 O        1.706    -0.220    17.654     5.673
     8   6 C        3.644     0.024    20.501     6.508
     9   6 C        2.864     0.134    25.076     8.208
    10   8 O        1.706    -0.218    17.624     5.668
    11   6 C        3.646     0.024    20.504     6.508
    12   6 C        2.913    -0.069    29.727     8.941
    13   6 C        2.920    -0.045    29.124     8.850
    14   6 C        3.858    -0.025    20.986     6.515
    15   6 C        3.800    -0.072    21.870     6.658
    16   6 C        3.749    -0.024    21.069     6.547
    17   7 N        2.725    -0.123    23.667     7.225
    18   6 C        3.753    -0.002    20.671     6.483
    19   6 C        3.807    -0.072    21.874     6.658
    20   6 C        2.967     0.010    27.790     8.647
    21   6 C        2.921    -0.043    29.060     8.840
    22   6 C        2.912    -0.064    29.597     8.921
    23   6 C        2.864     0.137    25.015     8.198
    24   8 O        1.706    -0.212    17.520     5.651
    25   6 C        3.645     0.022    20.534     6.513
    26   6 C        2.862     0.136    25.020     8.199
    27   8 O        1.706    -0.216    17.584     5.662
    28   6 C        3.645     0.025    20.495     6.507
    29   6 C        2.919    -0.076    29.892     8.966
    30   6 C        3.698    -0.046    21.561     6.642
    31   6 C        3.852    -0.004    20.622     6.459
    32   6 C        3.757    -0.113    22.711     6.795
    33   6 C        3.755    -0.123    22.921     6.827
    34   1 H        0.926     0.056     2.247     2.344
    35   1 H        0.924     0.057     2.233     2.337
    36   1 H        0.925     0.085     1.928     2.171
    37   1 H        0.924     0.053     2.283     2.363
    38   1 H        0.924     0.059     2.212     2.326
    39   1 H        0.925     0.085     1.932     2.173
    40   1 H        0.924     0.054     2.268     2.355
    41   1 H        0.926     0.059     2.211     2.325
    42   1 H        0.926     0.054     2.274     2.358
    43   1 H        0.925     0.079     1.993     2.207
    44   1 H        0.930     0.104     1.745     2.065
    45   1 H        0.925     0.053     2.283     2.363
    46   1 H        0.924     0.060     2.204     2.322
    47   1 H        0.924     0.037     2.483     2.464
    48   1 H        0.921     0.037     2.489     2.467
    49   1 H        0.924     0.051     2.313     2.378
    50   1 H        0.924     0.054     2.273     2.358
    51   1 H        0.924     0.052     2.292     2.367
    52   1 H        0.924     0.052     2.291     2.367
    53   1 H        0.926     0.054     2.267     2.354
    54   1 H        0.926     0.063     2.166     2.302
    55   1 H        0.924     0.060     2.203     2.321
    56   1 H        0.924     0.060     2.195     2.317
    57   1 H        0.925     0.086     1.919     2.167
    58   1 H        0.925     0.085     1.930     2.173
    59   1 H        0.924     0.054     2.270     2.356
    60   1 H        0.924     0.057     2.236     2.339
    61   1 H        0.926     0.054     2.276     2.359
    62   1 H        0.924     0.042     2.418     2.432
    63   1 H        0.924     0.051     2.302     2.372
    64   1 H        0.925     0.055     2.256     2.349
    65   1 H        0.923     0.054     2.277     2.360
    66   1 H        0.925     0.057     2.233     2.337
    67   1 H        0.925     0.040     2.445     2.445
    68   1 H        0.925     0.056     2.252     2.347
    69   1 H        0.925     0.081     1.969     2.194
    70   1 H        0.925     0.043     2.406     2.425
    71   1 H        0.925     0.058     2.224     2.332
    72   1 H        0.860     0.150     1.398     1.852

Wiberg/Mayer (AO) data.
largest (>0.10) Wiberg bond orders for each atom

     #   Z sym  total        # sym  WBO       # sym  WBO       # sym  WBO
 ---------------------------------------------------------------------------
     1   7 N    2.384 --     2 C    1.349    72 H    0.947
     2   6 C    3.845 --     1 N    1.349    47 H    0.930    14 C    0.809
                             3 C    0.713
     3   6 C    3.764 --     4 C    1.001    14 C    0.978    31 C    0.974
                             2 C    0.713
     4   6 C    3.930 --    13 C    1.397     5 C    1.364     3 C    1.001
     5   6 C    3.947 --     6 C    1.392     4 C    1.364    34 H    0.961
     6   6 C    3.890 --     5 C    1.392     9 C    1.211     7 O    1.111
     7   8 O    2.253 --     6 C    1.111     8 C    0.976
     8   6 C    3.927 --    36 H    0.976     7 O    0.976    37 H    0.972
                            35 H    0.972
     9   6 C    3.885 --    12 C    1.381     6 C    1.211    10 O    1.114
    10   8 O    2.253 --     9 C    1.114    11 C    0.975
    11   6 C    3.926 --    39 H    0.976    10 O    0.975    40 H    0.972
                            38 H    0.972
    12   6 C    3.953 --    13 C    1.415     9 C    1.381    41 H    0.962
    13   6 C    3.936 --    12 C    1.415     4 C    1.397    42 H    0.965
    14   6 C    3.837 --    15 C    1.007     3 C    0.978    43 H    0.957
                             2 C    0.809
    15   6 C    3.972 --    14 C    1.007    16 C    0.982    46 H    0.965
                            45 H    0.965
    16   6 C    3.959 --    17 N    0.996    15 C    0.982    44 H    0.974
                            48 H    0.954
    17   7 N    3.114 --    30 C    1.021    18 C    1.016    16 C    0.996
    18   6 C    3.962 --    17 N    1.016    50 H    0.969    49 H    0.968
                            19 C    0.951
    19   6 C    3.963 --    20 C    1.020    52 H    0.969    51 H    0.969
                            18 C    0.951
    20   6 C    3.920 --    21 C    1.382    29 C    1.382    19 C    1.020
    21   6 C    3.920 --    22 C    1.430    20 C    1.382    53 H    0.967
    22   6 C    3.946 --    21 C    1.430    23 C    1.368    54 H    0.962
    23   6 C    3.865 --    22 C    1.368    26 C    1.205    24 O    1.122
    24   8 O    2.248 --    23 C    1.122    25 C    0.974
    25   6 C    3.922 --    57 H    0.976    24 O    0.974    56 H    0.971
                            55 H    0.970
    26   6 C    3.875 --    29 C    1.387    23 C    1.205    27 O    1.114
    27   8 O    2.249 --    26 C    1.114    28 C    0.976
    28   6 C    3.927 --    27 O    0.976    58 H    0.976    59 H    0.972
                            60 H    0.971
    29   6 C    3.946 --    26 C    1.387    20 C    1.382    61 H    0.961
    30   6 C    3.971 --    17 N    1.021    64 H    0.980    63 H    0.970
                            62 H    0.963
    31   6 C    3.966 --    33 C    1.008    32 C    0.996     3 C    0.974
                            65 H    0.939
    32   6 C    3.972 --    31 C    0.996    68 H    0.982    67 H    0.982
                            66 H    0.977
    33   6 C    3.967 --    31 C    1.008    70 H    0.980    71 H    0.978
                            69 H    0.962
    34   1 H    0.995 --     5 C    0.961
    35   1 H    0.991 --     8 C    0.972
    36   1 H    0.992 --     8 C    0.976
    37   1 H    0.991 --     8 C    0.972
    38   1 H    0.990 --    11 C    0.972
    39   1 H    0.992 --    11 C    0.976
    40   1 H    0.991 --    11 C    0.972
    41   1 H    0.994 --    12 C    0.962
    42   1 H    0.996 --    13 C    0.965
    43   1 H    0.989 --    14 C    0.957
    44   1 H    0.989 --    16 C    0.974
    45   1 H    0.996 --    15 C    0.965
    46   1 H    0.988 --    15 C    0.965
    47   1 H    0.970 --     2 C    0.930
    48   1 H    0.978 --    16 C    0.954
    49   1 H    0.993 --    18 C    0.968
    50   1 H    0.993 --    18 C    0.969
    51   1 H    0.994 --    19 C    0.969
    52   1 H    0.995 --    19 C    0.969
    53   1 H    0.996 --    21 C    0.967
    54   1 H    0.994 --    22 C    0.962
    55   1 H    0.988 --    25 C    0.970
    56   1 H    0.988 --    25 C    0.971
    57   1 H    0.992 --    25 C    0.976
    58   1 H    0.992 --    28 C    0.976
    59   1 H    0.990 --    28 C    0.972
    60   1 H    0.990 --    28 C    0.971
    61   1 H    0.995 --    29 C    0.961
    62   1 H    0.978 --    30 C    0.963
    63   1 H    0.990 --    30 C    0.970
    64   1 H    0.996 --    30 C    0.980
    65   1 H    0.975 --    31 C    0.939
    66   1 H    0.993 --    32 C    0.977
    67   1 H    0.996 --    32 C    0.982
    68   1 H    0.994 --    32 C    0.982
    69   1 H    0.986 --    33 C    0.962
    70   1 H    0.994 --    33 C    0.980
    71   1 H    0.992 --    33 C    0.978
    72   1 H    0.966 --     1 N    0.947
 ---------------------------------------------------------------------------

molecular dipole:
                 x           y           z       tot (Debye)
 q only:        0.335      -0.113      -0.442
   full:        0.512      -0.463      -0.491       2.153

           -------------------------------------------------
          | TOTAL ENERGY             -100.808411267146 Eh   |
          | GRADIENT NORM               0.002586821551 Eh/α |
          | HOMO-LUMO GAP               0.722533581021 eV   |
           -------------------------------------------------

 * finished run on 2024/04/06 at 11:16:37.087
