   * xtb version 6.6.1 (8d0f1dd) compiled by 'conda@1efc2f54142f' on 2023-08-01
          program call               : xtb xtbopt.xyz --opt crude --input .xc2 --gfn2

   ID    Z sym.   atoms
    1    7 N      1, 17
    2    6 C      2-6, 8, 9, 11-16, 18-23, 25, 26, 28-33
    3    8 O      7, 10, 24, 27
    4    1 H      34-72
########################################################################
[WARNING] Please study the warnings concerning your input carefully
-1- readin_getIntValue: could not parse ''
########################################################################

          :  Hamiltonian                  GFN2-xTB          :
 * total energy  :   -99.2784885 Eh     change       -0.2842171E-12 Eh
 * total energy  :   -99.3876623 Eh     change       -0.1091738E+00 Eh
 * total energy  :   -99.3891835 Eh     change       -0.1521124E-02 Eh
 * total energy  :   -99.3898571 Eh     change       -0.6736735E-03 Eh
 * total energy  :   -99.3899790 Eh     change       -0.1218791E-03 Eh
   *** GEOMETRY OPTIMIZATION CONVERGED AFTER 5 ITERATIONS ***

 final structure:
================
72
 xtb: 6.6.1 (8d0f1dd)
N           -1.24795498990168        3.02170890594042        1.43970629928818
C           -1.62189067663168        1.92997912369607        0.76852992653444
C           -3.13759851556277        1.76296129690391        0.33700772516110
C           -3.63889696460272        0.35855521249532        0.40032062327759
C           -4.49738641532759       -0.08878288422375       -0.60640779822407
C           -5.00152424050187       -1.37996979834443       -0.59776367698648
O           -5.82441572267966       -1.90291739345212       -1.52506297437874
C           -6.27141755325155       -1.09504336729615       -2.58908172534959
C           -4.63926039746966       -2.26360763663167        0.45913241842736
O           -5.16332845247133       -3.49930093884646        0.38255921005040
C           -4.88643905719704       -4.42925344149996        1.40457777057735
C           -3.79935145537452       -1.80129851914407        1.46246499495147
C           -3.30717826308681       -0.50520823393820        1.43437217229322
C           -2.11252655688489        2.09962365847268       -0.68491920794717
C           -1.66896663763769        1.10850913032360       -1.73647001130032
C           -0.14751166089972        0.90696202096076       -1.79145715945980
N            0.35857602601886        0.14476957579247       -0.66887525365977
C            1.73216684175601        0.40221560949956       -0.31998112709198
C            2.75864940222529       -0.08173739580853       -1.37450605039359
C            4.16070313231575        0.09309255572631       -0.88030705941419
C            4.83399623298257        1.29583685550259       -1.05744095942790
C            6.13375450653392        1.45731441709784       -0.60859071464823
C            6.79435349040465        0.41771849792333        0.03521558200615
O            8.05446572654538        0.45390762820590        0.49697838820751
C            8.82905886743809        1.61672575254401        0.31163777989389
C            6.10842678626855       -0.81555854639827        0.23635377543633
O            6.81987935531327       -1.76708687762483        0.86635257244681
C            6.24472552086144       -3.03360101905185        1.08559194608874
C            4.80614426688569       -0.95066293409003       -0.22155354250836
C           -0.02392687109518       -1.24872001264290       -0.65290079679345
C           -4.16103610658707        2.77441861812923        0.84144295493774
C           -4.34203995356036        2.62126527962694        2.35237118993222
C           -3.83752332934222        4.22328993793754        0.50031168751365
H           -4.76423339707455        0.59342987059895       -1.39807084250821
H           -6.82913722917585       -0.22683505948977       -2.22605309377625
H           -6.93266369132469       -1.72801053693923       -3.17757515333700
H           -5.43895415913804       -0.75972448017617       -3.21560317604857
H           -5.24443768775778       -4.07480122760391        2.37559490829052
H           -5.42463615559592       -5.33407113076311        1.12954545099207
H           -3.81605238428913       -4.64858800878916        1.46717855938481
H           -3.52372777058971       -2.44645094345977        2.28054747928878
H           -2.66663194490269       -0.17174461769539        2.23559209419941
H           -2.07518051484426        3.13260473270258       -1.00200063758461
H            0.34021847104255        1.88159325386653       -1.78774927168594
H           -2.15827493692291        0.14624692744195       -1.58376574941347
H           -1.98801952971659        1.48942848841987       -2.70911967328220
H           -1.13985128006027        0.97120844218338        0.96785861290986
H            0.08977056648742        0.40001789203509       -2.74124382982188
H            1.94223042732909       -0.09659472174975        0.62984820361997
H            1.85188214206391        1.47807229352111       -0.17078173787319
H            2.61527686488656        0.48902565768965       -2.29288831016793
H            2.57237231039768       -1.13582837826003       -1.58456952545512
H            4.34612858443732        2.11450941163767       -1.56369238039740
H            6.63304129985645        2.39859290236842       -0.77044710141172
H            8.39131121247413        2.47606884862901        0.82812339051500
H            8.95042279739075        1.85082552145895       -0.75008733061486
H            9.80137526303058        1.39136698571297        0.74558553940870
H            7.01236382679584       -3.62020520349682        1.58663602846091
H            5.36231337236514       -2.96687114334543        1.72954369274083
H            5.97519516514756       -3.51945705519837        0.14289361133154
H            4.28230114247982       -1.88369585924983       -0.08366862712746
H            0.23173060050762       -1.76779906041070       -1.58594084224018
H           -1.10000269263288       -1.33931973339470       -0.50115751117906
H            0.47525286364140       -1.75031817517817        0.17392446348230
H           -5.11056624145691        2.50482931715460        0.35878059676998
H           -3.41675723388665        2.89343800390974        2.85591069218702
H           -4.60442959480659        1.59889428831926        2.61470107307568
H           -5.13209247454757        3.27907174738300        2.70349823935931
H           -2.85709215408760        4.48285820137933        0.89354191369435
H           -3.85765994810191        4.39582614043212       -0.57305745579547
H           -4.57848856424015        4.87347775526892        0.95836754163504
H           -0.61250806363345        2.86696309779842        2.21145604153752

          :  Hamiltonian                  GFN2-xTB          :
         :: total energy             -99.389979019480 Eh    ::
         :: gradient norm              0.003138857627 Eh/a0 ::
         :: HOMO-LUMO gap              0.723806394328 eV    ::
         :: SCC energy              -100.742517332001 Eh    ::
         :: -> dispersion             -0.073384776622 Eh    ::
         :: repulsion energy           1.351333842432 Eh    ::

    * Orbital Energies and Occupations

         #    Occupation            Energy/Eh            Energy/eV
      -------------------------------------------------------------
         1        2.0000           -0.8168430             -22.2274
       ...           ...                  ...                  ...
        78        1.9973           -0.5351821             -14.5630
        79        1.9967           -0.5315987             -14.4655
        80        1.9955           -0.5269356             -14.3386
        81        1.9943           -0.5231849             -14.2366
        82        1.9935           -0.5210960             -14.1797
        83        1.9926           -0.5189775             -14.1221
        84        1.9892           -0.5129882             -13.9591
        85        1.9698           -0.4965390             -13.5115
        86        1.9645           -0.4939321             -13.4406
        87        1.8946           -0.4761185             -12.9558
        88        1.8247           -0.4674778             -12.7207
        89        1.7805           -0.4635305             -12.6133
        90        1.6623           -0.4556157             -12.3979 (HOMO)
        91        0.9569           -0.4290163             -11.6741 (LUMO)
        92        0.0023           -0.3230137              -8.7897
        93        0.0019           -0.3200474              -8.7089
        94        0.0015           -0.3165286              -8.6132
        95        0.0013           -0.3146530              -8.5621
        96        0.0000           -0.1976905              -5.3794
        97        0.0000           -0.1921836              -5.2296
        98        0.0000           -0.1758948              -4.7863
        99                         -0.0966880              -2.6310
       100                         -0.0696361              -1.8949
       101                         -0.0660047              -1.7961
       ...                                ...                  ...
       171                          0.5692126              15.4891
      -------------------------------------------------------------
                  HL-Gap            0.0265994 Eh            0.7238 eV

     #   Z          covCN         q      C6AA      α(0)
     1   7 N        1.773    -0.316    29.004     7.975
     2   6 C        3.777     0.089    19.127     6.231
     3   6 C        3.912     0.022    20.145     6.379
     4   6 C        2.970     0.002    27.975     8.676
     5   6 C        2.920    -0.077    29.920     8.970
     6   6 C        2.862     0.134    25.072     8.207
     7   8 O        1.706    -0.220    17.657     5.673
     8   6 C        3.645     0.025    20.498     6.507
     9   6 C        2.864     0.134    25.078     8.209
    10   8 O        1.706    -0.218    17.627     5.669
    11   6 C        3.645     0.024    20.503     6.508
    12   6 C        2.913    -0.069    29.728     8.941
    13   6 C        2.920    -0.045    29.124     8.850
    14   6 C        3.858    -0.025    20.977     6.514
    15   6 C        3.801    -0.069    21.815     6.650
    16   6 C        3.750    -0.003    20.688     6.487
    17   7 N        2.725    -0.112    23.451     7.192
    18   6 C        3.752    -0.003    20.683     6.485
    19   6 C        3.806    -0.072    21.871     6.657
    20   6 C        2.967     0.010    27.786     8.646
    21   6 C        2.921    -0.043    29.058     8.840
    22   6 C        2.912    -0.064    29.597     8.921
    23   6 C        2.864     0.137    25.015     8.198
    24   8 O        1.706    -0.212    17.520     5.651
    25   6 C        3.645     0.022    20.535     6.513
    26   6 C        2.862     0.136    25.020     8.199
    27   8 O        1.706    -0.216    17.585     5.662
    28   6 C        3.645     0.025    20.495     6.507
    29   6 C        2.919    -0.076    29.892     8.966
    30   6 C        3.700    -0.046    21.559     6.640
    31   6 C        3.852    -0.004    20.621     6.459
    32   6 C        3.757    -0.113    22.713     6.795
    33   6 C        3.755    -0.123    22.923     6.827
    34   1 H        0.926     0.056     2.247     2.344
    35   1 H        0.924     0.057     2.233     2.337
    36   1 H        0.925     0.085     1.928     2.172
    37   1 H        0.924     0.053     2.285     2.364
    38   1 H        0.924     0.059     2.213     2.326
    39   1 H        0.925     0.085     1.932     2.174
    40   1 H        0.924     0.054     2.269     2.356
    41   1 H        0.926     0.059     2.212     2.326
    42   1 H        0.926     0.054     2.276     2.359
    43   1 H        0.926     0.079     1.989     2.205
    44   1 H        0.925     0.059     2.210     2.325
    45   1 H        0.924     0.054     2.271     2.357
    46   1 H        0.924     0.061     2.188     2.313
    47   1 H        0.924     0.037     2.490     2.467
    48   1 H        0.923     0.042     2.425     2.435
    49   1 H        0.924     0.051     2.305     2.374
    50   1 H        0.924     0.054     2.265     2.354
    51   1 H        0.924     0.053     2.289     2.366
    52   1 H        0.924     0.052     2.295     2.369
    53   1 H        0.926     0.054     2.267     2.354
    54   1 H        0.926     0.063     2.165     2.301
    55   1 H        0.924     0.060     2.202     2.321
    56   1 H        0.924     0.060     2.195     2.317
    57   1 H        0.925     0.086     1.919     2.166
    58   1 H        0.925     0.085     1.930     2.172
    59   1 H        0.924     0.054     2.270     2.356
    60   1 H        0.924     0.057     2.237     2.339
    61   1 H        0.926     0.053     2.277     2.360
    62   1 H        0.924     0.043     2.408     2.427
    63   1 H        0.924     0.052     2.293     2.368
    64   1 H        0.925     0.056     2.248     2.345
    65   1 H        0.923     0.053     2.278     2.360
    66   1 H        0.925     0.058     2.228     2.334
    67   1 H        0.925     0.040     2.444     2.445
    68   1 H        0.925     0.056     2.252     2.347
    69   1 H        0.925     0.081     1.968     2.194
    70   1 H        0.925     0.043     2.407     2.426
    71   1 H        0.925     0.058     2.224     2.332
    72   1 H        0.860     0.150     1.398     1.852

Wiberg/Mayer (AO) data.
largest (>0.10) Wiberg bond orders for each atom

     #   Z sym  total        # sym  WBO       # sym  WBO       # sym  WBO
 ---------------------------------------------------------------------------
     1   7 N    2.384 --     2 C    1.349    72 H    0.947
     2   6 C    3.844 --     1 N    1.349    47 H    0.930    14 C    0.803
                             3 C    0.718
     3   6 C    3.770 --     4 C    1.000    14 C    0.980    31 C    0.972
                             2 C    0.718
     4   6 C    3.930 --    13 C    1.397     5 C    1.364     3 C    1.000
     5   6 C    3.947 --     6 C    1.392     4 C    1.364    34 H    0.961
     6   6 C    3.890 --     5 C    1.392     9 C    1.211     7 O    1.110
     7   8 O    2.253 --     6 C    1.110     8 C    0.976
     8   6 C    3.927 --    36 H    0.976     7 O    0.976    37 H    0.972
                            35 H    0.972
     9   6 C    3.885 --    12 C    1.381     6 C    1.211    10 O    1.114
    10   8 O    2.253 --     9 C    1.114    11 C    0.975
    11   6 C    3.926 --    39 H    0.976    10 O    0.975    40 H    0.972
                            38 H    0.972
    12   6 C    3.954 --    13 C    1.415     9 C    1.381    41 H    0.962
    13   6 C    3.936 --    12 C    1.415     4 C    1.397    42 H    0.965
    14   6 C    3.832 --    15 C    1.007     3 C    0.980    43 H    0.957
                             2 C    0.803
    15   6 C    3.973 --    14 C    1.007    16 C    0.988    46 H    0.964
                            45 H    0.962
    16   6 C    3.967 --    17 N    1.005    15 C    0.988    44 H    0.970
                            48 H    0.953
    17   7 N    3.119 --    30 C    1.016    18 C    1.016    16 C    1.005
    18   6 C    3.961 --    17 N    1.016    49 H    0.968    50 H    0.968
                            19 C    0.951
    19   6 C    3.963 --    20 C    1.020    52 H    0.969    51 H    0.969
                            18 C    0.951
    20   6 C    3.921 --    21 C    1.382    29 C    1.382    19 C    1.020
    21   6 C    3.921 --    22 C    1.430    20 C    1.382    53 H    0.967
    22   6 C    3.946 --    21 C    1.430    23 C    1.368    54 H    0.962
    23   6 C    3.865 --    22 C    1.368    26 C    1.205    24 O    1.122
    24   8 O    2.248 --    23 C    1.122    25 C    0.974
    25   6 C    3.922 --    57 H    0.976    24 O    0.974    56 H    0.971
                            55 H    0.970
    26   6 C    3.875 --    29 C    1.387    23 C    1.205    27 O    1.114
    27   8 O    2.249 --    26 C    1.114    28 C    0.976
    28   6 C    3.927 --    27 O    0.976    58 H    0.976    59 H    0.972
                            60 H    0.971
    29   6 C    3.946 --    26 C    1.387    20 C    1.382    61 H    0.961
    30   6 C    3.970 --    17 N    1.016    64 H    0.980    63 H    0.971
                            62 H    0.963
    31   6 C    3.966 --    33 C    1.008    32 C    0.996     3 C    0.972
                            65 H    0.940
    32   6 C    3.972 --    31 C    0.996    68 H    0.982    67 H    0.982
                            66 H    0.976
    33   6 C    3.967 --    31 C    1.008    70 H    0.980    71 H    0.978
                            69 H    0.962
    34   1 H    0.995 --     5 C    0.961
    35   1 H    0.991 --     8 C    0.972
    36   1 H    0.992 --     8 C    0.976
    37   1 H    0.991 --     8 C    0.972
    38   1 H    0.990 --    11 C    0.972
    39   1 H    0.992 --    11 C    0.976
    40   1 H    0.991 --    11 C    0.972
    41   1 H    0.994 --    12 C    0.962
    42   1 H    0.996 --    13 C    0.965
    43   1 H    0.989 --    14 C    0.957
    44   1 H    0.996 --    16 C    0.970
    45   1 H    0.996 --    15 C    0.962
    46   1 H    0.988 --    15 C    0.964
    47   1 H    0.970 --     2 C    0.930
    48   1 H    0.976 --    16 C    0.953
    49   1 H    0.993 --    18 C    0.968
    50   1 H    0.993 --    18 C    0.968
    51   1 H    0.994 --    19 C    0.969
    52   1 H    0.995 --    19 C    0.969
    53   1 H    0.996 --    21 C    0.967
    54   1 H    0.994 --    22 C    0.962
    55   1 H    0.988 --    25 C    0.970
    56   1 H    0.988 --    25 C    0.971
    57   1 H    0.992 --    25 C    0.976
    58   1 H    0.992 --    28 C    0.976
    59   1 H    0.990 --    28 C    0.972
    60   1 H    0.990 --    28 C    0.971
    61   1 H    0.995 --    29 C    0.961
    62   1 H    0.978 --    30 C    0.963
    63   1 H    0.990 --    30 C    0.971
    64   1 H    0.996 --    30 C    0.980
    65   1 H    0.975 --    31 C    0.940
    66   1 H    0.993 --    32 C    0.976
    67   1 H    0.996 --    32 C    0.982
    68   1 H    0.994 --    32 C    0.982
    69   1 H    0.986 --    33 C    0.962
    70   1 H    0.994 --    33 C    0.980
    71   1 H    0.992 --    33 C    0.978
    72   1 H    0.966 --     1 N    0.947
 ---------------------------------------------------------------------------

molecular dipole:
                 x           y           z       tot (Debye)
 q only:        0.323      -0.164      -0.419
   full:        0.512      -0.496      -0.487       2.194

           -------------------------------------------------
          | TOTAL ENERGY              -99.389979019480 Eh   |
          | GRADIENT NORM               0.003138857627 Eh/α |
          | HOMO-LUMO GAP               0.723806394328 eV   |
           -------------------------------------------------

 * finished run on 2024/04/06 at 11:16:38.196
