   * xtb version 6.6.1 (8d0f1dd) compiled by 'conda@1efc2f54142f' on 2023-08-01
          program call               : xtb struc.xyz --opt loose --input .xc1 --gfn2

   ID    Z sym.   atoms
    1    6 C      1, 3, 5-7, 10, 11, 14
    2    7 N      2, 4, 9, 13
    3    8 O      8, 12
    4    1 H      15-25
constraining bond 3 15 to    3.7133300 Å, actual value:    2.8727362 Å

          :  Hamiltonian                  GFN2-xTB          :
 * total energy  :   -43.5095119 Eh     change       -0.6650680E-10 Eh
 * total energy  :   -46.5465474 Eh     change       -0.3037036E+01 Eh
 * total energy  :   -51.3618493 Eh     change       -0.4815302E+01 Eh
 * total energy  :   -57.9206119 Eh     change       -0.6558763E+01 Eh
 * total energy  :   -31.7151808 Eh     change        0.2620543E+02 Eh
 * total energy  :   -56.7234077 Eh     change       -0.2500823E+02 Eh
 * total energy  :   -56.8540562 Eh     change       -0.1306485E+00 Eh
 * total energy  :   -57.7101651 Eh     change       -0.8561089E+00 Eh
 * total energy  :   -58.0975463 Eh     change       -0.3873812E+00 Eh
 * total energy  :   -59.0509191 Eh     change       -0.9533728E+00 Eh
 * total energy  :   -59.7421905 Eh     change       -0.9342918E-04 Eh
 * total energy  :   -59.7422610 Eh     change       -0.7043308E-04 Eh
 * total energy  :   -59.7423283 Eh     change       -0.6734699E-04 Eh
 * total energy  :   -59.7423894 Eh     change       -0.6106951E-04 Eh
 * total energy  :   -59.7424543 Eh     change       -0.6491039E-04 Eh
 * total energy  :   -59.7424965 Eh     change       -0.4220615E-04 Eh
 * total energy  :   -59.7425073 Eh     change       -0.1082697E-04 Eh
 * total energy  :   -59.7425265 Eh     change       -0.1915058E-04 Eh
 * total energy  :   -59.7425310 Eh     change       -0.4562153E-05 Eh
   *** GEOMETRY OPTIMIZATION CONVERGED AFTER 57 ITERATIONS ***

 final structure:
================
25
 xtb: 6.6.1 (8d0f1dd)
C            3.25151388727954        1.19662711746563        0.06549113566420
N            2.19424787624083        0.27958504677452        0.07412880336671
C            3.50882850436589       -0.31254776859600        0.19870999498154
N            1.17518448561325       -2.20271890756476        0.15388875125159
C            0.35279775346372       -1.23580114024644        0.08174367953786
C            0.91487263873255        0.10675719736190        0.03108024825467
C            0.05551217069076        1.30558386035059       -0.06482547406284
O            0.52617782791427        2.41963268547397       -0.11656497160813
N           -1.29094844765899        1.04081000053330       -0.08461005240399
C           -2.21524265358890        2.15924386425472       -0.15977562209739
C           -1.87513398046921       -0.22187350628483       -0.02835786509974
O           -3.06994358105162       -0.34817407842594       -0.04498353126276
N           -1.02312918240063       -1.31868846129815        0.04259680505664
C           -1.64157065390709       -2.63340456872276        0.08681133809324
H            3.64182273075346       -0.49853977180947        0.55623578914417
H            3.43987047351097        1.72886183284747       -0.85969385638656
H            3.36336076308143        1.81752877829028        0.94887794721642
H            3.78662493321185       -0.73728786364704       -0.80546814197878
H           -1.64107657831519        3.06928174434811       -0.31967398751522
H           -2.91901352365523        1.99880004856680       -0.97695025465227
H           -2.78530304143147        2.23434048173822        0.76773411856028
H           -1.39842308237668       -3.13634023457545        1.02456007387664
H           -1.30345765184911       -3.23839009451030       -0.75624957853398
H           -2.72058492304131       -2.50276908769802        0.02283146187134
H            0.83344476898789       -3.15227863302624        0.19363480662616

          :  Hamiltonian                  GFN2-xTB          :
         :: total energy             -59.742531037033 Eh    ::
         :: gradient norm              0.003692437561 Eh/a0 ::
         :: HOMO-LUMO gap              1.712440422366 eV    ::
         :: SCC energy               -42.696734400161 Eh    ::
         :: -> dispersion             -0.021791900349 Eh    ::
         :: repulsion energy           2.268445767359 Eh    ::

    * Orbital Energies and Occupations

         #    Occupation            Energy/Eh            Energy/eV
      -------------------------------------------------------------
         1        2.0000           -0.8963528             -24.3910
       ...           ...                  ...                  ...
        25        1.9994           -0.6590421             -17.9334
        26        1.9993           -0.6565870             -17.8666
        27        1.9989           -0.6482624             -17.6401
        28        1.9988           -0.6472078             -17.6114
        29        1.9981           -0.6399113             -17.4129
        30        1.9966           -0.6309678             -17.1695
        31        1.9961           -0.6286505             -17.1065
        32        1.9921           -0.6175531             -16.8045
        33        1.9709           -0.5967402             -16.2381
        34        1.9499           -0.5879883             -16.0000
        35        1.9394           -0.5848910             -15.9157
        36        1.8893           -0.5749410             -15.6449
        37        1.8633           -0.5713741             -15.5479 (HOMO)
        38        0.4077           -0.5084431             -13.8354 (LUMO)
        39        0.0006           -0.4008769             -10.9084
        40        0.0003           -0.3901699             -10.6171
        41        0.0000           -0.3046061              -8.2888
        42        0.0000           -0.3017767              -8.2118
        43                         -0.2183914              -5.9427
        44                         -0.1751642              -4.7665
        45                         -0.1401331              -3.8132
        46                         -0.0989844              -2.6935
        47                         -0.0689534              -1.8763
        48                         -0.0528087              -1.4370
       ...                                ...                  ...
        67                         10.7215072             291.7471
      -------------------------------------------------------------
                  HL-Gap            0.0629310 Eh            1.7124 eV

     #   Z          covCN         q      C6AA      α(0)
     1   6 C        3.737    -0.020    21.017     6.542
     2   7 N        2.747     0.080    19.852     6.617
     3   6 C        3.731    -0.066    21.856     6.673
     4   7 N        1.792    -0.286    28.249     7.873
     5   6 C        2.827     0.165    24.444     8.101
     6   6 C        2.899     0.040    27.097     8.535
     7   6 C        2.772     0.267    22.486     7.766
     8   8 O        0.858    -0.336    20.450     6.063
     9   7 N        2.740    -0.066    22.510     7.047
    10   6 C        3.707    -0.063    21.858     6.683
    11   6 C        2.716     0.323    21.513     7.593
    12   8 O        0.860    -0.335    20.424     6.059
    13   7 N        2.741    -0.069    22.584     7.058
    14   6 C        3.703    -0.064    21.893     6.690
    15   1 H        0.936     0.194     1.128     1.661
    16   1 H        0.925     0.128     1.551     1.947
    17   1 H        0.925     0.131     1.527     1.932
    18   1 H        0.919     0.122     1.598     1.977
    19   1 H        0.925     0.118     1.627     1.995
    20   1 H        0.924     0.114     1.662     2.016
    21   1 H        0.924     0.112     1.683     2.029
    22   1 H        0.924     0.094     1.844     2.124
    23   1 H        0.924     0.093     1.852     2.128
    24   1 H        0.925     0.123     1.586     1.969
    25   1 H        0.860     0.201     1.101     1.644

Wiberg/Mayer (AO) data.
largest (>0.10) Wiberg bond orders for each atom

     #   Z sym  total        # sym  WBO       # sym  WBO       # sym  WBO
 ---------------------------------------------------------------------------
     1   6 C    3.888 --     2 N    0.985     3 C    0.962    16 H    0.944
                            17 H    0.939
     2   7 N    3.519 --     6 C    1.502     1 C    0.985     3 C    0.941
     3   6 C    3.845 --     1 C    0.962     2 N    0.941    15 H    0.940
                            18 H    0.926
     4   7 N    2.843 --     5 C    1.676    25 H    0.921    13 N    0.122
     5   6 C    3.947 --     4 N    1.676    13 N    1.122     6 C    1.058
     6   6 C    3.781 --     2 N    1.502     5 C    1.058     7 C    1.000
     7   6 C    3.930 --     8 O    1.684     9 N    1.150     6 C    1.000
     8   8 O    1.973 --     7 C    1.684     9 N    0.148
     9   7 N    3.523 --     7 C    1.150    11 C    1.079    10 C    0.974
                             8 O    0.148    12 O    0.104
    10   6 C    3.881 --     9 N    0.974    19 H    0.964    20 H    0.951
                            21 H    0.947
    11   6 C    3.949 --    12 O    1.696    13 N    1.091     9 N    1.079
    12   8 O    2.013 --    11 C    1.696    13 N    0.113     9 N    0.104
    13   7 N    3.492 --     5 C    1.122    11 C    1.091    14 C    0.978
                             4 N    0.122    12 O    0.113
    14   6 C    3.904 --    13 N    0.978    24 H    0.961    23 H    0.960
                            22 H    0.959
    15   1 H    0.959 --     3 C    0.940
    16   1 H    0.973 --     1 C    0.944
    17   1 H    0.971 --     1 C    0.939
    18   1 H    0.969 --     3 C    0.926
    19   1 H    0.980 --    10 C    0.964
    20   1 H    0.969 --    10 C    0.951
    21   1 H    0.966 --    10 C    0.947
    22   1 H    0.977 --    14 C    0.959
    23   1 H    0.978 --    14 C    0.960
    24   1 H    0.981 --    14 C    0.961
    25   1 H    0.951 --     4 N    0.921
 ---------------------------------------------------------------------------

molecular dipole:
                 x           y           z       tot (Debye)
 q only:        2.063      -0.636       0.047
   full:        1.773      -0.842      -0.003       4.988

           -------------------------------------------------
          | TOTAL ENERGY              -59.742531037033 Eh   |
          | GRADIENT NORM               0.003692437561 Eh/α |
          | HOMO-LUMO GAP               1.712440422366 eV   |
           -------------------------------------------------

 * finished run on 2024/06/05 at 20:00:21.865
