   * xtb version 6.6.1 (8d0f1dd) compiled by 'conda@1efc2f54142f' on 2023-08-01
          program call               : xtb struc.xyz --opt loose --input .xc1 --gfn2

   ID    Z sym.   atoms
    1    7 N      1, 17
    2    6 C      2-6, 8, 9, 11-16, 18-23, 25, 26, 28-33
    3    8 O      7, 10, 24, 27
    4    1 H      34-72
constraining bond 20 50 to    5.1400000 Å, actual value:    2.6663396 Å

          :  Hamiltonian                  GFN2-xTB          :
 * total energy  :   -98.3115646 Eh     change       -0.4035485E-08 Eh
 * total energy  :   -98.7019201 Eh     change       -0.3903555E+00 Eh
 * total energy  :   -98.9487419 Eh     change       -0.2468218E+00 Eh
 * total energy  :   -99.0688635 Eh     change       -0.1201215E+00 Eh
 * total energy  :   -99.1248884 Eh     change       -0.5602490E-01 Eh
 * total energy  :   -99.1582951 Eh     change       -0.3340677E-01 Eh
 * total energy  :   -99.1892895 Eh     change       -0.3099432E-01 Eh
 * total energy  :   -99.2139682 Eh     change       -0.2467871E-01 Eh
 * total energy  :   -99.2262967 Eh     change       -0.1232855E-01 Eh
 * total energy  :   -99.2386474 Eh     change       -0.1235065E-01 Eh
 * total energy  :   -99.3912007 Eh     change       -0.7395020E-04 Eh
 * total energy  :   -99.3912728 Eh     change       -0.7205431E-04 Eh
 * total energy  :   -99.3913343 Eh     change       -0.6149969E-04 Eh
 * total energy  :   -99.3913886 Eh     change       -0.5430812E-04 Eh
 * total energy  :   -99.3914520 Eh     change       -0.6347914E-04 Eh
 * total energy  :   -99.3915041 Eh     change       -0.5209142E-04 Eh
 * total energy  :   -99.3915618 Eh     change       -0.5764667E-04 Eh
 * total energy  :   -99.3916094 Eh     change       -0.4756502E-04 Eh
 * total energy  :   -99.3916564 Eh     change       -0.4701281E-04 Eh
   *** GEOMETRY OPTIMIZATION CONVERGED AFTER 122 ITERATIONS ***

 final structure:
================
72
 xtb: 6.6.1 (8d0f1dd)
N           -1.07452172177371        1.49880977959853        1.27352266484316
C           -1.30927986715317        1.12224920505000        0.10390084271191
C           -2.66847208044859        1.17048668809416       -0.54976661384890
C           -3.56784602785196        0.06645622218088        0.00069407872785
C           -4.72672828667630       -0.27475321059061       -0.69753178946434
C           -5.58887513368780       -1.25732980742574       -0.23761234818052
O           -6.72724212828116       -1.64163915952533       -0.84736761423660
C           -7.12634097291308       -1.00556600637920       -2.03854987520193
C           -5.29294858777768       -1.93728092608218        0.97537112841937
O           -6.17335057931194       -2.88876334930754        1.33787444885636
C           -5.98154246759300       -3.57419101946991        2.55367642024142
C           -4.15894153803810       -1.56715244150549        1.68151480495699
C           -3.31372589113392       -0.57679905702710        1.20277332741628
C           -2.34097941983869        0.90318120882152       -2.03623363754608
C           -1.14727009354755       -0.04612370664826       -2.00733003342986
C           -0.28134387784764        0.54361475240968       -0.89296885683327
N            0.63145294362022       -0.36811446725693       -0.25383001468713
C            1.89730262422960       -0.06962907349251        0.00421663437163
C            2.61286513026268        1.14800001040297       -0.45199576383875
C            4.09836177320195        1.02729312509050       -0.21986803697104
C            4.77601212127548        1.92791626776964        0.58213704268154
C            6.14430862404762        1.81004629317809        0.78074900949156
C            6.85979554410485        0.78377683015434        0.18198153939565
O            8.18198162297570        0.57052907329944        0.30235512312222
C            8.95324758911003        1.44534042566337        1.09471730295690
C            6.16992416659249       -0.14693431806325       -0.64502388647033
O            6.94263557597892       -1.10732579839202       -1.19041449210130
C            6.36085641817534       -2.05879925187408       -2.04845122972739
C            4.80438493578261       -0.00884419539476       -0.83038211566052
C            0.08813420674039       -1.62947157236352        0.19769170007144
C           -3.37944834143260        2.54167981985438       -0.34449653555656
C           -3.97596637362019        2.66783758127214        1.05442191783640
C           -2.44881572207954        3.72753349089693       -0.59343391702505
H           -4.98089379221769        0.25579868096166       -1.60012250509687
H           -7.30649393896976        0.06256718096612       -1.88238097224421
H           -8.05788500444672       -1.48804605342435       -2.32828861460361
H           -6.38738392003280       -1.14148148766846       -2.83449702343477
H           -6.01016240674359       -2.89014581885268        3.40708533971766
H           -6.80907320737715       -4.27709149075197        2.62659920997080
H           -5.03631765374365       -4.12594009132786        2.55865394881982
H           -3.92725516981602       -2.03928312844621        2.62220276088391
H           -2.47457715610749       -0.28078271412428        1.81158570105213
H           -3.17530324672446        0.47202125229159       -2.58080942773832
H           -2.06295544931387        1.83383775910917       -2.53013009145470
H           -1.48725668576827       -1.04832188571826       -1.75027921794910
H           -0.62132680769496       -0.08856130068646       -2.96004718230992
H            0.57250753257166       -0.52210738004399        3.27544024749131
H            0.28395950975946        1.39245594095423       -1.28860149029575
H            2.45660999887609       -0.79424532349378        0.57485783276576
H            1.14807573434946       -0.32982367022239        3.76318065928819
H            2.23985120460367        2.03702183409611        0.07112763965404
H            2.43305388205995        1.31214334287190       -1.52237803859420
H            4.24536527843458        2.73722767387906        1.05959056031530
H            6.64600051726279        2.53014774572507        1.40568220829728
H            8.61313357286118        1.44928869272126        2.13487052209987
H            8.93373614666692        2.46560113183568        0.69900147281884
H            9.96982514864861        1.05938600423986        1.04840635272661
H            7.17767093317917       -2.70587408527215       -2.36346468539970
H            5.60504296241388       -2.65887203633803       -1.53109623994992
H            5.91447301750320       -1.58599222398640       -2.92908200792527
H            4.27145802484050       -0.70309416554335       -1.46170116490091
H            0.13150861504549       -2.37272804406950       -0.60246440912682
H           -0.95120381510697       -1.50133557341639        0.50156216150537
H            0.66123315339515       -2.00542100850064        1.04360419090230
H           -4.19135850021061        2.57569293743478       -1.07900725962390
H           -3.20000486052426        2.51820299911103        1.79943092980177
H           -4.76535757769701        1.93966684024010        1.21873679901317
H           -4.39641910232478        3.66186200269636        1.18317768601240
H           -1.72188949834485        3.80951277767571        0.21015296007471
H           -1.91868988572084        3.65035099630108       -1.53976975545882
H           -3.03282319535867        4.64361609927779       -0.61620496162656
H           -0.11998292804214        1.42085169424740        1.61429948360563

          :  Hamiltonian                  GFN2-xTB          :
         :: total energy             -99.391656363993 Eh    ::
         :: gradient norm              0.001637418781 Eh/a0 ::
         :: HOMO-LUMO gap              1.615217857717 eV    ::
         :: SCC energy              -100.784318444265 Eh    ::
         :: -> dispersion             -0.075978214869 Eh    ::
         :: repulsion energy           1.391505553048 Eh    ::

    * Orbital Energies and Occupations

         #    Occupation            Energy/Eh            Energy/eV
      -------------------------------------------------------------
         1        2.0000           -0.8090139             -22.0144
       ...           ...                  ...                  ...
        78        1.9987           -0.5355941             -14.5743
        79        1.9984           -0.5324613             -14.4890
        80        1.9982           -0.5301777             -14.4269
        81        1.9971           -0.5227704             -14.2253
        82        1.9968           -0.5211314             -14.1807
        83        1.9965           -0.5198906             -14.1469
        84        1.9957           -0.5166959             -14.0600
        85        1.9943           -0.5121416             -13.9361
        86        1.9789           -0.4912567             -13.3678
        87        1.9753           -0.4887444             -13.2994
        88        1.9650           -0.4831152             -13.1462
        89        1.8488           -0.4590021             -12.4901
        90        1.8292           -0.4569012             -12.4329 (HOMO)
        91        0.4028           -0.3975431             -10.8177 (LUMO)
        92        0.0232           -0.3489854              -9.4964
        93        0.0029           -0.3160872              -8.6012
        94        0.0025           -0.3137066              -8.5364
        95        0.0023           -0.3123870              -8.5005
        96        0.0021           -0.3110955              -8.4653
        97        0.0000           -0.1899315              -5.1683
        98        0.0000           -0.1886216              -5.1327
        99                         -0.1344661              -3.6590
       100                         -0.0712366              -1.9384
       101                         -0.0699676              -1.9039
       ...                                ...                  ...
       171                          0.5762691              15.6811
      -------------------------------------------------------------
                  HL-Gap            0.0593582 Eh            1.6152 eV

     #   Z          covCN         q      C6AA      α(0)
     1   7 N        1.775    -0.298    28.541     7.911
     2   6 C        2.901     0.122    25.317     8.250
     3   6 C        3.921     0.005    20.437     6.425
     4   6 C        2.971     0.008    27.834     8.654
     5   6 C        2.921    -0.077    29.921     8.970
     6   6 C        2.862     0.133    25.094     8.211
     7   8 O        1.706    -0.224    17.721     5.684
     8   6 C        3.644     0.027    20.467     6.503
     9   6 C        2.864     0.132    25.103     8.213
    10   8 O        1.706    -0.222    17.692     5.679
    11   6 C        3.645     0.025    20.480     6.504
    12   6 C        2.914    -0.071    29.757     8.945
    13   6 C        2.922    -0.053    29.309     8.878
    14   6 C        3.842    -0.070    21.816     6.644
    15   6 C        3.823    -0.068    21.782     6.641
    16   6 C        3.824     0.005    20.470     6.438
    17   7 N        2.730     0.014    21.006     6.807
    18   6 C        2.848     0.005    27.911     8.659
    19   6 C        3.809    -0.065    21.741     6.637
    20   6 C        2.971    -0.002    28.069     8.690
    21   6 C        2.921    -0.047    29.168     8.857
    22   6 C        2.914    -0.067    29.657     8.930
    23   6 C        2.864     0.134    25.059     8.205
    24   8 O        1.706    -0.221    17.661     5.674
    25   6 C        3.645     0.024    20.504     6.508
    26   6 C        2.863     0.133    25.082     8.209
    27   8 O        1.706    -0.224    17.723     5.684
    28   6 C        3.644     0.028    20.447     6.499
    29   6 C        2.919    -0.080    30.011     8.984
    30   6 C        3.706    -0.068    21.962     6.699
    31   6 C        3.852    -0.007    20.665     6.466
    32   6 C        3.756    -0.120    22.853     6.816
    33   6 C        3.756    -0.113    22.708     6.795
    34   1 H        0.926     0.053     2.279     2.361
    35   1 H        0.924     0.054     2.266     2.354
    36   1 H        0.925     0.083     1.953     2.186
    37   1 H        0.924     0.050     2.319     2.381
    38   1 H        0.924     0.056     2.241     2.341
    39   1 H        0.925     0.082     1.954     2.186
    40   1 H        0.924     0.052     2.295     2.369
    41   1 H        0.926     0.055     2.256     2.349
    42   1 H        0.926     0.052     2.296     2.370
    43   1 H        0.925     0.056     2.245     2.343
    44   1 H        0.925     0.051     2.312     2.378
    45   1 H        0.925     0.052     2.289     2.366
    46   1 H        0.925     0.051     2.312     2.378
    47   1 H        0.808    -0.014     3.365     2.881
    48   1 H        0.924     0.073     2.056     2.242
    49   1 H        0.926     0.073     2.052     2.240
    50   1 H        0.808     0.015     2.860     2.656
    51   1 H        0.924     0.076     2.019     2.222
    52   1 H        0.924     0.075     2.028     2.227
    53   1 H        0.926     0.049     2.335     2.390
    54   1 H        0.926     0.061     2.186     2.312
    55   1 H        0.924     0.056     2.251     2.346
    56   1 H        0.924     0.057     2.236     2.338
    57   1 H        0.925     0.083     1.946     2.182
    58   1 H        0.925     0.082     1.954     2.186
    59   1 H        0.924     0.048     2.347     2.396
    60   1 H        0.924     0.052     2.301     2.372
    61   1 H        0.926     0.045     2.380     2.413
    62   1 H        0.924     0.077     2.005     2.215
    63   1 H        0.924     0.084     1.936     2.176
    64   1 H        0.925     0.078     2.001     2.212
    65   1 H        0.924     0.043     2.414     2.430
    66   1 H        0.925     0.067     2.121     2.278
    67   1 H        0.925     0.040     2.450     2.448
    68   1 H        0.925     0.053     2.280     2.361
    69   1 H        0.925     0.048     2.350     2.397
    70   1 H        0.925     0.031     2.576     2.510
    71   1 H        0.925     0.054     2.273     2.358
    72   1 H        0.860     0.148     1.417     1.864

Wiberg/Mayer (AO) data.
largest (>0.10) Wiberg bond orders for each atom

     #   Z sym  total        # sym  WBO       # sym  WBO       # sym  WBO
 ---------------------------------------------------------------------------
     1   7 N    3.039 --     2 C    1.916    72 H    0.940
     2   6 C    3.918 --     1 N    1.916     3 C    0.985    16 C    0.914
     3   6 C    3.977 --     2 C    0.985    14 C    0.974     4 C    0.960
                            31 C    0.934
     4   6 C    3.937 --    13 C    1.408     5 C    1.374     3 C    0.960
     5   6 C    3.957 --     6 C    1.395     4 C    1.374    34 H    0.956
     6   6 C    3.895 --     5 C    1.395     9 C    1.217     7 O    1.105
     7   8 O    2.253 --     6 C    1.105     8 C    0.978
     8   6 C    3.930 --     7 O    0.978    36 H    0.976    37 H    0.973
                            35 H    0.973
     9   6 C    3.892 --    12 C    1.385     6 C    1.217    10 O    1.109
    10   8 O    2.252 --     9 C    1.109    11 C    0.976
    11   6 C    3.929 --    39 H    0.977    10 O    0.976    40 H    0.973
                            38 H    0.972
    12   6 C    3.957 --    13 C    1.411     9 C    1.385    41 H    0.963
    13   6 C    3.944 --    12 C    1.411     4 C    1.408    42 H    0.959
    14   6 C    3.988 --    15 C    1.004     3 C    0.974    44 H    0.969
                            43 H    0.969
    15   6 C    3.983 --    14 C    1.004    16 C    0.980    46 H    0.976
                            45 H    0.973
    16   6 C    3.948 --    17 N    0.985    15 C    0.980    48 H    0.939
                             2 C    0.914
    17   7 N    3.487 --    18 C    1.418    30 C    0.995    16 C    0.985
    18   6 C    3.572 --    17 N    1.418    19 C    1.048    49 H    0.958
    19   6 C    3.990 --    18 C    1.048    20 C    1.000    51 H    0.934
                            52 H    0.930
    20   6 C    3.944 --    21 C    1.420    29 C    1.374    19 C    1.000
    21   6 C    3.952 --    20 C    1.420    22 C    1.410    53 H    0.967
    22   6 C    3.958 --    21 C    1.410    23 C    1.387    54 H    0.963
    23   6 C    3.899 --    22 C    1.387    26 C    1.216    24 O    1.113
    24   8 O    2.258 --    23 C    1.113    25 C    0.975
    25   6 C    3.927 --    57 H    0.977    24 O    0.975    55 H    0.973
                            56 H    0.972
    26   6 C    3.901 --    29 C    1.400    23 C    1.216    27 O    1.103
    27   8 O    2.256 --    26 C    1.103    28 C    0.979
    28   6 C    3.932 --    27 O    0.979    58 H    0.977    59 H    0.973
                            60 H    0.973
    29   6 C    3.960 --    26 C    1.400    20 C    1.374    61 H    0.963
    30   6 C    3.954 --    17 N    0.995    64 H    0.974    63 H    0.966
                            62 H    0.963
    31   6 C    3.977 --    32 C    1.010    33 C    1.009    65 H    0.962
                             3 C    0.934
    32   6 C    3.983 --    31 C    1.010    67 H    0.982    68 H    0.981
                            66 H    0.977
    33   6 C    3.989 --    31 C    1.009    69 H    0.983    71 H    0.982
                            70 H    0.979
    34   1 H    0.996 --     5 C    0.956
    35   1 H    0.992 --     8 C    0.973
    36   1 H    0.992 --     8 C    0.976
    37   1 H    0.993 --     8 C    0.973
    38   1 H    0.991 --    11 C    0.972
    39   1 H    0.992 --    11 C    0.977
    40   1 H    0.992 --    11 C    0.973
    41   1 H    0.995 --    12 C    0.963
    42   1 H    0.996 --    13 C    0.959
    43   1 H    0.995 --    14 C    0.969
    44   1 H    0.996 --    14 C    0.969
    45   1 H    0.997 --    15 C    0.973
    46   1 H    0.996 --    15 C    0.976
    47   1 H    1.000 --    50 H    0.997
    48   1 H    0.993 --    16 C    0.939
    49   1 H    0.994 --    18 C    0.958
    50   1 H    0.999 --    47 H    0.997
    51   1 H    0.973 --    19 C    0.934
    52   1 H    0.977 --    19 C    0.930
    53   1 H    0.997 --    21 C    0.967
    54   1 H    0.995 --    22 C    0.963
    55   1 H    0.992 --    25 C    0.973
    56   1 H    0.991 --    25 C    0.972
    57   1 H    0.992 --    25 C    0.977
    58   1 H    0.993 --    28 C    0.977
    59   1 H    0.993 --    28 C    0.973
    60   1 H    0.993 --    28 C    0.973
    61   1 H    0.997 --    29 C    0.963
    62   1 H    0.984 --    30 C    0.963
    63   1 H    0.990 --    30 C    0.966
    64   1 H    0.992 --    30 C    0.974
    65   1 H    0.994 --    31 C    0.962
    66   1 H    0.993 --    32 C    0.977
    67   1 H    0.996 --    32 C    0.982
    68   1 H    0.995 --    32 C    0.981
    69   1 H    0.996 --    33 C    0.983
    70   1 H    0.998 --    33 C    0.979
    71   1 H    0.995 --    33 C    0.982
    72   1 H    0.975 --     1 N    0.940
 ---------------------------------------------------------------------------

molecular dipole:
                 x           y           z       tot (Debye)
 q only:        0.568      -0.324      -0.468
   full:        0.899      -0.353      -0.689       3.016

           -------------------------------------------------
          | TOTAL ENERGY              -99.391656363993 Eh   |
          | GRADIENT NORM               0.001637418781 Eh/α |
          | HOMO-LUMO GAP               1.615217857717 eV   |
           -------------------------------------------------

 * finished run on 2024/04/06 at 11:14:09.234
