   * xtb version 6.6.1 (8d0f1dd) compiled by 'conda@1efc2f54142f' on 2023-08-01
          program call               : xtb xtbopt.xyz --opt crude --input .xc2 --gfn2

   ID    Z sym.   atoms
    1    7 N      1, 17
    2    6 C      2-6, 8, 9, 11-16, 18-23, 25, 26, 28-33
    3    8 O      7, 10, 24, 27
    4    1 H      34-72

          :  Hamiltonian                  GFN2-xTB          :
 * total energy  :   -99.3916565 Eh     change        0.1989520E-12 Eh
 * total energy  :   -99.3916915 Eh     change       -0.3498075E-04 Eh
   *** GEOMETRY OPTIMIZATION CONVERGED AFTER 2 ITERATIONS ***

 final structure:
================
72
 xtb: 6.6.1 (8d0f1dd)
N           -1.07461718110189        1.49580282203184        1.27475006222171
C           -1.30898257792544        1.12053725578853        0.10453185617599
C           -2.66831454649035        1.17017617583219       -0.54950109840254
C           -3.56781696062213        0.06632158710906        0.00064226779392
C           -4.72634104879933       -0.27516834591199       -0.69808779818738
C           -5.58833693264009       -1.25779106042867       -0.23829031680477
O           -6.72646954729908       -1.64268292313179       -0.84818166957372
C           -7.12626513777387       -1.00585504926129       -2.03861917023144
C           -5.29275123845629       -1.93791322023875        0.97480306460747
O           -6.17417432608217       -2.88797264473734        1.33783134120647
C           -5.98242133461344       -3.57398125175155        2.55330354870933
C           -4.15862458413175       -1.56838839700517        1.68075154643320
C           -3.31349104500905       -0.57763153883595        1.20227216282695
C           -2.34058952034286        0.90298757842055       -2.03593898279721
C           -1.14715030476916       -0.04658394624944       -2.00690451877873
C           -0.28165886199117        0.54291346377743       -0.89249575632441
N            0.63195427449664       -0.36881989223878       -0.25394822231489
C            1.89738812698423       -0.06892678070155        0.00412051098811
C            2.61206532636403        1.14823743960178       -0.45433932030083
C            4.09741929451216        1.02749041479623       -0.22104319596196
C            4.77444554894791        1.92765003094102        0.58200989101465
C            6.14257952273438        1.80955686921681        0.78108497704276
C            6.85844861375994        0.78365384234003        0.18217315033803
O            8.18064547189092        0.57077983474347        0.30384989340187
C            8.95063776639229        1.44648569538624        1.09575258364109
C            6.16935129335967       -0.14658599046041       -0.64596401732571
O            6.94162591107103       -1.10741160572527       -1.19075095673690
C            6.35918340323412       -2.05854166348550       -2.04875093773528
C            4.80386184266916       -0.00801272838412       -0.83216021080690
C            0.08942493074850       -1.62973116690727        0.20035730357489
C           -3.37751538145540        2.54229118267643       -0.34441512932082
C           -3.97374765887059        2.66948499470601        1.05461581645618
C           -2.44573448623298        3.72695096497784       -0.59377962871123
H           -4.98026947961896        0.25558898565797       -1.60064781539976
H           -7.30387000271613        0.06262213317375       -1.88223252873320
H           -8.05912494344492       -1.48647529032482       -2.32678660427141
H           -6.38881412680350       -1.14312442839485       -2.83580854756094
H           -6.00842817406230       -2.88998807005198        3.40683120889062
H           -6.81156613025855       -4.27490661771158        2.62705128700555
H           -5.03845520535066       -4.12778635819957        2.55703865117115
H           -3.92572575149668       -2.04086839736172        2.62110169790160
H           -2.47467084618107       -0.28218585341226        1.81155579481305
H           -3.17475479689151        0.47251304303842       -2.58117859710938
H           -2.06199151377120        1.83380081619240       -2.52940095523922
H           -1.48710718711222       -1.04883851426241       -1.74964358532606
H           -0.62146772535518       -0.08925675180179       -2.95979891204138
H            0.56115624208727       -0.51986058154758        3.28586504133200
H            0.28356690153444        1.39233743101004       -1.28744127881811
H            2.45675555145854       -0.79222092024052        0.57612506261325
H            1.15779978443322       -0.33023939326348        3.74868660052837
H            2.23888258527036        2.03813275074145        0.06714206208103
H            2.43255973348279        1.31012856778686       -1.52511664559561
H            4.24341964904122        2.73685950033252        1.05952617828737
H            6.64368705264599        2.52887722730629        1.40748800970722
H            8.61229800861894        1.44857010317472        2.13605110221646
H            8.92798801558015        2.46657224928539        0.70111944509636
H            9.96813838917491        1.06352163544889        1.04794337367997
H            7.17550017174649       -2.70522492932394       -2.36447145976898
H            5.60363081307011       -2.65814976269056       -1.53085383478566
H            5.91208133802457       -1.58528561720599       -2.92852616523824
H            4.27139878180110       -0.70137087851142       -1.46474966825286
H            0.13128363769768       -2.37389101131039       -0.59871238673540
H           -0.94903801634336       -1.50115225639266        0.50670167301101
H            0.66490656429950       -2.00421525231301        1.04531980319512
H           -4.18952629343438        2.57720637107736       -1.07876781824194
H           -3.19742536510947        2.52071677952686        1.79944559201833
H           -4.76238647885322        1.94059965418506        1.21942975925428
H           -4.39461384795205        3.66327711755395        1.18244894475806
H           -1.71447610107091        3.80477553700101        0.20643243076151
H           -1.92081177320683        3.65230546706641       -1.54321899103183
H           -3.02784956757680        4.64451634031532       -0.60993435776802
H           -0.12019295063949        1.41693674524172        1.61557223188260

          :  Hamiltonian                  GFN2-xTB          :
         :: total energy             -99.391691480969 Eh    ::
         :: gradient norm              0.000843637101 Eh/a0 ::
         :: HOMO-LUMO gap              1.614964349347 eV    ::
         :: SCC energy              -100.784690726449 Eh    ::
         :: -> dispersion             -0.075983417634 Eh    ::
         :: repulsion energy           1.391842361606 Eh    ::

    * Orbital Energies and Occupations

         #    Occupation            Energy/Eh            Energy/eV
      -------------------------------------------------------------
         1        2.0000           -0.8090700             -22.0159
       ...           ...                  ...                  ...
        78        1.9987           -0.5356062             -14.5746
        79        1.9984           -0.5324825             -14.4896
        80        1.9982           -0.5302017             -14.4275
        81        1.9971           -0.5227891             -14.2258
        82        1.9968           -0.5211504             -14.1812
        83        1.9965           -0.5199013             -14.1472
        84        1.9957           -0.5166910             -14.0599
        85        1.9943           -0.5121739             -13.9370
        86        1.9789           -0.4912760             -13.3683
        87        1.9753           -0.4887606             -13.2999
        88        1.9650           -0.4831326             -13.1467
        89        1.8489           -0.4590208             -12.4906
        90        1.8291           -0.4569071             -12.4331 (HOMO)
        91        0.4028           -0.3975582             -10.8181 (LUMO)
        92        0.0232           -0.3490071              -9.4970
        93        0.0029           -0.3161110              -8.6018
        94        0.0025           -0.3136849              -8.5358
        95        0.0023           -0.3123972              -8.5008
        96        0.0021           -0.3111231              -8.4661
        97        0.0000           -0.1899446              -5.1687
        98        0.0000           -0.1886228              -5.1327
        99                         -0.1346156              -3.6631
       100                         -0.0709344              -1.9302
       101                         -0.0699711              -1.9040
       ...                                ...                  ...
       171                          0.5761501              15.6778
      -------------------------------------------------------------
                  HL-Gap            0.0593488 Eh            1.6150 eV

     #   Z          covCN         q      C6AA      α(0)
     1   7 N        1.775    -0.298    28.545     7.912
     2   6 C        2.901     0.122    25.317     8.250
     3   6 C        3.921     0.005    20.437     6.425
     4   6 C        2.971     0.008    27.834     8.654
     5   6 C        2.921    -0.077    29.921     8.970
     6   6 C        2.862     0.133    25.094     8.211
     7   8 O        1.706    -0.224    17.721     5.684
     8   6 C        3.644     0.027    20.466     6.503
     9   6 C        2.864     0.132    25.101     8.212
    10   8 O        1.706    -0.222    17.690     5.679
    11   6 C        3.646     0.025    20.480     6.504
    12   6 C        2.914    -0.071    29.758     8.945
    13   6 C        2.922    -0.053    29.311     8.878
    14   6 C        3.842    -0.070    21.816     6.644
    15   6 C        3.824    -0.068    21.781     6.641
    16   6 C        3.824     0.005    20.468     6.438
    17   7 N        2.730     0.014    21.009     6.808
    18   6 C        2.848     0.005    27.910     8.658
    19   6 C        3.809    -0.065    21.742     6.637
    20   6 C        2.971    -0.002    28.070     8.690
    21   6 C        2.921    -0.047    29.168     8.857
    22   6 C        2.914    -0.067    29.656     8.930
    23   6 C        2.864     0.134    25.060     8.206
    24   8 O        1.706    -0.221    17.661     5.674
    25   6 C        3.645     0.024    20.503     6.508
    26   6 C        2.863     0.133    25.082     8.209
    27   8 O        1.706    -0.224    17.722     5.684
    28   6 C        3.645     0.028    20.447     6.499
    29   6 C        2.919    -0.080    30.012     8.984
    30   6 C        3.706    -0.068    21.965     6.700
    31   6 C        3.852    -0.007    20.665     6.466
    32   6 C        3.756    -0.120    22.853     6.816
    33   6 C        3.756    -0.113    22.708     6.794
    34   1 H        0.926     0.053     2.279     2.361
    35   1 H        0.924     0.054     2.266     2.354
    36   1 H        0.925     0.083     1.953     2.185
    37   1 H        0.924     0.050     2.319     2.381
    38   1 H        0.924     0.056     2.241     2.341
    39   1 H        0.925     0.082     1.954     2.186
    40   1 H        0.924     0.052     2.294     2.369
    41   1 H        0.926     0.055     2.257     2.349
    42   1 H        0.926     0.052     2.296     2.370
    43   1 H        0.925     0.056     2.245     2.343
    44   1 H        0.925     0.051     2.312     2.378
    45   1 H        0.925     0.052     2.290     2.366
    46   1 H        0.925     0.051     2.312     2.378
    47   1 H        0.808    -0.013     3.347     2.873
    48   1 H        0.924     0.073     2.055     2.242
    49   1 H        0.926     0.073     2.052     2.240
    50   1 H        0.808     0.014     2.874     2.662
    51   1 H        0.924     0.076     2.019     2.222
    52   1 H        0.924     0.075     2.028     2.227
    53   1 H        0.926     0.049     2.335     2.390
    54   1 H        0.926     0.061     2.186     2.312
    55   1 H        0.924     0.056     2.251     2.346
    56   1 H        0.924     0.057     2.236     2.339
    57   1 H        0.925     0.083     1.947     2.182
    58   1 H        0.925     0.082     1.954     2.186
    59   1 H        0.924     0.048     2.346     2.395
    60   1 H        0.924     0.052     2.301     2.372
    61   1 H        0.926     0.045     2.380     2.412
    62   1 H        0.924     0.078     2.004     2.214
    63   1 H        0.924     0.084     1.936     2.176
    64   1 H        0.925     0.078     2.001     2.212
    65   1 H        0.924     0.043     2.414     2.430
    66   1 H        0.925     0.067     2.121     2.278
    67   1 H        0.925     0.040     2.450     2.448
    68   1 H        0.925     0.053     2.280     2.361
    69   1 H        0.925     0.047     2.352     2.398
    70   1 H        0.925     0.031     2.575     2.509
    71   1 H        0.925     0.054     2.272     2.357
    72   1 H        0.860     0.148     1.417     1.865

Wiberg/Mayer (AO) data.
largest (>0.10) Wiberg bond orders for each atom

     #   Z sym  total        # sym  WBO       # sym  WBO       # sym  WBO
 ---------------------------------------------------------------------------
     1   7 N    3.039 --     2 C    1.915    72 H    0.940
     2   6 C    3.918 --     1 N    1.915     3 C    0.985    16 C    0.914
     3   6 C    3.977 --     2 C    0.985    14 C    0.974     4 C    0.960
                            31 C    0.934
     4   6 C    3.937 --    13 C    1.408     5 C    1.374     3 C    0.960
     5   6 C    3.957 --     6 C    1.395     4 C    1.374    34 H    0.956
     6   6 C    3.895 --     5 C    1.395     9 C    1.216     7 O    1.105
     7   8 O    2.253 --     6 C    1.105     8 C    0.978
     8   6 C    3.930 --     7 O    0.978    36 H    0.976    37 H    0.973
                            35 H    0.973
     9   6 C    3.892 --    12 C    1.385     6 C    1.216    10 O    1.109
    10   8 O    2.252 --     9 C    1.109    11 C    0.976
    11   6 C    3.929 --    39 H    0.977    10 O    0.976    40 H    0.973
                            38 H    0.972
    12   6 C    3.957 --    13 C    1.411     9 C    1.385    41 H    0.963
    13   6 C    3.944 --    12 C    1.411     4 C    1.408    42 H    0.959
    14   6 C    3.988 --    15 C    1.004     3 C    0.974    44 H    0.969
                            43 H    0.969
    15   6 C    3.983 --    14 C    1.004    16 C    0.980    46 H    0.976
                            45 H    0.973
    16   6 C    3.948 --    17 N    0.985    15 C    0.980    48 H    0.939
                             2 C    0.914
    17   7 N    3.487 --    18 C    1.418    30 C    0.995    16 C    0.985
    18   6 C    3.572 --    17 N    1.418    19 C    1.048    49 H    0.958
    19   6 C    3.990 --    18 C    1.048    20 C    1.000    51 H    0.934
                            52 H    0.931
    20   6 C    3.944 --    21 C    1.420    29 C    1.374    19 C    1.000
    21   6 C    3.952 --    20 C    1.420    22 C    1.410    53 H    0.967
    22   6 C    3.958 --    21 C    1.410    23 C    1.387    54 H    0.963
    23   6 C    3.899 --    22 C    1.387    26 C    1.216    24 O    1.113
    24   8 O    2.258 --    23 C    1.113    25 C    0.975
    25   6 C    3.927 --    57 H    0.977    24 O    0.975    55 H    0.972
                            56 H    0.972
    26   6 C    3.901 --    29 C    1.400    23 C    1.216    27 O    1.104
    27   8 O    2.256 --    26 C    1.104    28 C    0.979
    28   6 C    3.932 --    27 O    0.979    58 H    0.977    59 H    0.973
                            60 H    0.973
    29   6 C    3.960 --    26 C    1.400    20 C    1.374    61 H    0.963
    30   6 C    3.954 --    17 N    0.995    64 H    0.974    63 H    0.966
                            62 H    0.963
    31   6 C    3.977 --    32 C    1.010    33 C    1.009    65 H    0.962
                             3 C    0.934
    32   6 C    3.983 --    31 C    1.010    67 H    0.982    68 H    0.981
                            66 H    0.977
    33   6 C    3.989 --    31 C    1.009    69 H    0.983    71 H    0.982
                            70 H    0.979
    34   1 H    0.996 --     5 C    0.956
    35   1 H    0.992 --     8 C    0.973
    36   1 H    0.992 --     8 C    0.976
    37   1 H    0.993 --     8 C    0.973
    38   1 H    0.991 --    11 C    0.972
    39   1 H    0.992 --    11 C    0.977
    40   1 H    0.992 --    11 C    0.973
    41   1 H    0.995 --    12 C    0.963
    42   1 H    0.996 --    13 C    0.959
    43   1 H    0.995 --    14 C    0.969
    44   1 H    0.996 --    14 C    0.969
    45   1 H    0.997 --    15 C    0.973
    46   1 H    0.996 --    15 C    0.976
    47   1 H    1.000 --    50 H    0.997
    48   1 H    0.993 --    16 C    0.939
    49   1 H    0.994 --    18 C    0.958
    50   1 H    0.999 --    47 H    0.997
    51   1 H    0.973 --    19 C    0.934
    52   1 H    0.977 --    19 C    0.931
    53   1 H    0.997 --    21 C    0.967
    54   1 H    0.995 --    22 C    0.963
    55   1 H    0.992 --    25 C    0.972
    56   1 H    0.991 --    25 C    0.972
    57   1 H    0.992 --    25 C    0.977
    58   1 H    0.993 --    28 C    0.977
    59   1 H    0.993 --    28 C    0.973
    60   1 H    0.993 --    28 C    0.973
    61   1 H    0.997 --    29 C    0.963
    62   1 H    0.984 --    30 C    0.963
    63   1 H    0.990 --    30 C    0.966
    64   1 H    0.992 --    30 C    0.974
    65   1 H    0.994 --    31 C    0.962
    66   1 H    0.993 --    32 C    0.977
    67   1 H    0.996 --    32 C    0.982
    68   1 H    0.995 --    32 C    0.981
    69   1 H    0.996 --    33 C    0.983
    70   1 H    0.998 --    33 C    0.979
    71   1 H    0.995 --    33 C    0.982
    72   1 H    0.975 --     1 N    0.940
 ---------------------------------------------------------------------------

molecular dipole:
                 x           y           z       tot (Debye)
 q only:        0.566      -0.325      -0.470
   full:        0.897      -0.354      -0.691       3.016

           -------------------------------------------------
          | TOTAL ENERGY              -99.391691480969 Eh   |
          | GRADIENT NORM               0.000843637101 Eh/α |
          | HOMO-LUMO GAP               1.614964349347 eV   |
           -------------------------------------------------

 * finished run on 2024/04/06 at 11:14:09.878
