   * xtb version 6.6.1 (8d0f1dd) compiled by 'conda@1efc2f54142f' on 2023-08-01
          program call               : xtb struc.xyz --opt loose --input .xc1 --gfn2

   ID    Z sym.   atoms
    1    7 N      1, 17
    2    6 C      2-6, 8, 9, 11-16, 18-23, 25, 26, 28-33
    3    8 O      7, 10, 24, 27
    4    1 H      34-72
constraining bond 9 42 to    5.1400000 Å, actual value:    3.3768467 Å

          :  Hamiltonian                  GFN2-xTB          :
 * total energy  :   -98.8490609 Eh     change       -0.4035485E-08 Eh
 * total energy  :   -99.0307251 Eh     change       -0.1816642E+00 Eh
 * total energy  :   -99.1256036 Eh     change       -0.9487854E-01 Eh
 * total energy  :   -99.1623101 Eh     change       -0.3670650E-01 Eh
 * total energy  :   -99.1772573 Eh     change       -0.1494721E-01 Eh
 * total energy  :   -99.1918184 Eh     change       -0.1456106E-01 Eh
 * total energy  :   -99.2172279 Eh     change       -0.2540956E-01 Eh
 * total energy  :   -99.2410418 Eh     change       -0.2381390E-01 Eh
 * total energy  :   -99.2596142 Eh     change       -0.1857231E-01 Eh
 * total energy  :   -99.2706949 Eh     change       -0.1108075E-01 Eh
 * total energy  :   -99.4469540 Eh     change       -0.3044481E-03 Eh
 * total energy  :   -99.4471827 Eh     change       -0.2286877E-03 Eh
 * total energy  :   -99.4473763 Eh     change       -0.1935770E-03 Eh
 * total energy  :   -99.4475562 Eh     change       -0.1799663E-03 Eh
 * total energy  :   -99.4477131 Eh     change       -0.1569018E-03 Eh
 * total energy  :   -99.4478330 Eh     change       -0.1198265E-03 Eh
 * total energy  :   -99.4479124 Eh     change       -0.7938368E-04 Eh
 * total energy  :   -99.4479785 Eh     change       -0.6618093E-04 Eh
 * total energy  :   -99.4480211 Eh     change       -0.4255399E-04 Eh
   *** GEOMETRY OPTIMIZATION CONVERGED AFTER 138 ITERATIONS ***

 final structure:
================
72
 xtb: 6.6.1 (8d0f1dd)
N           -0.70827440205742        1.68838870371557        0.62866255852347
C           -1.96178054454877        1.80089606989977        1.02964052833702
C           -3.12040915059542        1.72068298594524        0.10799088486753
C           -3.73593823151806        0.32623523087404        0.24415375882339
C           -4.78296039388320       -0.05508161803353       -0.59220035817944
C           -5.35221390988799       -1.31350690904980       -0.49597886201565
O           -6.35230961591701       -1.77856510097840       -1.26946051328455
C           -6.88668625692345       -0.95220413733436       -2.27705196233685
C           -4.86906879037447       -2.22400485562540        0.48188591989625
O           -5.48401986299150       -3.42359425405157        0.50279863492037
C           -5.06314465390904       -4.39185430202740        1.43532289424956
C           -3.83204897619144       -1.83794809442080        1.31035691525249
C           -3.27155737981790       -0.57647576376840        1.18778931083180
C           -2.61033072362121        1.92312514745639       -1.32990026923021
C           -1.46152299226667        0.95870356760573       -1.59796938235510
C           -0.25585915218543        1.32604920296488       -0.73377897828553
N            0.72088718820042        0.29485291491750       -0.69207792630921
C            2.09416821796881        0.63868850404421       -0.39543507863649
C            3.05327951362466       -0.06557283557000       -1.37413090963530
C            4.47328992393776        0.06848548914035       -0.90661021661657
C            5.13205185955789        1.28732442415102       -0.98127174450541
C            6.42436672410158        1.42811472519792       -0.50216187048342
C            7.09244003430192        0.34797680863032        0.05858334070325
O            8.34307112403302        0.37193875255814        0.55838857350344
C            9.07742898536616        1.57302325423811        0.51062173747206
C            6.43285579106314       -0.90987145207011        0.12587845347574
O            7.15601527619013       -1.91093853825690        0.66745600341228
C            6.60677063390036       -3.20604015102774        0.72064917707079
C            5.13472099144658       -1.02177125235688       -0.34899940775384
C            0.29366737532374       -1.01574196727936       -0.24043544745704
C           -4.19014714920776        2.78987159903657        0.49471454962882
C           -4.84802749683734        2.49028386076216        1.84155661410109
C           -3.60718804325766        4.20259834550904        0.51550211103418
H           -5.16301522024928        0.64126786223842       -1.32068388918522
H           -7.33400529348371       -0.04545842822815       -1.85870903653543
H           -7.66134722452881       -1.54516362333722       -2.75919737709773
H           -6.12714592190224       -0.68013875642486       -3.01718144549672
H           -5.19536856066321       -4.04341172382615        2.46413722575838
H           -5.69879609770972       -5.25816333596102        1.26424463066851
H           -4.01717318812352       -4.67277217795982        1.27578904219077
H           -3.45031646125256       -2.51005084592616        2.06094464048428
H           -2.16479876762983        1.87397035469933        2.08471516767710
H           -3.41274979602596        1.74996957461958       -2.04350457683802
H           -2.26022132582230        2.94666899495344       -1.45844254410006
H           -1.78815741753185       -0.05696223843849       -1.37930391231722
H           -1.15553531270962        0.99909881298383       -2.64279459104729
H           -2.46947191958681       -0.31427361870262        1.85992343241494
H            0.21946514730638        2.22534174235716       -1.14898694179952
H            2.36866233671607        0.35034192315529        0.63077143412196
H            2.22530481424403        1.71860203549014       -0.48596195212315
H            2.93343643678241        0.37730591570532       -2.36343771191144
H            2.78031397223143       -1.11803385508171       -1.43920905213987
H            4.63920767679826        2.13921579163907       -1.42400811531863
H            6.90798970908381        2.38871097760198       -0.57293865808658
H            8.59358580216890        2.36153691425729        1.09526310067478
H            9.21830196936486        1.91548214420785       -0.51885273667171
H           10.04591287139833        1.34117826073022        0.94971662634541
H            7.38586376497125       -3.83697040714785        1.14425700059642
H            5.72309830940479       -3.24156037101121        1.36614376560466
H            6.34621283680610       -3.57267851314756       -0.27692730073608
H            4.62427399986602       -1.97088146306201       -0.29880757432701
H           -0.60385530914026       -0.95547310414033        0.37775898683904
H            1.08156858363540       -1.47833550697388        0.35135852800946
H            0.08216015318759       -1.66529208182895       -1.09149866232847
H           -4.96638066509520        2.74810899068994       -0.27458778125148
H           -4.16040215385963        2.65946697295491        2.66623208283327
H           -5.20498087053945        1.46484153346512        1.88929356940795
H           -5.69887301209374        3.15172674111766        1.98290219435841
H           -2.74081887597314        4.25556557152793        1.17156413381422
H           -3.31421280994596        4.53688206065048       -0.47565060942313
H           -4.35595945231932        4.89657286216463        0.88742046356244
H            0.03321695628968        1.73383518161679        1.31502424701633

          :  Hamiltonian                  GFN2-xTB          :
         :: total energy             -99.448021087561 Eh    ::
         :: gradient norm              0.002452650815 Eh/a0 ::
         :: HOMO-LUMO gap              1.526946165584 eV    ::
         :: SCC energy              -100.804912040083 Eh    ::
         :: -> dispersion             -0.075058313623 Eh    ::
         :: repulsion energy           1.355875921533 Eh    ::

    * Orbital Energies and Occupations

         #    Occupation            Energy/Eh            Energy/eV
      -------------------------------------------------------------
         1        2.0000           -0.8065234             -21.9466
       ...           ...                  ...                  ...
        78        1.9990           -0.5345420             -14.5456
        79        1.9984           -0.5271958             -14.3457
        80        1.9984           -0.5263505             -14.3227
        81        1.9982           -0.5246227             -14.2757
        82        1.9980           -0.5230779             -14.2337
        83        1.9976           -0.5204280             -14.1616
        84        1.9970           -0.5167773             -14.0622
        85        1.9962           -0.5131902             -13.9646
        86        1.9841           -0.4903339             -13.3427
        87        1.9742           -0.4825690             -13.1314
        88        1.9404           -0.4690266             -12.7629
        89        1.8832           -0.4578912             -12.4599
        90        1.8063           -0.4492199             -12.2239 (HOMO)
        91        0.4246           -0.3931056             -10.6969 (LUMO)
        92        0.0038           -0.3148516              -8.5675
        93        0.0034           -0.3130224              -8.5178
        94        0.0021           -0.3052725              -8.3069
        95        0.0019           -0.3035688              -8.2605
        96        0.0000           -0.1887956              -5.1374
        97        0.0000           -0.1805680              -4.9135
        98                         -0.1367271              -3.7205
        99                         -0.1132586              -3.0819
       100                         -0.0645347              -1.7561
       101                         -0.0608552              -1.6560
       ...                                ...                  ...
       171                          0.5805405              15.7973
      -------------------------------------------------------------
                  HL-Gap            0.0561142 Eh            1.5269 eV

     #   Z          covCN         q      C6AA      α(0)
     1   7 N        2.683    -0.100    23.196     7.153
     2   6 C        2.841     0.036    27.196     8.546
     3   6 C        3.910     0.012    20.309     6.405
     4   6 C        2.978     0.000    28.015     8.682
     5   6 C        2.920    -0.077    29.930     8.971
     6   6 C        2.864     0.133    25.096     8.211
     7   8 O        1.706    -0.226    17.753     5.689
     8   6 C        3.645     0.027    20.464     6.502
     9   6 C        2.867     0.131    25.130     8.217
    10   8 O        1.706    -0.227    17.767     5.691
    11   6 C        3.645     0.027    20.461     6.501
    12   6 C        2.914    -0.072    29.789     8.950
    13   6 C        2.923    -0.055    29.362     8.886
    14   6 C        3.815    -0.068    21.798     6.645
    15   6 C        3.808    -0.076    21.948     6.669
    16   6 C        3.734     0.093    19.130     6.242
    17   7 N        2.731    -0.143    24.096     7.290
    18   6 C        3.747     0.001    20.630     6.478
    19   6 C        3.809    -0.075    21.926     6.665
    20   6 C        2.968     0.006    27.891     8.663
    21   6 C        2.922    -0.047    29.178     8.858
    22   6 C        2.913    -0.067    29.672     8.932
    23   6 C        2.865     0.132    25.100     8.212
    24   8 O        1.706    -0.222    17.692     5.679
    25   6 C        3.645     0.026    20.477     6.503
    26   6 C        2.862     0.133    25.089     8.210
    27   8 O        1.706    -0.225    17.727     5.685
    28   6 C        3.645     0.027    20.451     6.500
    29   6 C        2.920    -0.078    29.939     8.973
    30   6 C        3.697    -0.051    21.658     6.657
    31   6 C        3.853    -0.016    20.821     6.490
    32   6 C        3.755    -0.115    22.756     6.802
    33   6 C        3.755    -0.114    22.736     6.799
    34   1 H        0.926     0.053     2.281     2.362
    35   1 H        0.924     0.053     2.286     2.365
    36   1 H        0.925     0.082     1.958     2.188
    37   1 H        0.924     0.050     2.322     2.383
    38   1 H        0.924     0.053     2.278     2.360
    39   1 H        0.925     0.082     1.963     2.191
    40   1 H        0.924     0.050     2.317     2.380
    41   1 H        0.926     0.054     2.276     2.359
    42   1 H        0.926     0.074     2.046     2.237
    43   1 H        0.925     0.058     2.217     2.329
    44   1 H        0.925     0.054     2.266     2.354
    45   1 H        0.925     0.064     2.154     2.295
    46   1 H        0.925     0.066     2.126     2.280
    47   1 H        0.926     0.032     2.558     2.501
    48   1 H        0.923     0.064     2.148     2.292
    49   1 H        0.923     0.030     2.593     2.518
    50   1 H        0.924     0.043     2.410     2.428
    51   1 H        0.924     0.059     2.207     2.323
    52   1 H        0.925     0.057     2.231     2.336
    53   1 H        0.926     0.046     2.371     2.408
    54   1 H        0.926     0.057     2.234     2.337
    55   1 H        0.924     0.054     2.276     2.359
    56   1 H        0.924     0.056     2.249     2.345
    57   1 H        0.925     0.081     1.964     2.192
    58   1 H        0.925     0.081     1.970     2.195
    59   1 H        0.924     0.049     2.327     2.385
    60   1 H        0.924     0.053     2.277     2.360
    61   1 H        0.926     0.050     2.324     2.384
    62   1 H        0.924     0.042     2.419     2.432
    63   1 H        0.925     0.057     2.239     2.340
    64   1 H        0.924     0.055     2.259     2.351
    65   1 H        0.924     0.048     2.339     2.392
    66   1 H        0.925     0.040     2.444     2.445
    67   1 H        0.925     0.044     2.401     2.423
    68   1 H        0.925     0.055     2.260     2.351
    69   1 H        0.925     0.036     2.501     2.473
    70   1 H        0.925     0.042     2.423     2.434
    71   1 H        0.925     0.058     2.219     2.330
    72   1 H        0.860     0.188     1.169     1.694

Wiberg/Mayer (AO) data.
largest (>0.10) Wiberg bond orders for each atom

     #   Z sym  total        # sym  WBO       # sym  WBO       # sym  WBO
 ---------------------------------------------------------------------------
     1   7 N    3.401 --     2 C    1.433    72 H    0.933    16 C    0.919
     2   6 C    3.538 --     1 N    1.433     3 C    1.034    42 H    0.953
     3   6 C    3.983 --     2 C    1.034    14 C    0.973     4 C    0.942
                            31 C    0.932
     4   6 C    3.927 --    13 C    1.415     5 C    1.374     3 C    0.942
     5   6 C    3.963 --     6 C    1.398     4 C    1.374    34 H    0.957
     6   6 C    3.908 --     5 C    1.398     9 C    1.222     7 O    1.104
     7   8 O    2.261 --     6 C    1.104     8 C    0.977
     8   6 C    3.931 --     7 O    0.977    36 H    0.977    37 H    0.974
                            35 H    0.973
     9   6 C    3.906 --    12 C    1.393     6 C    1.222    10 O    1.103
    10   8 O    2.256 --     9 C    1.103    11 C    0.977
    11   6 C    3.931 --    10 O    0.977    39 H    0.977    40 H    0.974
                            38 H    0.973
    12   6 C    3.965 --    13 C    1.406     9 C    1.393    41 H    0.963
    13   6 C    3.954 --     4 C    1.415    12 C    1.406    47 H    0.958
    14   6 C    3.988 --    15 C    1.007     3 C    0.973    43 H    0.970
                            44 H    0.969
    15   6 C    3.985 --    14 C    1.007    16 C    0.986    46 H    0.971
                            45 H    0.967
    16   6 C    3.955 --    17 N    1.037    15 C    0.986    48 H    0.944
                             1 N    0.919
    17   7 N    3.180 --    16 C    1.037    30 C    1.004    18 C    1.000
    18   6 C    3.970 --    17 N    1.000    19 C    0.975    50 H    0.971
                            49 H    0.964
    19   6 C    3.983 --    20 C    1.013    18 C    0.975    52 H    0.972
                            51 H    0.967
    20   6 C    3.938 --    21 C    1.398    29 C    1.386    19 C    1.013
    21   6 C    3.940 --    22 C    1.423    20 C    1.398    53 H    0.968
    22   6 C    3.957 --    21 C    1.423    23 C    1.378    54 H    0.963
    23   6 C    3.885 --    22 C    1.378    26 C    1.220    24 O    1.107
    24   8 O    2.247 --    23 C    1.107    25 C    0.977
    25   6 C    3.929 --    24 O    0.977    57 H    0.977    55 H    0.972
                            56 H    0.972
    26   6 C    3.890 --    29 C    1.390    23 C    1.220    27 O    1.103
    27   8 O    2.248 --    26 C    1.103    28 C    0.979
    28   6 C    3.932 --    27 O    0.979    58 H    0.977    60 H    0.973
                            59 H    0.973
    29   6 C    3.957 --    26 C    1.390    20 C    1.386    61 H    0.961
    30   6 C    3.972 --    17 N    1.004    63 H    0.978    64 H    0.976
                            62 H    0.974
    31   6 C    3.972 --    32 C    1.010    33 C    1.009    65 H    0.964
                             3 C    0.932
    32   6 C    3.991 --    31 C    1.010    66 H    0.983    68 H    0.982
                            67 H    0.981
    33   6 C    3.989 --    31 C    1.009    69 H    0.982    70 H    0.982
                            71 H    0.981
    34   1 H    0.996 --     5 C    0.957
    35   1 H    0.993 --     8 C    0.973
    36   1 H    0.993 --     8 C    0.977
    37   1 H    0.994 --     8 C    0.974
    38   1 H    0.993 --    11 C    0.973
    39   1 H    0.993 --    11 C    0.977
    40   1 H    0.993 --    11 C    0.974
    41   1 H    0.995 --    12 C    0.963
    42   1 H    0.993 --     2 C    0.953
    43   1 H    0.996 --    14 C    0.970
    44   1 H    0.996 --    14 C    0.969
    45   1 H    0.996 --    15 C    0.967
    46   1 H    0.995 --    15 C    0.971
    47   1 H    0.998 --    13 C    0.958
    48   1 H    0.988 --    16 C    0.944
    49   1 H    0.993 --    18 C    0.964
    50   1 H    0.998 --    18 C    0.971
    51   1 H    0.993 --    19 C    0.967
    52   1 H    0.996 --    19 C    0.972
    53   1 H    0.997 --    21 C    0.968
    54   1 H    0.995 --    22 C    0.963
    55   1 H    0.991 --    25 C    0.972
    56   1 H    0.991 --    25 C    0.972
    57   1 H    0.993 --    25 C    0.977
    58   1 H    0.993 --    28 C    0.977
    59   1 H    0.992 --    28 C    0.973
    60   1 H    0.992 --    28 C    0.973
    61   1 H    0.996 --    29 C    0.961
    62   1 H    0.994 --    30 C    0.974
    63   1 H    0.996 --    30 C    0.978
    64   1 H    0.991 --    30 C    0.976
    65   1 H    0.996 --    31 C    0.964
    66   1 H    0.998 --    32 C    0.983
    67   1 H    0.998 --    32 C    0.981
    68   1 H    0.995 --    32 C    0.982
    69   1 H    0.998 --    33 C    0.982
    70   1 H    0.998 --    33 C    0.982
    71   1 H    0.995 --    33 C    0.981
    72   1 H    0.964 --     1 N    0.933
 ---------------------------------------------------------------------------

molecular dipole:
                 x           y           z       tot (Debye)
 q only:       -0.099       0.868       0.026
   full:        0.004       1.053       0.391       2.855

           -------------------------------------------------
          | TOTAL ENERGY              -99.448021087561 Eh   |
          | GRADIENT NORM               0.002452650815 Eh/α |
          | HOMO-LUMO GAP               1.526946165584 eV   |
           -------------------------------------------------

 * finished run on 2024/04/06 at 11:13:10.614
