   * xtb version 6.6.1 (8d0f1dd) compiled by 'conda@1efc2f54142f' on 2023-08-01
          program call               : xtb struc.xyz --opt loose --input .xc1 --gfn2

   ID    Z sym.   atoms
    1    6 C      1, 3, 5-7, 10, 11, 14
    2    7 N      2, 4, 9, 13
    3    8 O      8, 12
    4    1 H      15-25
constraining bond 18 25 to    4.2800000 Å, actual value:    2.5465365 Å

          :  Hamiltonian                  GFN2-xTB          :
 * total energy  :   -36.8947126 Eh     change       -0.2401990E-09 Eh
 * total energy  :   -39.5842038 Eh     change       -0.2689491E+01 Eh
 * total energy  :   -41.3464010 Eh     change       -0.1762197E+01 Eh
 * total energy  :   -42.0014170 Eh     change       -0.6550160E+00 Eh
 * total energy  :   -42.0896369 Eh     change       -0.8821987E-01 Eh
 * total energy  :   -42.0911645 Eh     change       -0.1527639E-02 Eh
 * total energy  :   -42.0928256 Eh     change       -0.1661128E-02 Eh
 * total energy  :   -42.0972773 Eh     change       -0.4451673E-02 Eh
 * total energy  :   -42.1020477 Eh     change       -0.4770419E-02 Eh
 * total energy  :   -42.1106137 Eh     change       -0.8565960E-02 Eh
 * total energy  :   -42.1790689 Eh     change       -0.1589772E-03 Eh
 * total energy  :   -42.1790858 Eh     change       -0.1688194E-04 Eh
 * total energy  :   -42.1792619 Eh     change       -0.1760726E-03 Eh
 * total energy  :   -42.1793271 Eh     change       -0.6523852E-04 Eh
 * total energy  :   -42.1793607 Eh     change       -0.3364104E-04 Eh
 * total energy  :   -42.1793981 Eh     change       -0.3732725E-04 Eh
 * total energy  :   -42.1794326 Eh     change       -0.3452079E-04 Eh
 * total energy  :   -42.1794675 Eh     change       -0.3493501E-04 Eh
 * total energy  :   -42.1795110 Eh     change       -0.4342907E-04 Eh
   *** GEOMETRY OPTIMIZATION CONVERGED AFTER 57 ITERATIONS ***

 final structure:
================
25
 xtb: 6.6.1 (8d0f1dd)
C            3.26796584889652        1.18238816032859       -0.00881147845098
N            2.29224684029391        0.13592637709810        0.09649770973124
C            2.51856681785851       -1.19670322920145        0.15269464275646
N            1.41284953467724       -1.90026494536954        0.26565991046757
C            0.41540828844708       -0.99848675652986        0.28213983619912
C            0.93406452135327        0.29328234197379        0.17060225061607
C            0.07731306806292        1.44331671645748        0.04946734477675
O            0.43488419763454        2.59738094038398       -0.05130530805391
N           -1.27889496708139        1.07874227192134        0.02669798022986
C           -2.25150860988429        2.14347482815340       -0.14865422698927
C           -1.81951955233894       -0.19099430772113        0.10611424780897
O           -3.00260245855893       -0.39704665479352        0.02544678726886
N           -0.91859273656091       -1.26225349367393        0.31222449956866
C           -1.35206466556816       -2.57387055491654        0.33939165142338
H            3.88054102230999        1.22200297159589        0.89468901967761
H            3.92322543499185        1.00402106225146       -0.86278220294856
H            2.75588006366679        2.13671180519561       -0.13362113501780
H            3.48108209732282       -1.65807147060540        0.07946933857674
H           -1.72021935437345        3.09394858044724       -0.16549419458266
H           -2.79706660741752        2.00196618644217       -1.08349919785371
H           -2.97362931801071        2.12703333354630        0.66910899661643
H           -0.85532861818016       -3.19649443653449        1.07376967456654
H           -0.73957917413545       -3.16607167195904       -0.81953483936351
H           -2.42494025475015       -2.68279273421178        0.23150138115049
H           -0.09964990455469       -3.41890677867808       -1.47060107027331

          :  Hamiltonian                  GFN2-xTB          :
         :: total energy             -42.179510954502 Eh    ::
         :: gradient norm              0.003404987857 Eh/a0 ::
         :: HOMO-LUMO gap              2.073722773628 eV    ::
         :: SCC energy               -42.693469508528 Eh    ::
         :: -> dispersion             -0.023297869879 Eh    ::
         :: repulsion energy           0.513810721836 Eh    ::

    * Orbital Energies and Occupations

         #    Occupation            Energy/Eh            Energy/eV
      -------------------------------------------------------------
         1        2.0000           -0.8976500             -24.4263
       ...           ...                  ...                  ...
        25        1.9968           -0.6655172             -18.1096
        26        1.9961           -0.6607373             -17.9796
        27        1.9943           -0.6519576             -17.7407
        28        1.9937           -0.6495016             -17.6738
        29        1.9903           -0.6391322             -17.3917
        30        1.9824           -0.6250039             -17.0072
        31        1.9781           -0.6196954             -16.8628
        32        1.9583           -0.6041918             -16.4409
        33        1.9556           -0.6026536             -16.3990
        34        1.9087           -0.5849909             -15.9184
        35        1.8948           -0.5814414             -15.8218
        36        1.8745           -0.5769954             -15.7008
        37        1.8230           -0.5681679             -15.4606 (HOMO)
        38        0.5879           -0.4919600             -13.3869 (LUMO)
        39        0.0558           -0.4284190             -11.6579
        40        0.0117           -0.3908420             -10.6354
        41        0.0055           -0.3730030             -10.1499
        42        0.0002           -0.2966953              -8.0735
        43        0.0000           -0.2058855              -5.6024
        44        0.0000           -0.1586606              -4.3174
        45        0.0000           -0.1366074              -3.7173
        46                         -0.0671252              -1.8266
        47                         -0.0535502              -1.4572
        48                         -0.0420682              -1.1447
       ...                                ...                  ...
        67                          0.5291894              14.4000
      -------------------------------------------------------------
                  HL-Gap            0.0762079 Eh            2.0737 eV

     #   Z          covCN         q      C6AA      α(0)
     1   6 C        3.689    -0.080    22.237     6.749
     2   7 N        2.835     0.048    20.403     6.709
     3   6 C        3.187     0.094    25.472     8.234
     4   7 N        1.899    -0.212    26.455     7.625
     5   6 C        3.190     0.118    24.951     8.148
     6   6 C        3.110    -0.009    28.089     8.683
     7   6 C        2.763     0.269    22.457     7.761
     8   8 O        0.858    -0.332    20.367     6.051
     9   7 N        2.744    -0.069    22.580     7.057
    10   6 C        3.710    -0.061    21.824     6.677
    11   6 C        2.727     0.313    21.674     7.622
    12   8 O        0.859    -0.334    20.396     6.055
    13   7 N        2.739    -0.018    21.592     6.901
    14   6 C        3.227    -0.026    27.845     8.571
    15   1 H        0.924     0.112     1.682     2.028
    16   1 H        0.924     0.109     1.709     2.044
    17   1 H        0.925     0.127     1.558     1.952
    18   1 H        0.927     0.112     1.680     2.027
    19   1 H        0.925     0.128     1.553     1.949
    20   1 H        0.924     0.115     1.658     2.014
    21   1 H        0.924     0.117     1.641     2.004
    22   1 H        0.925     0.132     1.520     1.928
    23   1 H        0.552     0.105     2.320     2.539
    24   1 H        0.925     0.142     1.448     1.882
    25   1 H        0.119     0.102     4.380     3.824

Wiberg/Mayer (AO) data.
largest (>0.10) Wiberg bond orders for each atom

     #   Z sym  total        # sym  WBO       # sym  WBO       # sym  WBO
 ---------------------------------------------------------------------------
     1   6 C    3.893 --     2 N    0.997    17 H    0.956    16 H    0.952
                            15 H    0.946
     2   7 N    3.621 --     3 C    1.280     6 C    1.190     1 C    0.997
     3   6 C    3.856 --     4 N    1.460     2 N    1.280    18 H    0.953
     4   7 N    2.948 --     3 C    1.460     5 C    1.286
     5   6 C    3.879 --     6 C    1.287     4 N    1.286    13 N    1.131
     6   6 C    3.817 --     5 C    1.287     2 N    1.190     7 C    1.084
     7   6 C    3.908 --     8 O    1.661     6 C    1.084     9 N    1.074
     8   8 O    1.936 --     7 C    1.661     9 N    0.117
     9   7 N    3.490 --    11 C    1.130     7 C    1.074    10 C    0.978
                            12 O    0.124     8 O    0.117
    10   6 C    3.857 --     9 N    0.978    19 H    0.952    21 H    0.943
                            20 H    0.942
    11   6 C    3.919 --    12 O    1.683     9 N    1.130    13 N    1.020
    12   8 O    1.974 --    11 C    1.683     9 N    0.124
    13   7 N    3.549 --    14 C    1.145     5 C    1.131    11 C    1.020
    14   6 C    3.544 --    13 N    1.145    24 H    0.951    22 H    0.945
                            23 H    0.395
    15   1 H    0.970 --     1 C    0.946
    16   1 H    0.973 --     1 C    0.952
    17   1 H    0.974 --     1 C    0.956
    18   1 H    0.983 --     3 C    0.953
    19   1 H    0.970 --    10 C    0.952
    20   1 H    0.959 --    10 C    0.942
    21   1 H    0.960 --    10 C    0.943
    22   1 H    0.971 --    14 C    0.945
    23   1 H    0.976 --    25 H    0.569    14 C    0.395
    24   1 H    0.973 --    14 C    0.951
    25   1 H    0.690 --    23 H    0.569
 ---------------------------------------------------------------------------

molecular dipole:
                 x           y           z       tot (Debye)
 q only:        1.094      -1.354      -0.166
   full:        1.333      -1.259      -0.143       4.675

           -------------------------------------------------
          | TOTAL ENERGY              -42.179510954502 Eh   |
          | GRADIENT NORM               0.003404987857 Eh/α |
          | HOMO-LUMO GAP               2.073722773628 eV   |
           -------------------------------------------------

 * finished run on 2024/06/05 at 19:58:56.398
