   * xtb version 6.6.1 (8d0f1dd) compiled by 'conda@1efc2f54142f' on 2023-08-01
          program call               : xtb xtbopt.xyz --opt crude --input .xc2 --gfn2

   ID    Z sym.   atoms
    1    6 C      1, 3, 5-7, 10, 11, 14
    2    7 N      2, 4, 9, 13
    3    8 O      8, 12
    4    1 H      15-25

          :  Hamiltonian                  GFN2-xTB          :
 * total energy  :   -42.1795120 Eh     change        0.2842171E-13 Eh
 * total energy  :   -42.1803542 Eh     change       -0.8421825E-03 Eh
 * total energy  :   -42.1813483 Eh     change       -0.9941163E-03 Eh
 * total energy  :   -42.1821176 Eh     change       -0.7692784E-03 Eh
 * total energy  :   -42.1828304 Eh     change       -0.7128261E-03 Eh
 * total energy  :   -42.1834946 Eh     change       -0.6642228E-03 Eh
 * total energy  :   -42.1839292 Eh     change       -0.4345902E-03 Eh
 * total energy  :   -42.1841690 Eh     change       -0.2397530E-03 Eh
 * total energy  :   -42.1845133 Eh     change       -0.3443263E-03 Eh
   *** GEOMETRY OPTIMIZATION CONVERGED AFTER 9 ITERATIONS ***

 final structure:
================
25
 xtb: 6.6.1 (8d0f1dd)
C            3.29511125045533        1.28920793012842        0.04016734924084
N            2.35932636621609        0.20934101282741        0.16809798008392
C            2.63394673205032       -1.10308406239545        0.35455169487169
N            1.55314144173316       -1.84898928580539        0.40756120918553
C            0.52099528466636       -1.00344931706100        0.24777355245554
C            0.99716071218714        0.30141952486467        0.08744884304137
C            0.12067532059496        1.43184264472363       -0.05369126227530
O            0.45623522211963        2.59229030543322       -0.16335130808626
N           -1.22763263803748        1.04215813705513       -0.05171633152547
C           -2.22641546474325        2.09250557474914       -0.14434180386141
C           -1.73396404743915       -0.23619154409214        0.02983732074887
O           -2.91343535648755       -0.46975675337365       -0.03519697103161
N           -0.80976592608002       -1.30457780343089        0.22717718919699
C           -1.27871339970113       -2.57531983797031        0.37161221818955
H            3.88888939309901        1.38835931005802        0.95017862709931
H            3.97236757147051        1.10730167224018       -0.79636525043495
H            2.74685015113384        2.21544917451178       -0.13144848409871
H            3.62507623726026       -1.49782963091173        0.45037645140181
H           -1.71183668702874        3.05228622710942       -0.14122159914524
H           -2.80912553414898        1.98265003768223       -1.05997286975579
H           -2.91085397957508        2.02602506288870        0.70258726759632
H           -0.60751561454894       -3.25452393972845        0.88310661402123
H           -1.24185371025230       -3.28817306217624       -1.01709654329199
H           -2.34436302898584       -2.64549770967586        0.53408006779937
H           -1.19386878186269       -3.68520512604224       -1.82898234352784

          :  Hamiltonian                  GFN2-xTB          :
         :: total energy             -42.184513280869 Eh    ::
         :: gradient norm              0.006609328467 Eh/a0 ::
         :: HOMO-LUMO gap              2.163309073284 eV    ::
         :: SCC energy               -42.703483893438 Eh    ::
         :: -> dispersion             -0.023178912385 Eh    ::
         :: repulsion energy           0.518831531770 Eh    ::

    * Orbital Energies and Occupations

         #    Occupation            Energy/Eh            Energy/eV
      -------------------------------------------------------------
         1        2.0000           -0.8988844             -24.4599
       ...           ...                  ...                  ...
        25        1.9968           -0.6645857             -18.0843
        26        1.9959           -0.6590611             -17.9340
        27        1.9941           -0.6501877             -17.6925
        28        1.9933           -0.6473675             -17.6158
        29        1.9903           -0.6383702             -17.3709
        30        1.9830           -0.6250063             -17.0073
        31        1.9790           -0.6199256             -16.8690
        32        1.9582           -0.6033568             -16.4182
        33        1.9574           -0.6028975             -16.4057
        34        1.9073           -0.5838086             -15.8862
        35        1.9014           -0.5822686             -15.8443
        36        1.8709           -0.5754965             -15.6601
        37        1.8379           -0.5696653             -15.5014 (HOMO)
        38        0.5703           -0.4901652             -13.3381 (LUMO)
        39        0.0540           -0.4268516             -11.6152
        40        0.0125           -0.3915850             -10.6556
        41        0.0051           -0.3702807             -10.0759
        42        0.0002           -0.2941187              -8.0034
        43        0.0000           -0.2064619              -5.6181
        44        0.0000           -0.1586524              -4.3172
        45        0.0000           -0.1379157              -3.7529
        46                         -0.0708668              -1.9284
        47                         -0.0493297              -1.3423
        48                         -0.0407995              -1.1102
       ...                                ...                  ...
        67                          0.5294944              14.4083
      -------------------------------------------------------------
                  HL-Gap            0.0795001 Eh            2.1633 eV

     #   Z          covCN         q      C6AA      α(0)
     1   6 C        3.689    -0.081    22.248     6.751
     2   7 N        2.833     0.047    20.414     6.711
     3   6 C        3.187     0.095    25.458     8.232
     4   7 N        1.901    -0.200    26.161     7.583
     5   6 C        3.176     0.118    25.030     8.170
     6   6 C        3.115    -0.009    28.069     8.678
     7   6 C        2.763     0.268    22.474     7.764
     8   8 O        0.858    -0.333    20.394     6.055
     9   7 N        2.745    -0.067    22.540     7.051
    10   6 C        3.710    -0.062    21.829     6.677
    11   6 C        2.731     0.311    21.723     7.631
    12   8 O        0.859    -0.335    20.421     6.059
    13   7 N        2.738    -0.004    21.344     6.862
    14   6 C        2.941    -0.020    28.496     8.755
    15   1 H        0.924     0.111     1.690     2.033
    16   1 H        0.924     0.110     1.701     2.039
    17   1 H        0.925     0.128     1.550     1.947
    18   1 H        0.926     0.113     1.674     2.023
    19   1 H        0.925     0.127     1.555     1.950
    20   1 H        0.924     0.116     1.650     2.009
    21   1 H        0.924     0.114     1.661     2.016
    22   1 H        0.925     0.134     1.503     1.917
    23   1 H        0.402     0.076     4.014     3.561
    24   1 H        0.926     0.141     1.452     1.884
    25   1 H        0.255     0.101     4.241     3.748

Wiberg/Mayer (AO) data.
largest (>0.10) Wiberg bond orders for each atom

     #   Z sym  total        # sym  WBO       # sym  WBO       # sym  WBO
 ---------------------------------------------------------------------------
     1   6 C    3.891 --     2 N    0.996    17 H    0.955    16 H    0.949
                            15 H    0.948
     2   7 N    3.620 --     3 C    1.277     6 C    1.192     1 C    0.996
     3   6 C    3.859 --     4 N    1.465     2 N    1.277    18 H    0.952
     4   7 N    2.948 --     3 C    1.465     5 C    1.289
     5   6 C    3.872 --     4 N    1.289     6 C    1.286    13 N    1.120
     6   6 C    3.819 --     5 C    1.286     2 N    1.192     7 C    1.086
     7   6 C    3.903 --     8 O    1.659     6 C    1.086     9 N    1.072
     8   8 O    1.932 --     7 C    1.659     9 N    0.115
     9   7 N    3.497 --    11 C    1.142     7 C    1.072    10 C    0.976
                            12 O    0.127     8 O    0.115
    10   6 C    3.860 --     9 N    0.976    19 H    0.952    21 H    0.945
                            20 H    0.943
    11   6 C    3.914 --    12 O    1.686     9 N    1.142    13 N    1.000
    12   8 O    1.975 --    11 C    1.686     9 N    0.127
    13   7 N    3.575 --    14 C    1.213     5 C    1.120    11 C    1.000
    14   6 C    3.526 --    13 N    1.213    22 H    0.949    24 H    0.947
                            23 H    0.307
    15   1 H    0.971 --     1 C    0.948
    16   1 H    0.972 --     1 C    0.949
    17   1 H    0.973 --     1 C    0.955
    18   1 H    0.983 --     3 C    0.952
    19   1 H    0.971 --    10 C    0.952
    20   1 H    0.960 --    10 C    0.943
    21   1 H    0.962 --    10 C    0.945
    22   1 H    0.974 --    14 C    0.949
    23   1 H    0.975 --    25 H    0.655    14 C    0.307
    24   1 H    0.974 --    14 C    0.947
    25   1 H    0.764 --    23 H    0.655
 ---------------------------------------------------------------------------

molecular dipole:
                 x           y           z       tot (Debye)
 q only:        0.994      -1.295      -0.049
   full:        1.221      -1.206      -0.052       4.365

           -------------------------------------------------
          | TOTAL ENERGY              -42.184513280869 Eh   |
          | GRADIENT NORM               0.006609328467 Eh/α |
          | HOMO-LUMO GAP               2.163309073284 eV   |
           -------------------------------------------------

 * finished run on 2024/06/05 at 19:58:56.767
