   * xtb version 6.6.1 (8d0f1dd) compiled by 'conda@1efc2f54142f' on 2023-08-01
          program call               : xtb xtbopt.xyz --opt crude --input .xc2 --gfn2

   ID    Z sym.   atoms
    1    6 C      1, 3, 5-7, 10, 11, 14
    2    7 N      2, 4, 9, 13
    3    8 O      8, 12
    4    1 H      15-25
########################################################################
[WARNING] Please study the warnings concerning your input carefully
-1- readin_getIntValue: could not parse ''
########################################################################

          :  Hamiltonian                  GFN2-xTB          :
 * total energy  :   -39.8327417 Eh     change       -0.1115552E-11 Eh
 * total energy  :   -42.1080349 Eh     change       -0.2275293E+01 Eh
 * total energy  :   -42.1178605 Eh     change       -0.9825599E-02 Eh
 * total energy  :   -42.1230076 Eh     change       -0.5147166E-02 Eh
 * total energy  :   -42.1254714 Eh     change       -0.2463705E-02 Eh
 * total energy  :   -42.1263438 Eh     change       -0.8724528E-03 Eh
 * total energy  :   -42.1275993 Eh     change       -0.1255492E-02 Eh
 * total energy  :   -42.1286358 Eh     change       -0.1036551E-02 Eh
 * total energy  :   -42.1294214 Eh     change       -0.7855632E-03 Eh
 * total energy  :   -42.1298961 Eh     change       -0.4747295E-03 Eh
 * total energy  :   -42.1300949 Eh     change       -0.1988052E-03 Eh
   *** GEOMETRY OPTIMIZATION CONVERGED AFTER 11 ITERATIONS ***

 final structure:
================
25
 xtb: 6.6.1 (8d0f1dd)
C            3.28988928833941        1.01165477690521        0.21546189488071
N            2.40595925119502        0.01777756237365        0.15623718470130
C            2.62275414372529       -1.30249783878147        0.39255721078592
N            1.45687783642270       -1.97906566337958        0.28343746631889
C            0.47038420762986       -1.08247951753853       -0.03447666633675
C            1.06277779085196        0.15209380975268       -0.13588881639228
C            0.28265178854969        1.41169784366898       -0.42882948528349
O            0.71248146909393        2.49367845050675        0.11823152717802
N           -1.15029250722902        1.06460406881451       -0.09818769762490
C           -2.01099945458480        2.20152866201531        0.10643322204749
C           -1.72589283995795       -0.16734571380959       -0.11882647347662
O           -2.91583773146402       -0.34143788463890       -0.06022647063577
N           -0.85637762785637       -1.29289316383186       -0.16664385924554
C           -1.43499543022425       -2.61819153597045       -0.16555045640115
H            4.31470282185402        0.79922153052019        0.45284476800193
H            0.24838421778726        1.51191602160728       -1.55914194560791
H            2.92710027114860        2.01572363030500        0.07041218556882
H            3.57286474773709       -1.73778871347927        0.62558298528046
H           -1.39710200849019        3.00803236353486        0.51084410659208
H           -2.45817759802083        2.53153166977172       -0.83604184449821
H           -2.81524056731796        1.93537410657308        0.79059880512042
H           -1.30107817936054       -3.10745103875585        0.80150377093165
H           -0.99005085643888       -3.22404605423500       -0.95524685985257
H           -2.50336436287986       -2.50899444464597       -0.35126566304264
H            1.35301284358757       -2.97440438568394        0.41735272889004

          :  Hamiltonian                  GFN2-xTB          :
         :: total energy             -42.130094944288 Eh    ::
         :: gradient norm              0.006056627711 Eh/a0 ::
         :: HOMO-LUMO gap              0.293736028450 eV    ::
         :: SCC energy               -42.632109951522 Eh    ::
         :: -> dispersion             -0.022866389445 Eh    ::
         :: repulsion energy           0.501865454090 Eh    ::

    * Orbital Energies and Occupations

         #    Occupation            Energy/Eh            Energy/eV
      -------------------------------------------------------------
         1        2.0000           -0.9153277             -24.9073
       ...           ...                  ...                  ...
        25        1.9999           -0.6715368             -18.2734
        26        1.9998           -0.6640710             -18.0703
        27        1.9998           -0.6567915             -17.8722
        28        1.9993           -0.6407517             -17.4357
        29        1.9990           -0.6342761             -17.2595
        30        1.9984           -0.6269808             -17.0610
        31        1.9976           -0.6204016             -16.8820
        32        1.9919           -0.6012341             -16.3604
        33        1.9728           -0.5818961             -15.8342
        34        1.9042           -0.5614083             -15.2767
        35        1.8649           -0.5556267             -15.1194
        36        1.8003           -0.5488898             -14.9361
        37        1.3940           -0.5272603             -14.3475 (HOMO)
        38        1.0755           -0.5164657             -14.0537 (LUMO)
        39        0.0023           -0.4067769             -11.0690
        40        0.0004           -0.3801216             -10.3436
        41        0.0000           -0.3374874              -9.1835
        42                         -0.2104539              -5.7267
        43                         -0.1978960              -5.3850
        44                         -0.1623489              -4.4177
        45                         -0.1433439              -3.9006
        46                         -0.0907230              -2.4687
        47                         -0.0674176              -1.8345
        48                         -0.0434096              -1.1812
       ...                                ...                  ...
        67                          0.5096575              13.8685
      -------------------------------------------------------------
                  HL-Gap            0.0107946 Eh            0.2937 eV

     #   Z          covCN         q      C6AA      α(0)
     1   6 C        2.790    -0.057    29.388     8.880
     2   7 N        2.818     0.130    19.023     6.478
     3   6 C        3.040     0.032    27.254     8.563
     4   7 N        2.787    -0.054    22.291     7.012
     5   6 C        3.021     0.113    25.496     8.283
     6   6 C        3.109    -0.021    28.370     8.726
     7   6 C        3.659     0.218    17.432     5.992
     8   8 O        0.856    -0.416    22.001     6.289
     9   7 N        2.733    -0.099    23.179     7.150
    10   6 C        3.703    -0.058    21.780     6.673
    11   6 C        2.720     0.317    21.614     7.611
    12   8 O        0.860    -0.351    20.729     6.104
    13   7 N        2.738    -0.060    22.408     7.030
    14   6 C        3.696    -0.071    22.036     6.715
    15   1 H        0.926     0.118     1.626     1.994
    16   1 H        0.916     0.100     1.785     2.089
    17   1 H        0.926     0.152     1.378     1.835
    18   1 H        0.926     0.127     1.554     1.949
    19   1 H        0.924     0.126     1.569     1.959
    20   1 H        0.924     0.108     1.718     2.050
    21   1 H        0.925     0.113     1.671     2.022
    22   1 H        0.924     0.087     1.912     2.162
    23   1 H        0.924     0.086     1.922     2.168
    24   1 H        0.925     0.129     1.544     1.943
    25   1 H        0.860     0.232     0.956     1.532

Wiberg/Mayer (AO) data.
largest (>0.10) Wiberg bond orders for each atom

     #   Z sym  total        # sym  WBO       # sym  WBO       # sym  WBO
 ---------------------------------------------------------------------------
     1   6 C    3.330 --     2 N    1.315    15 H    0.964    17 H    0.949
     2   7 N    3.763 --     1 C    1.315     3 C    1.226     6 C    1.123
     3   6 C    3.642 --     4 N    1.280     2 N    1.226    18 H    0.953
     4   7 N    3.520 --     3 C    1.280     5 C    1.163    25 H    0.918
     5   6 C    3.927 --     6 C    1.410    13 N    1.191     4 N    1.163
     6   6 C    3.749 --     5 C    1.410     2 N    1.123     7 C    0.940
     7   6 C    3.932 --     8 O    1.255     6 C    0.940     9 N    0.863
                            16 H    0.814
     8   8 O    1.417 --     7 C    1.255
     9   7 N    3.322 --    11 C    1.194    10 C    1.001     7 C    0.863
                            12 O    0.138
    10   6 C    3.871 --     9 N    1.001    21 H    0.952    19 H    0.947
                            20 H    0.928
    11   6 C    3.952 --    12 O    1.668     9 N    1.194    13 N    1.007
    12   8 O    1.984 --    11 C    1.668     9 N    0.138    13 N    0.102
    13   7 N    3.442 --     5 C    1.191    11 C    1.007    14 C    0.982
                            12 O    0.102
    14   6 C    3.914 --    13 N    0.982    23 H    0.967    24 H    0.962
                            22 H    0.961
    15   1 H    0.984 --     1 C    0.964
    16   1 H    0.838 --     7 C    0.814
    17   1 H    0.976 --     1 C    0.949
    18   1 H    0.983 --     3 C    0.953
    19   1 H    0.970 --    10 C    0.947
    20   1 H    0.944 --    10 C    0.928
    21   1 H    0.968 --    10 C    0.952
    22   1 H    0.977 --    14 C    0.961
    23   1 H    0.982 --    14 C    0.967
    24   1 H    0.982 --    14 C    0.962
    25   1 H    0.945 --     4 N    0.918
 ---------------------------------------------------------------------------

molecular dipole:
                 x           y           z       tot (Debye)
 q only:        2.383      -2.087      -0.074
   full:        2.619      -2.536      -0.180       9.276

           -------------------------------------------------
          | TOTAL ENERGY              -42.130094944288 Eh   |
          | GRADIENT NORM               0.006056627711 Eh/α |
          | HOMO-LUMO GAP               0.293736028450 eV   |
           -------------------------------------------------

 * finished run on 2024/06/05 at 19:59:14.024
