   * xtb version 6.6.1 (8d0f1dd) compiled by 'conda@1efc2f54142f' on 2023-08-01
          program call               : xtb struc.xyz --opt loose --input .xc1 --gfn2

   ID    Z sym.   atoms
    1    7 N      1, 17
    2    6 C      2-6, 8, 9, 11-16, 18-23, 25, 26, 28-33
    3    8 O      7, 10, 24, 27
    4    1 H      34-72
constraining bond 21 52 to    3.7133300 Å, actual value:    3.3576770 Å

          :  Hamiltonian                  GFN2-xTB          :
 * total energy  :   -99.4267159 Eh     change       -0.4035485E-08 Eh
 * total energy  :   -99.4970498 Eh     change       -0.7033389E-01 Eh
 * total energy  :   -99.5967673 Eh     change       -0.9971745E-01 Eh
 * total energy  :   -99.7774651 Eh     change       -0.1806978E+00 Eh
 * total energy  :  -100.0584867 Eh     change       -0.2810216E+00 Eh
 * total energy  :  -100.4541436 Eh     change       -0.3956569E+00 Eh
 * total energy  :   -99.4502707 Eh     change        0.1003873E+01 Eh
 * total energy  :  -100.5955472 Eh     change       -0.1145276E+01 Eh
 * total energy  :  -100.6533398 Eh     change       -0.5779257E-01 Eh
 * total energy  :  -100.6987914 Eh     change       -0.4545167E-01 Eh
 * total energy  :  -100.7833524 Eh     change       -0.1753595E-03 Eh
 * total energy  :  -100.7834783 Eh     change       -0.1258971E-03 Eh
 * total energy  :  -100.7836232 Eh     change       -0.1449024E-03 Eh
 * total energy  :  -100.7837787 Eh     change       -0.1554738E-03 Eh
 * total energy  :  -100.7839319 Eh     change       -0.1531719E-03 Eh
 * total energy  :  -100.7840746 Eh     change       -0.1427603E-03 Eh
 * total energy  :  -100.7841270 Eh     change       -0.5241153E-04 Eh
 * total energy  :  -100.7841691 Eh     change       -0.4208949E-04 Eh
 * total energy  :  -100.7841931 Eh     change       -0.2396678E-04 Eh
   *** GEOMETRY OPTIMIZATION CONVERGED AFTER 46 ITERATIONS ***

 final structure:
================
72
 xtb: 6.6.1 (8d0f1dd)
N           -1.84088517336938        2.78796825682898        2.34010791087199
C           -1.86905279767222        1.96284970875664        1.40259211935188
C           -2.99806827422172        1.83506817192659        0.41696217619028
C           -3.48044547070448        0.39414065672094        0.39756293462765
C           -4.30283342280567       -0.05898117073052       -0.63598109088202
C           -4.78627718955049       -1.35677356456351       -0.65961826616169
O           -5.58353595492131       -1.87498346694906       -1.61852038699641
C           -6.06663048603274       -1.03653270205897       -2.64066120173985
C           -4.44122075606185       -2.25194555270813        0.38818014079745
O           -4.95224592602635       -3.49598984194472        0.28331144495057
C           -4.74072478644907       -4.41147334177725        1.33256723669691
C           -3.63522358999352       -1.79199527822031        1.41697412678698
C           -3.16528649227414       -0.48578451926703        1.42115808545908
C           -2.39793106081581        2.24123678680192       -0.95631138215191
C           -1.49393284098769        1.18223754471471       -1.60558087134066
C           -0.20568788512931        0.99304685392187       -0.90545600651830
N            0.41204683857356       -0.17221286837127       -0.77264871377190
C            1.70640635024398       -0.21400994857404       -0.12139684110261
C            2.78164803381258        0.38189156775642       -0.99109947769553
C            4.11221046041807        0.22199896191238       -0.83066791655834
C            5.03357103806470        0.94243047474560       -1.80338823093097
C            6.48138192545080        0.89818896131625       -1.39489615295834
C            6.95049398340643        0.14548595209300       -0.38459327161628
O            8.22920755588033        0.05438194773466        0.03055824897846
C            9.20055874601667        0.85018031338008       -0.60626850452349
C            6.03038697256495       -0.68781750191690        0.38967388271624
O            6.64505148490967       -1.46559948996089        1.28616048524881
C            5.88898866250447       -2.36461720979664        2.06247739865376
C            4.68746756505240       -0.61143989471751        0.17682798631993
C           -0.14275223371485       -1.39367235048444       -1.30439372670177
C           -4.21990391367333        2.74500036653682        0.74019559347154
C           -4.82961549345763        2.40043816876007        2.09673508422734
C           -3.89706121435990        4.23603023873160        0.68669495618908
H           -4.58277561384750        0.61989002823655       -1.42484672068627
H           -6.63754076859424       -0.19625709563914       -2.23464520785704
H           -6.72415296155423       -1.66063363548917       -3.24253713484057
H           -5.25431645018103       -0.65805345570477       -3.26992413228517
H           -5.13772549881059       -4.03408925633379        2.27962710550401
H           -5.28117478543817       -5.31207163561572        1.04811110016984
H           -3.67866815769557       -4.64939389340206        1.45092644900725
H           -3.37644661728247       -2.44095258585042        2.23759778960200
H           -2.56913211150488       -0.15602331469808        2.25786323452041
H           -3.21710133665654        2.45051723405006       -1.64419431949624
H           -1.83324913352461        3.16531660921472       -0.82707835745685
H           -2.03664998976302        0.24084504359787       -1.68462903697123
H           -1.27899527324942        1.52846140448315       -2.62590816935263
H           -1.03831884614453        1.27109534098097        1.16346915915163
H            0.33208827110693        1.86810682791166       -0.57188120521247
H            1.93585098400225       -1.25120190748850        0.12933886970923
H            1.64388663401620        0.34814421813747        0.82200221668315
H            2.42098415716629        1.02774486467781       -1.77819349811217
H            4.94151376370295        0.66354352012143       -2.53216532494419
H            4.75073339530307        2.01161674176278       -1.76869155380000
H            7.13957844457685        1.50395071100973       -1.99726096003012
H            8.96233187862581        1.91420761784610       -0.51485315816887
H            9.29991549891480        0.58834909461763       -1.66303440899936
H           10.13539861281118        0.64166380973231       -0.09101763468252
H            6.61200657972157       -2.91804211133356        2.65856285372549
H            5.19908345353973       -1.83625530113318        2.72760109081377
H            5.32892106459165       -3.06141505484901        1.43185741158525
H            4.01952632094161       -1.19151928830168        0.79235769219211
H           -0.38252328044418       -1.28154323536735       -2.36317133554851
H           -1.05285322945374       -1.67242209693119       -0.76575783229998
H            0.58178597371220       -2.19728598976927       -1.20373569263755
H           -4.97121547601915        2.53045726577292       -0.02919975435784
H           -4.12969330058686        2.63808651346458        2.89154754270692
H           -5.08932959939766        1.34614562066031        2.15555767319887
H           -5.73412108562621        2.98345738068298        2.24805318516662
H           -3.10492436018931        4.47331704910367        1.38946610788619
H           -3.60231519847654        4.55389053399526       -0.30958205118083
H           -4.78229073206467        4.80077452145453        0.96669138334771
H           -1.01168028390429        2.81297119829825        2.92568369667687

          :  Hamiltonian                  GFN2-xTB          :
         :: total energy            -100.784193087760 Eh    ::
         :: gradient norm              0.003539932022 Eh/a0 ::
         :: HOMO-LUMO gap              1.546409341526 eV    ::
         :: SCC energy              -100.766794637507 Eh    ::
         :: -> dispersion             -0.074415960864 Eh    ::
         :: repulsion energy           1.511645675178 Eh    ::

    * Orbital Energies and Occupations

         #    Occupation            Energy/Eh            Energy/eV
      -------------------------------------------------------------
         1        2.0000           -0.8142183             -22.1560
       ...           ...                  ...                  ...
        78        1.9984           -0.5264596             -14.3257
        79        1.9983           -0.5258580             -14.3093
        80        1.9980           -0.5231956             -14.2369
        81        1.9976           -0.5202265             -14.1561
        82        1.9974           -0.5193766             -14.1330
        83        1.9959           -0.5119911             -13.9320
        84        1.9953           -0.5098569             -13.8739
        85        1.9945           -0.5072447             -13.8028
        86        1.9813           -0.4878098             -13.2740
        87        1.9707           -0.4806297             -13.0786
        88        1.9385           -0.4686131             -12.7516
        89        1.8758           -0.4569769             -12.4350
        90        1.8004           -0.4488125             -12.2128 (HOMO)
        91        0.3989           -0.3919830             -10.6664 (LUMO)
        92        0.0453           -0.3543753              -9.6430
        93        0.0140           -0.3355509              -9.1308
        94        0.0036           -0.3138597              -8.5406
        95        0.0029           -0.3105152              -8.4495
        96        0.0005           -0.2838125              -7.7229
        97        0.0000           -0.2130914              -5.7985
        98        0.0000           -0.1880893              -5.1182
        99                         -0.1406804              -3.8281
       100                         -0.0665461              -1.8108
       101                         -0.0649084              -1.7662
       ...                                ...                  ...
       171                          1.1136109              30.3029
      -------------------------------------------------------------
                  HL-Gap            0.0568295 Eh            1.5464 eV

     #   Z          covCN         q      C6AA      α(0)
     1   7 N        1.774    -0.272    27.879     7.819
     2   6 C        2.828     0.102    25.728     8.312
     3   6 C        3.908     0.006    20.417     6.423
     4   6 C        2.975    -0.000    28.028     8.684
     5   6 C        2.920    -0.081    30.026     8.986
     6   6 C        2.862     0.128    25.197     8.228
     7   8 O        1.706    -0.233    17.858     5.706
     8   6 C        3.644     0.029    20.431     6.497
     9   6 C        2.864     0.128    25.197     8.228
    10   8 O        1.706    -0.231    17.825     5.700
    11   6 C        3.645     0.028    20.442     6.498
    12   6 C        2.914    -0.074    29.838     8.957
    13   6 C        2.922    -0.052    29.283     8.874
    14   6 C        3.813    -0.064    21.721     6.634
    15   6 C        3.802    -0.070    21.837     6.653
    16   6 C        2.847     0.008    27.838     8.647
    17   7 N        2.730     0.014    21.014     6.808
    18   6 C        3.756    -0.013    20.857     6.512
    19   6 C        2.902    -0.084    30.112     8.998
    20   6 C        2.949     0.012    27.755     8.641
    21   6 C        3.817    -0.098    22.345     6.728
    22   6 C        2.897    -0.079    29.985     8.978
    23   6 C        2.851     0.134    25.073     8.207
    24   8 O        1.706    -0.231    17.823     5.700
    25   6 C        3.648     0.024    20.488     6.503
    26   6 C        2.858     0.147    24.809     8.164
    27   8 O        1.706    -0.211    17.503     5.649
    28   6 C        3.646     0.024    20.499     6.506
    29   6 C        2.906    -0.092    30.297     9.025
    30   6 C        3.698    -0.069    21.986     6.706
    31   6 C        3.853    -0.007    20.670     6.466
    32   6 C        3.756    -0.117    22.791     6.807
    33   6 C        3.755    -0.121    22.867     6.818
    34   1 H        0.926     0.050     2.315     2.380
    35   1 H        0.924     0.053     2.281     2.362
    36   1 H        0.925     0.080     1.977     2.199
    37   1 H        0.924     0.045     2.382     2.413
    38   1 H        0.924     0.054     2.265     2.353
    39   1 H        0.925     0.080     1.977     2.199
    40   1 H        0.924     0.048     2.351     2.398
    41   1 H        0.926     0.052     2.298     2.371
    42   1 H        0.926     0.040     2.452     2.449
    43   1 H        0.925     0.061     2.192     2.315
    44   1 H        0.924     0.055     2.255     2.348
    45   1 H        0.925     0.069     2.102     2.267
    46   1 H        0.923     0.078     1.999     2.211
    47   1 H        0.922     0.002     3.024     2.720
    48   1 H        0.926     0.074     2.044     2.236
    49   1 H        0.924     0.070     2.086     2.259
    50   1 H        0.923     0.065     2.140     2.288
    51   1 H        0.926     0.038     2.475     2.460
    52   1 H        0.930     0.122     1.598     1.977
    53   1 H        0.922     0.070     2.085     2.258
    54   1 H        0.926     0.058     2.222     2.331
    55   1 H        0.924     0.052     2.293     2.368
    56   1 H        0.924     0.053     2.281     2.362
    57   1 H        0.925     0.082     1.962     2.190
    58   1 H        0.925     0.085     1.931     2.173
    59   1 H        0.924     0.053     2.284     2.363
    60   1 H        0.924     0.052     2.292     2.368
    61   1 H        0.926     0.043     2.414     2.430
    62   1 H        0.924     0.079     1.991     2.207
    63   1 H        0.924     0.076     2.022     2.224
    64   1 H        0.925     0.082     1.961     2.190
    65   1 H        0.924     0.036     2.500     2.473
    66   1 H        0.925     0.064     2.152     2.294
    67   1 H        0.925     0.035     2.522     2.483
    68   1 H        0.925     0.050     2.314     2.379
    69   1 H        0.925     0.065     2.138     2.287
    70   1 H        0.925     0.035     2.517     2.481
    71   1 H        0.925     0.054     2.271     2.356
    72   1 H        0.860     0.155     1.371     1.834

Wiberg/Mayer (AO) data.
largest (>0.10) Wiberg bond orders for each atom

     #   Z sym  total        # sym  WBO       # sym  WBO       # sym  WBO
 ---------------------------------------------------------------------------
     1   7 N    3.033 --     2 C    1.954    72 H    0.943
     2   6 C    3.932 --     1 N    1.954     3 C    0.993    47 H    0.908
     3   6 C    3.976 --     2 C    0.993     4 C    0.976    14 C    0.952
                            31 C    0.944
     4   6 C    3.950 --    13 C    1.415     5 C    1.369     3 C    0.976
     5   6 C    3.963 --     6 C    1.401     4 C    1.369    34 H    0.958
     6   6 C    3.905 --     5 C    1.401     9 C    1.225     7 O    1.095
     7   8 O    2.251 --     6 C    1.095     8 C    0.979
     8   6 C    3.933 --     7 O    0.979    36 H    0.977    35 H    0.974
                            37 H    0.974
     9   6 C    3.902 --    12 C    1.392     6 C    1.225    10 O    1.099
    10   8 O    2.250 --     9 C    1.099    11 C    0.978
    11   6 C    3.932 --    10 O    0.978    39 H    0.977    40 H    0.974
                            38 H    0.974
    12   6 C    3.963 --    13 C    1.407     9 C    1.392    41 H    0.964
    13   6 C    3.955 --     4 C    1.415    12 C    1.407    42 H    0.962
    14   6 C    3.976 --    15 C    0.987    44 H    0.972    43 H    0.967
                             3 C    0.952
    15   6 C    3.988 --    16 C    1.061    14 C    0.987    45 H    0.957
                            46 H    0.926
    16   6 C    3.589 --    17 N    1.415    15 C    1.061    48 H    0.957
    17   7 N    3.479 --    16 C    1.415    30 C    1.000    18 C    0.980
    18   6 C    3.956 --    19 C    1.000    17 N    0.980    49 H    0.957
                            50 H    0.947
    19   6 C    3.843 --    20 C    1.687    18 C    1.000    51 H    0.965
    20   6 C    3.966 --    19 C    1.687    29 C    1.189    21 C    0.998
    21   6 C    3.978 --    22 C    1.028    20 C    0.998    52 H    0.943
                            53 H    0.934
    22   6 C    3.881 --    23 C    1.649    21 C    1.028    54 H    0.962
                            24 O    0.113
    23   6 C    3.912 --    22 C    1.649    24 O    1.096    26 C    1.059
    24   8 O    2.254 --    23 C    1.096    25 C    0.977    22 C    0.113
    25   6 C    3.931 --    24 O    0.977    57 H    0.977    55 H    0.974
                            56 H    0.973
    26   6 C    3.892 --    29 C    1.532    27 O    1.134    23 C    1.059
    27   8 O    2.303 --    26 C    1.134    28 C    0.975
    28   6 C    3.931 --    58 H    0.977    27 O    0.975    60 H    0.974
                            59 H    0.973
    29   6 C    3.897 --    26 C    1.532    20 C    1.189    61 H    0.957
    30   6 C    3.958 --    17 N    1.000    64 H    0.976    62 H    0.969
                            63 H    0.963
    31   6 C    3.974 --    32 C    1.009    33 C    1.008    65 H    0.961
                             3 C    0.944
    32   6 C    3.982 --    31 C    1.009    67 H    0.982    68 H    0.982
                            66 H    0.976
    33   6 C    3.981 --    31 C    1.008    70 H    0.983    71 H    0.980
                            69 H    0.975
    34   1 H    0.996 --     5 C    0.958
    35   1 H    0.994 --     8 C    0.974
    36   1 H    0.993 --     8 C    0.977
    37   1 H    0.994 --     8 C    0.974
    38   1 H    0.993 --    11 C    0.974
    39   1 H    0.993 --    11 C    0.977
    40   1 H    0.994 --    11 C    0.974
    41   1 H    0.996 --    12 C    0.964
    42   1 H    0.998 --    13 C    0.962
    43   1 H    0.995 --    14 C    0.967
    44   1 H    0.996 --    14 C    0.972
    45   1 H    0.993 --    15 C    0.957
    46   1 H    0.969 --    15 C    0.926
    47   1 H    0.987 --     2 C    0.908
    48   1 H    0.994 --    16 C    0.957
    49   1 H    0.991 --    18 C    0.957
    50   1 H    0.982 --    18 C    0.947
    51   1 H    0.998 --    19 C    0.965
    52   1 H    0.979 --    21 C    0.943
    53   1 H    0.984 --    21 C    0.934
    54   1 H    0.994 --    22 C    0.962
    55   1 H    0.994 --    25 C    0.974
    56   1 H    0.993 --    25 C    0.973
    57   1 H    0.993 --    25 C    0.977
    58   1 H    0.992 --    28 C    0.977
    59   1 H    0.994 --    28 C    0.973
    60   1 H    0.995 --    28 C    0.974
    61   1 H    0.997 --    29 C    0.957
    62   1 H    0.986 --    30 C    0.969
    63   1 H    0.985 --    30 C    0.963
    64   1 H    0.993 --    30 C    0.976
    65   1 H    0.993 --    31 C    0.961
    66   1 H    0.992 --    32 C    0.976
    67   1 H    0.997 --    32 C    0.982
    68   1 H    0.995 --    32 C    0.982
    69   1 H    0.992 --    33 C    0.975
    70   1 H    0.997 --    33 C    0.983
    71   1 H    0.994 --    33 C    0.980
    72   1 H    0.971 --     1 N    0.943
 ---------------------------------------------------------------------------

molecular dipole:
                 x           y           z       tot (Debye)
 q only:        1.172      -0.152      -1.065
   full:        1.403      -0.292      -1.127       4.633

           -------------------------------------------------
          | TOTAL ENERGY             -100.784193087760 Eh   |
          | GRADIENT NORM               0.003539932022 Eh/α |
          | HOMO-LUMO GAP               1.546409341526 eV   |
           -------------------------------------------------

 * finished run on 2024/04/06 at 11:17:00.408
