   * xtb version 6.6.1 (8d0f1dd) compiled by 'conda@1efc2f54142f' on 2023-08-01
          program call               : xtb xtbopt.xyz --opt crude --input .xc2 --gfn2

   ID    Z sym.   atoms
    1    7 N      1, 17
    2    6 C      2-6, 8, 9, 11-16, 18-23, 25, 26, 28-33
    3    8 O      7, 10, 24, 27
    4    1 H      34-72
########################################################################
[WARNING] Please study the warnings concerning your input carefully
-1- readin_getIntValue: could not parse ''
########################################################################

          :  Hamiltonian                  GFN2-xTB          :
 * total energy  :   -99.2538398 Eh     change       -0.9237056E-12 Eh
 * total energy  :   -99.3642760 Eh     change       -0.1104362E+00 Eh
 * total energy  :   -99.3656477 Eh     change       -0.1371684E-02 Eh
 * total energy  :   -99.3665046 Eh     change       -0.8569167E-03 Eh
 * total energy  :   -99.3665863 Eh     change       -0.8170443E-04 Eh
   *** GEOMETRY OPTIMIZATION CONVERGED AFTER 5 ITERATIONS ***

 final structure:
================
72
 xtb: 6.6.1 (8d0f1dd)
N           -1.84042751220951        2.78162833140134        2.34261111288343
C           -1.86997378836759        1.96035113633509        1.40184457899846
C           -3.00012660119487        1.83396251476903        0.41742800246765
C           -3.48251926857504        0.39302552744290        0.39686699208734
C           -4.30468032982463       -0.05890371662480       -0.63726955999119
C           -4.78737026563909       -1.35692724187093       -0.66270701234973
O           -5.58490954952761       -1.87391960595014       -1.62215306692449
C           -6.06738062469999       -1.03388597912986       -2.64355555656987
C           -4.44156578824283       -2.25352918771764        0.38351826414604
O           -4.95299929700264       -3.49726725950130        0.27692468117446
C           -4.74211527460452       -4.41427523889817        1.32517419409927
C           -3.63468935382055       -1.79516109368510        1.41243614817700
C           -3.16608782545277       -0.48846429385549        1.41879703927937
C           -2.40039927142874        2.24026873526094       -0.95599548150256
C           -1.49549377474965        1.18165643665455       -1.60543349366355
C           -0.20743884816792        0.99334249081908       -0.90470341620338
N            0.41165515138100       -0.17171934120559       -0.76849594279114
C            1.70488700921232       -0.21004108864735       -0.11456533124875
C            2.78120283558356        0.39810626428467       -0.97416064937085
C            4.11270061523614        0.24094771956727       -0.81234433207463
C            5.04122577788922        0.97412233415545       -1.74491306855036
C            6.48242822841024        0.91875565856471       -1.37330039055022
C            6.95462219542831        0.15273424396377       -0.37210317899909
O            8.23749654928485        0.04410594937760        0.02743174741390
C            9.21205079243903        0.83417650001364       -0.61333350825404
C            6.03225786818706       -0.67741836111340        0.40363729082462
O            6.64642985381164       -1.46124212424427        1.29728601304178
C            5.88834953726455       -2.35619609931942        2.07712037826784
C            4.68890762184279       -0.59889679755429        0.19201437566190
C           -0.14389519175013       -1.39326273097986       -1.29702802927232
C           -4.22107231748526        2.74441995188774        0.74294647096376
C           -4.82933125056382        2.39782631624582        2.09970901652812
C           -3.89672346952426        4.23522155537799        0.69226446921102
H           -4.58438799494283        0.62113543183454       -1.42507302672098
H           -6.63829425818283       -0.19393769597899       -2.23654637758006
H           -6.72486047947621       -1.65680288104812       -3.24678182187663
H           -5.25456335049701       -0.65481500511362       -3.27206010647779
H           -5.13925464413279       -4.03774859613554        2.27248820733607
H           -5.28307854729964       -5.31413232970053        1.03935124750540
H           -3.68025640227082       -4.65299641864988        1.44351827240562
H           -3.37391978951986       -2.44575171977401        2.23127849745808
H           -2.56990895470221       -0.15960711028934        2.25584904063623
H           -3.21972782662510        2.44931531230078       -1.64357977520680
H           -1.83596976058835        3.16447545806138       -0.82701879181545
H           -2.03799475757509        0.24043286084629       -1.68620721962718
H           -1.28026574375196        1.52940838692649       -2.62511138194955
H           -1.03976899100007        1.27020801799099        1.15897319170362
H            0.32973147334731        1.86867733285399       -0.57282476177531
H            1.93883004465745       -1.24759353968741        0.12930686990167
H            1.63620400967199        0.34427534886305        0.83275956587288
H            2.42184454834067        1.04736443523412       -1.75882141441048
H            4.92460548499870        0.56915330810718       -2.75721078686246
H            4.73714649118286        2.02513605873032       -1.80806747105932
H            7.14127755765317        1.52375397281535       -1.97457674611656
H            8.98170993851949        1.89997729199341       -0.52185508476202
H            9.30745967113223        0.57141953706783       -1.67117626146157
H           10.14799537208104        0.61975340840817       -0.10149487210025
H            6.61030055136862       -2.90726711388254        2.67647012768901
H            5.19799718957859       -1.82463896877164        2.73901271772726
H            5.32891702793407       -3.05551008731117        1.44804204258922
H            4.02099151560542       -1.18289408652703        0.80400389715717
H           -0.38360524088972       -1.28361019457041       -2.35576854268392
H           -1.05488540532273       -1.67007011989949       -0.75843786802343
H            0.57917619424335       -2.19781913225413       -1.19393468383089
H           -4.97348214735405        2.53216656346215       -0.02607800695524
H           -4.12810391620385        2.63402687099676        2.89389463433427
H           -5.08905750872124        1.34350184753064        2.15708771771567
H           -5.73345284986788        2.98082260841962        2.25346917679839
H           -3.10509965946850        4.47050980704071        1.39643599243462
H           -3.60049956297245        4.55469030788262       -0.30321603420814
H           -4.78175476547100        4.80062964705555        0.97221429899628
H           -1.01049334961735        2.80495920185060        2.92700162294744

          :  Hamiltonian                  GFN2-xTB          :
         :: total energy             -99.366586286870 Eh    ::
         :: gradient norm              0.002317204142 Eh/a0 ::
         :: HOMO-LUMO gap              1.535447201741 eV    ::
         :: SCC energy              -100.742205682983 Eh    ::
         :: -> dispersion             -0.074401402057 Eh    ::
         :: repulsion energy           1.374307704507 Eh    ::

    * Orbital Energies and Occupations

         #    Occupation            Energy/Eh            Energy/eV
      -------------------------------------------------------------
         1        2.0000           -0.8138787             -22.1468
       ...           ...                  ...                  ...
        78        1.9984           -0.5264316             -14.3249
        79        1.9983           -0.5258331             -14.3086
        80        1.9978           -0.5218230             -14.1995
        81        1.9976           -0.5205510             -14.1649
        82        1.9974           -0.5194350             -14.1345
        83        1.9959           -0.5119906             -13.9320
        84        1.9953           -0.5098728             -13.8743
        85        1.9945           -0.5072265             -13.8023
        86        1.9813           -0.4877962             -13.2736
        87        1.9704           -0.4803979             -13.0723
        88        1.9386           -0.4685978             -12.7512
        89        1.8760           -0.4569473             -12.4342
        90        1.7966           -0.4484268             -12.2023 (HOMO)
        91        0.4004           -0.3920002             -10.6669 (LUMO)
        92        0.0475           -0.3550905              -9.6625
        93        0.0141           -0.3355377              -9.1304
        94        0.0036           -0.3138378              -8.5400
        95        0.0029           -0.3104898              -8.4489
        96        0.0005           -0.2839190              -7.7258
        97        0.0000           -0.2151504              -5.8545
        98        0.0000           -0.1880583              -5.1173
        99                         -0.1407179              -3.8291
       100                         -0.0660377              -1.7970
       101                         -0.0649261              -1.7667
       ...                                ...                  ...
       171                          0.5984849              16.2856
      -------------------------------------------------------------
                  HL-Gap            0.0564266 Eh            1.5354 eV

     #   Z          covCN         q      C6AA      α(0)
     1   7 N        1.774    -0.272    27.880     7.819
     2   6 C        2.828     0.102    25.729     8.312
     3   6 C        3.908     0.006    20.418     6.423
     4   6 C        2.975    -0.000    28.027     8.684
     5   6 C        2.920    -0.081    30.025     8.986
     6   6 C        2.862     0.128    25.196     8.228
     7   8 O        1.706    -0.233    17.859     5.706
     8   6 C        3.644     0.029    20.431     6.497
     9   6 C        2.864     0.128    25.197     8.228
    10   8 O        1.706    -0.231    17.826     5.700
    11   6 C        3.645     0.028    20.443     6.498
    12   6 C        2.914    -0.074    29.838     8.957
    13   6 C        2.922    -0.052    29.284     8.874
    14   6 C        3.813    -0.064    21.721     6.634
    15   6 C        3.802    -0.070    21.836     6.653
    16   6 C        2.848     0.008    27.843     8.648
    17   7 N        2.730     0.013    21.021     6.809
    18   6 C        3.756    -0.013    20.852     6.511
    19   6 C        2.902    -0.083    30.087     8.994
    20   6 C        2.949     0.016    27.657     8.626
    21   6 C        3.816    -0.069    21.804     6.646
    22   6 C        2.898    -0.075    29.871     8.961
    23   6 C        2.851     0.134    25.062     8.205
    24   8 O        1.706    -0.230    17.812     5.698
    25   6 C        3.647     0.024    20.493     6.505
    26   6 C        2.857     0.147    24.812     8.164
    27   8 O        1.706    -0.212    17.516     5.651
    28   6 C        3.646     0.024    20.501     6.507
    29   6 C        2.906    -0.091    30.282     9.023
    30   6 C        3.698    -0.068    21.984     6.706
    31   6 C        3.853    -0.007    20.670     6.466
    32   6 C        3.756    -0.117    22.792     6.807
    33   6 C        3.755    -0.121    22.865     6.818
    34   1 H        0.926     0.050     2.315     2.379
    35   1 H        0.924     0.053     2.281     2.362
    36   1 H        0.925     0.080     1.977     2.199
    37   1 H        0.924     0.045     2.382     2.413
    38   1 H        0.924     0.055     2.265     2.353
    39   1 H        0.925     0.080     1.977     2.199
    40   1 H        0.924     0.048     2.350     2.398
    41   1 H        0.926     0.052     2.299     2.371
    42   1 H        0.926     0.040     2.452     2.449
    43   1 H        0.925     0.061     2.191     2.315
    44   1 H        0.924     0.055     2.255     2.349
    45   1 H        0.925     0.068     2.103     2.268
    46   1 H        0.923     0.078     1.999     2.211
    47   1 H        0.922     0.002     3.020     2.718
    48   1 H        0.926     0.074     2.045     2.236
    49   1 H        0.924     0.070     2.081     2.256
    50   1 H        0.923     0.065     2.136     2.286
    51   1 H        0.926     0.038     2.469     2.457
    52   1 H        0.924     0.078     2.005     2.214
    53   1 H        0.924     0.072     2.060     2.244
    54   1 H        0.926     0.059     2.210     2.325
    55   1 H        0.924     0.052     2.290     2.367
    56   1 H        0.924     0.053     2.279     2.361
    57   1 H        0.925     0.082     1.959     2.189
    58   1 H        0.925     0.085     1.929     2.172
    59   1 H        0.924     0.053     2.285     2.364
    60   1 H        0.924     0.052     2.293     2.368
    61   1 H        0.926     0.043     2.408     2.427
    62   1 H        0.924     0.079     1.991     2.207
    63   1 H        0.924     0.076     2.023     2.224
    64   1 H        0.925     0.082     1.964     2.191
    65   1 H        0.924     0.036     2.500     2.473
    66   1 H        0.925     0.064     2.152     2.294
    67   1 H        0.925     0.035     2.521     2.483
    68   1 H        0.925     0.050     2.314     2.379
    69   1 H        0.925     0.065     2.139     2.287
    70   1 H        0.925     0.035     2.517     2.481
    71   1 H        0.925     0.054     2.271     2.357
    72   1 H        0.860     0.155     1.370     1.834

Wiberg/Mayer (AO) data.
largest (>0.10) Wiberg bond orders for each atom

     #   Z sym  total        # sym  WBO       # sym  WBO       # sym  WBO
 ---------------------------------------------------------------------------
     1   7 N    3.034 --     2 C    1.954    72 H    0.943
     2   6 C    3.932 --     1 N    1.954     3 C    0.993    47 H    0.908
     3   6 C    3.976 --     2 C    0.993     4 C    0.975    14 C    0.953
                            31 C    0.944
     4   6 C    3.950 --    13 C    1.415     5 C    1.369     3 C    0.975
     5   6 C    3.963 --     6 C    1.401     4 C    1.369    34 H    0.958
     6   6 C    3.905 --     5 C    1.401     9 C    1.225     7 O    1.095
     7   8 O    2.251 --     6 C    1.095     8 C    0.979
     8   6 C    3.933 --     7 O    0.979    36 H    0.977    35 H    0.974
                            37 H    0.974
     9   6 C    3.902 --    12 C    1.392     6 C    1.225    10 O    1.099
    10   8 O    2.250 --     9 C    1.099    11 C    0.978
    11   6 C    3.932 --    10 O    0.978    39 H    0.977    40 H    0.974
                            38 H    0.974
    12   6 C    3.963 --    13 C    1.407     9 C    1.392    41 H    0.964
    13   6 C    3.955 --     4 C    1.415    12 C    1.407    42 H    0.962
    14   6 C    3.976 --    15 C    0.987    44 H    0.972    43 H    0.967
                             3 C    0.953
    15   6 C    3.988 --    16 C    1.061    14 C    0.987    45 H    0.957
                            46 H    0.926
    16   6 C    3.588 --    17 N    1.414    15 C    1.061    48 H    0.957
    17   7 N    3.478 --    16 C    1.414    30 C    1.001    18 C    0.980
    18   6 C    3.956 --    19 C    1.002    17 N    0.980    49 H    0.957
                            50 H    0.946
    19   6 C    3.841 --    20 C    1.683    18 C    1.002    51 H    0.965
    20   6 C    3.966 --    19 C    1.683    29 C    1.186    21 C    1.007
    21   6 C    3.986 --    22 C    1.041    20 C    1.007    53 H    0.942
                            52 H    0.929
    22   6 C    3.881 --    23 C    1.642    21 C    1.041    54 H    0.961
                            24 O    0.112
    23   6 C    3.912 --    22 C    1.642    24 O    1.097    26 C    1.061
    24   8 O    2.254 --    23 C    1.097    25 C    0.977    22 C    0.112
    25   6 C    3.931 --    57 H    0.977    24 O    0.977    55 H    0.974
                            56 H    0.973
    26   6 C    3.892 --    29 C    1.532    27 O    1.132    23 C    1.061
    27   8 O    2.301 --    26 C    1.132    28 C    0.975
    28   6 C    3.931 --    58 H    0.977    27 O    0.975    60 H    0.974
                            59 H    0.973
    29   6 C    3.897 --    26 C    1.532    20 C    1.186    61 H    0.957
    30   6 C    3.958 --    17 N    1.001    64 H    0.976    62 H    0.969
                            63 H    0.963
    31   6 C    3.974 --    32 C    1.009    33 C    1.008    65 H    0.961
                             3 C    0.944
    32   6 C    3.982 --    31 C    1.009    68 H    0.982    67 H    0.982
                            66 H    0.976
    33   6 C    3.981 --    31 C    1.008    70 H    0.983    71 H    0.980
                            69 H    0.975
    34   1 H    0.996 --     5 C    0.958
    35   1 H    0.994 --     8 C    0.974
    36   1 H    0.993 --     8 C    0.977
    37   1 H    0.994 --     8 C    0.974
    38   1 H    0.993 --    11 C    0.974
    39   1 H    0.993 --    11 C    0.977
    40   1 H    0.994 --    11 C    0.974
    41   1 H    0.996 --    12 C    0.964
    42   1 H    0.998 --    13 C    0.962
    43   1 H    0.995 --    14 C    0.967
    44   1 H    0.996 --    14 C    0.972
    45   1 H    0.993 --    15 C    0.957
    46   1 H    0.969 --    15 C    0.926
    47   1 H    0.987 --     2 C    0.908
    48   1 H    0.994 --    16 C    0.957
    49   1 H    0.991 --    18 C    0.957
    50   1 H    0.982 --    18 C    0.946
    51   1 H    0.998 --    19 C    0.965
    52   1 H    0.981 --    21 C    0.929
    53   1 H    0.985 --    21 C    0.942
    54   1 H    0.994 --    22 C    0.961
    55   1 H    0.994 --    25 C    0.974
    56   1 H    0.993 --    25 C    0.973
    57   1 H    0.993 --    25 C    0.977
    58   1 H    0.992 --    28 C    0.977
    59   1 H    0.995 --    28 C    0.973
    60   1 H    0.995 --    28 C    0.974
    61   1 H    0.997 --    29 C    0.957
    62   1 H    0.986 --    30 C    0.969
    63   1 H    0.984 --    30 C    0.963
    64   1 H    0.993 --    30 C    0.976
    65   1 H    0.993 --    31 C    0.961
    66   1 H    0.992 --    32 C    0.976
    67   1 H    0.997 --    32 C    0.982
    68   1 H    0.995 --    32 C    0.982
    69   1 H    0.992 --    33 C    0.975
    70   1 H    0.997 --    33 C    0.983
    71   1 H    0.994 --    33 C    0.980
    72   1 H    0.971 --     1 N    0.943
 ---------------------------------------------------------------------------

molecular dipole:
                 x           y           z       tot (Debye)
 q only:        1.183      -0.148      -1.023
   full:        1.412      -0.285      -1.123       4.644

           -------------------------------------------------
          | TOTAL ENERGY              -99.366586286870 Eh   |
          | GRADIENT NORM               0.002317204142 Eh/α |
          | HOMO-LUMO GAP               1.535447201741 eV   |
           -------------------------------------------------

 * finished run on 2024/04/06 at 11:17:01.515
