   * xtb version 6.6.1 (8d0f1dd) compiled by 'conda@1efc2f54142f' on 2023-08-01
          program call               : xtb xtbopt.xyz --opt crude --input .xc2 --gfn2

   ID    Z sym.   atoms
    1    7 N      1, 17
    2    6 C      2-6, 8, 9, 11-16, 18-23, 25, 26, 28-33
    3    8 O      7, 10, 24, 27
    4    1 H      34-72

          :  Hamiltonian                  GFN2-xTB          :
 * total energy  :   -99.3365438 Eh     change       -0.3738876E-10 Eh
   *** GEOMETRY OPTIMIZATION CONVERGED AFTER 1 ITERATIONS ***

 final structure:
================
72
 xtb: 6.6.1 (8d0f1dd)
N           -1.36033360257337        1.65483907332894        2.22175954117019
C           -1.46412891909548        2.02300336546066        0.99254651200432
C           -2.29158464455918        1.42986313863923        0.01331013462541
C           -3.09875337096678        0.27163708418927        0.23562896031917
C           -3.99057273201534       -0.21797603970615       -0.74703422395865
C           -4.73939780506882       -1.35827763163559       -0.54805840856288
O           -5.62055264707580       -1.87878701835863       -1.43463698293659
C           -5.86442984091082       -1.19992481194760       -2.64151131200548
C           -4.61364894558165       -2.09058816423762        0.66537751898552
O           -5.36124665290882       -3.20645505868401        0.75473006908861
C           -5.28466050141836       -3.98911220161303        1.92351620376577
C           -3.75164012923091       -1.60458820651932        1.64345272516426
C           -3.01992188334262       -0.45535434455461        1.44013411677428
C           -2.20394931283639        2.02868328142326       -1.35872184921916
C           -1.30116500787853        1.16576645194136       -2.29475390872854
C            0.08735241195941        1.16360045921455       -1.80058707553634
N            0.63637092862050        0.20974700523557       -1.06727883804871
C            1.99209941265961        0.34246230541665       -0.59182156116633
C            2.99436004452411       -0.39746655312782       -1.49961301102669
C            4.39602581898556       -0.19053470132858       -0.99794868201892
C            5.05356090312051        1.00616476391193       -1.23334760053763
C            6.33516905265580        1.21946649467234       -0.75084298406627
C            6.98791120524371        0.23553936645993       -0.02268464994811
O            8.22964716204611        0.33175352073569        0.49082781206952
C            8.96620909994173        1.51472579676459        0.28602428761238
C            6.32390619293988       -0.99757061410740        0.21960602610136
O            7.03401871972878       -1.90191785888358        0.92447181315851
C            6.48045605455819       -3.17210478131119        1.17089189827099
C            5.03876084660174       -1.18460249767177       -0.26529422650534
C           -0.02221623797341       -1.05230234457795       -0.82473179087131
C           -5.48707818235798        3.44861829290071        1.31633149470977
C           -5.27104210562061        2.24195025652328        2.11637970367356
C           -4.42027389710160        4.38980548593134        0.96207859406827
H           -4.11578257517624        0.32039112999819       -1.67087624968839
H           -6.24141404674862       -0.18751812421895       -2.46536519889015
H           -6.62634052045850       -1.78241267299578       -3.15494883527717
H           -4.96637820754340       -1.15252556143209       -3.26613222570462
H           -5.61630431654423       -3.42883103667509        2.80205296404709
H           -5.95454342351956       -4.83006249954651        1.75785315520030
H           -4.26843387272773       -4.36068454453074        2.08967149496931
H           -3.64565017890499       -2.12825210561203        2.57965612174511
H           -2.35834099108374       -0.09293075085206        2.21026351121580
H           -3.18641656987190        2.11452797539149       -1.82130320794142
H           -1.77835453899932        3.03171156221003       -1.30449170831448
H           -1.71368123657151        0.16034037201603       -2.35230739060705
H           -1.32590706828304        1.62063683348902       -3.28692076510939
H           -0.88803916365465        2.88419194756632        0.62107201518049
H            0.67433757873424        2.05696757766210       -1.94748562037674
H            2.05145940893047       -0.05937176879675        0.42340136521633
H            2.26095425971088        1.40012191313693       -0.55443225357624
H            2.90025179717326       -0.00418892719167       -2.51441128305986
H            2.75617293299624       -1.46175469794390       -1.51999619621593
H            4.57325599528294        1.78285421561268       -1.80898796757832
H            6.82190128846254        2.15918009915793       -0.95378581331971
H            8.46862358979332        2.37957844783231        0.73549134211851
H            9.13517878699001        1.70257087348747       -0.77847070969777
H            9.92224477189424        1.35219427983694        0.77974830788581
H            7.24529114806603       -3.72300314589001        1.71469657441702
H            5.57771213544389       -3.10502814203628        1.78651879279263
H            6.25028345603978       -3.69741379478726        0.23870982559715
H            4.52748474224507       -2.11750968983419       -0.08665865280121
H           -0.21833528877797       -1.57697430409709       -1.76162360538816
H           -0.96717802245821       -0.89897312840620       -0.30154508327802
H            0.61552940782779       -1.67620387733100       -0.20482628037357
H           -6.49159805102971        3.67804373013470        0.99178732379512
H           -4.21602313535311        2.06020134171725        2.30346604352070
H           -5.70517201652932        1.36479929983290        1.62758966391576
H           -5.78884888951811        2.32525827690894        3.07783522172847
H           -3.44467127752739        4.01649846858536        1.26149895256027
H           -4.41891267236252        4.59262291467383       -0.11247260063679
H           -4.59174534372160        5.35879683845618        1.44225842019334
H           -0.73534573021000        2.20622688222245        2.79653508820440

          :  Hamiltonian                  GFN2-xTB          :
         :: total energy             -99.336543837773 Eh    ::
         :: gradient norm              0.003046834332 Eh/a0 ::
         :: HOMO-LUMO gap              0.467064411120 eV    ::
         :: SCC energy              -100.731335725000 Eh    ::
         :: -> dispersion             -0.071659679694 Eh    ::
         :: repulsion energy           1.393445009998 Eh    ::

    * Orbital Energies and Occupations

         #    Occupation            Energy/Eh            Energy/eV
      -------------------------------------------------------------
         1        2.0000           -0.8028134             -21.8457
       ...           ...                  ...                  ...
        78        1.9992           -0.5316062             -14.4657
        79        1.9990           -0.5286813             -14.3862
        80        1.9988           -0.5252745             -14.2934
        81        1.9987           -0.5234480             -14.2437
        82        1.9985           -0.5213030             -14.1854
        83        1.9974           -0.5131605             -13.9638
        84        1.9964           -0.5076885             -13.8149
        85        1.9864           -0.4866915             -13.2436
        86        1.9809           -0.4813394             -13.0979
        87        1.9321           -0.4608208             -12.5396
        88        1.8812           -0.4515559             -12.2875
        89        1.8594           -0.4486972             -12.2097
        90        1.2523           -0.4159785             -11.3194 (HOMO)
        91        0.7232           -0.3988142             -10.8523 (LUMO)
        92        0.3890           -0.3853106             -10.4848
        93        0.0052           -0.3135754              -8.5328
        94        0.0030           -0.3047907              -8.2938
        95        0.0027           -0.3029459              -8.2436
        96        0.0024           -0.3013693              -8.2007
        97        0.0001           -0.2483025              -6.7567
        98        0.0000           -0.1799111              -4.8956
        99        0.0000           -0.1670358              -4.5453
       100                         -0.1219589              -3.3187
       101                         -0.0578687              -1.5747
       ...                                ...                  ...
       171                          0.5912859              16.0897
      -------------------------------------------------------------
                  HL-Gap            0.0171643 Eh            0.4671 eV

     #   Z          covCN         q      C6AA      α(0)
     1   7 N        1.776    -0.339    29.609     8.058
     2   6 C        2.823     0.068    26.459     8.429
     3   6 C        2.955    -0.035    28.876     8.814
     4   6 C        2.965     0.006    27.880     8.661
     5   6 C        2.919    -0.089    30.236     9.017
     6   6 C        2.859     0.126    25.226     8.232
     7   8 O        1.706    -0.240    17.970     5.723
     8   6 C        3.644     0.031    20.387     6.490
     9   6 C        2.864     0.130    25.157     8.222
    10   8 O        1.706    -0.224    17.720     5.684
    11   6 C        3.646     0.026    20.461     6.500
    12   6 C        2.910    -0.070    29.740     8.942
    13   6 C        2.922    -0.058    29.432     8.897
    14   6 C        3.811    -0.061    21.657     6.624
    15   6 C        3.803    -0.066    21.759     6.641
    16   6 C        2.847     0.007    27.853     8.650
    17   7 N        2.729     0.027    20.778     6.770
    18   6 C        3.757    -0.019    20.967     6.528
    19   6 C        3.807    -0.070    21.835     6.652
    20   6 C        2.969    -0.000    28.035     8.685
    21   6 C        2.922    -0.050    29.239     8.867
    22   6 C        2.914    -0.068    29.695     8.936
    23   6 C        2.865     0.132    25.105     8.213
    24   8 O        1.706    -0.225    17.732     5.685
    25   6 C        3.646     0.026    20.468     6.502
    26   6 C        2.863     0.132    25.103     8.213
    27   8 O        1.706    -0.227    17.765     5.691
    28   6 C        3.645     0.028    20.444     6.499
    29   6 C        2.919    -0.079    29.977     8.978
    30   6 C        3.701    -0.075    22.092     6.721
    31   6 C        2.883    -0.015    28.386     8.735
    32   6 C        3.752    -0.114    22.741     6.800
    33   6 C        3.752    -0.110    22.671     6.790
    34   1 H        0.926     0.044     2.391     2.418
    35   1 H        0.924     0.047     2.362     2.404
    36   1 H        0.925     0.078     2.003     2.213
    37   1 H        0.924     0.044     2.397     2.421
    38   1 H        0.924     0.055     2.260     2.351
    39   1 H        0.925     0.080     1.981     2.201
    40   1 H        0.924     0.052     2.291     2.367
    41   1 H        0.926     0.053     2.285     2.364
    42   1 H        0.926     0.089     1.887     2.148
    43   1 H        0.925     0.055     2.253     2.347
    44   1 H        0.924     0.044     2.402     2.424
    45   1 H        0.925     0.064     2.158     2.297
    46   1 H        0.924     0.069     2.093     2.263
    47   1 H        0.923    -0.010     3.232     2.812
    48   1 H        0.926     0.067     2.113     2.273
    49   1 H        0.924     0.072     2.069     2.249
    50   1 H        0.924     0.069     2.093     2.263
    51   1 H        0.924     0.056     2.251     2.346
    52   1 H        0.924     0.054     2.269     2.356
    53   1 H        0.926     0.042     2.416     2.431
    54   1 H        0.926     0.056     2.241     2.341
    55   1 H        0.924     0.053     2.289     2.366
    56   1 H        0.924     0.054     2.269     2.356
    57   1 H        0.925     0.081     1.972     2.196
    58   1 H        0.925     0.080     1.975     2.198
    59   1 H        0.924     0.049     2.337     2.391
    60   1 H        0.924     0.051     2.303     2.373
    61   1 H        0.926     0.047     2.352     2.398
    62   1 H        0.924     0.075     2.027     2.226
    63   1 H        0.924     0.090     1.884     2.146
    64   1 H        0.925     0.080     1.981     2.201
    65   1 H        0.926     0.057     2.236     2.339
    66   1 H        0.925     0.073     2.050     2.239
    67   1 H        0.924     0.074     2.040     2.233
    68   1 H        0.924     0.089     1.890     2.150
    69   1 H        0.925     0.061     2.184     2.311
    70   1 H        0.924     0.073     2.056     2.242
    71   1 H        0.924     0.087     1.911     2.162
    72   1 H        0.860     0.138     1.485     1.909

Wiberg/Mayer (AO) data.
largest (>0.10) Wiberg bond orders for each atom

     #   Z sym  total        # sym  WBO       # sym  WBO       # sym  WBO
 ---------------------------------------------------------------------------
     1   7 N    2.746 --     2 C    1.655    72 H    0.951
     2   6 C    3.935 --     1 N    1.655     3 C    1.277    47 H    0.934
     3   6 C    3.655 --     2 C    1.277     4 C    1.229    14 C    1.029
     4   6 C    3.958 --    13 C    1.289     5 C    1.275     3 C    1.229
     5   6 C    3.906 --     6 C    1.443     4 C    1.275    34 H    0.956
     6   6 C    3.901 --     5 C    1.443     9 C    1.206     7 O    1.084
     7   8 O    2.241 --     6 C    1.084     8 C    0.982
     8   6 C    3.937 --     7 O    0.982    36 H    0.977    35 H    0.974
                            37 H    0.974
     9   6 C    3.825 --    12 C    1.351     6 C    1.206    10 O    1.109
    10   8 O    2.240 --     9 C    1.109    11 C    0.977
    11   6 C    3.931 --    39 H    0.977    10 O    0.977    40 H    0.973
                            38 H    0.973
    12   6 C    3.964 --    13 C    1.470     9 C    1.351    41 H    0.962
    13   6 C    3.855 --    12 C    1.470     4 C    1.289    42 H    0.941
    14   6 C    3.958 --     3 C    1.029    44 H    0.973    43 H    0.958
                            15 C    0.924
    15   6 C    3.970 --    16 C    1.069    45 H    0.966    46 H    0.956
                            14 C    0.924
    16   6 C    3.581 --    17 N    1.431    15 C    1.069    48 H    0.960
    17   7 N    3.491 --    16 C    1.431    30 C    0.996    18 C    0.989
    18   6 C    3.956 --    17 N    0.989    50 H    0.967    19 C    0.967
                            49 H    0.963
    19   6 C    3.976 --    20 C    1.008    52 H    0.973    51 H    0.969
                            18 C    0.967
    20   6 C    3.948 --    21 C    1.409    29 C    1.383    19 C    1.008
    21   6 C    3.953 --    22 C    1.418    20 C    1.409    53 H    0.968
    22   6 C    3.962 --    21 C    1.418    23 C    1.384    54 H    0.963
    23   6 C    3.898 --    22 C    1.384    26 C    1.224    24 O    1.106
    24   8 O    2.254 --    23 C    1.106    25 C    0.977
    25   6 C    3.930 --    24 O    0.977    57 H    0.977    55 H    0.973
                            56 H    0.973
    26   6 C    3.902 --    29 C    1.394    23 C    1.224    27 O    1.101
    27   8 O    2.254 --    26 C    1.101    28 C    0.979
    28   6 C    3.933 --    27 O    0.979    58 H    0.977    60 H    0.974
                            59 H    0.974
    29   6 C    3.961 --    26 C    1.394    20 C    1.383    61 H    0.962
    30   6 C    3.954 --    17 N    0.996    64 H    0.978    62 H    0.966
                            63 H    0.957
    31   6 C    3.251 --    32 C    1.119    33 C    1.112    65 H    0.971
    32   6 C    3.975 --    31 C    1.119    66 H    0.976    67 H    0.937
                            68 H    0.919
    33   6 C    3.979 --    31 C    1.112    69 H    0.978    70 H    0.941
                            71 H    0.924
    34   1 H    0.997 --     5 C    0.956
    35   1 H    0.995 --     8 C    0.974
    36   1 H    0.993 --     8 C    0.977
    37   1 H    0.995 --     8 C    0.974
    38   1 H    0.991 --    11 C    0.973
    39   1 H    0.993 --    11 C    0.977
    40   1 H    0.992 --    11 C    0.973
    41   1 H    0.995 --    12 C    0.962
    42   1 H    0.989 --    13 C    0.941
    43   1 H    0.987 --    14 C    0.958
    44   1 H    0.996 --    14 C    0.973
    45   1 H    0.994 --    15 C    0.966
    46   1 H    0.985 --    15 C    0.956
    47   1 H    0.976 --     2 C    0.934
    48   1 H    0.995 --    16 C    0.960
    49   1 H    0.990 --    18 C    0.963
    50   1 H    0.994 --    18 C    0.967
    51   1 H    0.995 --    19 C    0.969
    52   1 H    0.996 --    19 C    0.973
    53   1 H    0.998 --    21 C    0.968
    54   1 H    0.995 --    22 C    0.963
    55   1 H    0.992 --    25 C    0.973
    56   1 H    0.992 --    25 C    0.973
    57   1 H    0.993 --    25 C    0.977
    58   1 H    0.993 --    28 C    0.977
    59   1 H    0.993 --    28 C    0.974
    60   1 H    0.993 --    28 C    0.974
    61   1 H    0.997 --    29 C    0.962
    62   1 H    0.985 --    30 C    0.966
    63   1 H    0.984 --    30 C    0.957
    64   1 H    0.994 --    30 C    0.978
    65   1 H    0.996 --    31 C    0.971
    66   1 H    0.994 --    32 C    0.976
    67   1 H    0.960 --    32 C    0.937
    68   1 H    0.945 --    32 C    0.919
    69   1 H    0.996 --    33 C    0.978
    70   1 H    0.961 --    33 C    0.941
    71   1 H    0.948 --    33 C    0.924
    72   1 H    0.972 --     1 N    0.951
 ---------------------------------------------------------------------------

molecular dipole:
                 x           y           z       tot (Debye)
 q only:       -0.662       0.792      -0.626
   full:       -0.579       1.263      -0.883       4.185

           -------------------------------------------------
          | TOTAL ENERGY              -99.336543837773 Eh   |
          | GRADIENT NORM               0.003046834332 Eh/α |
          | HOMO-LUMO GAP               0.467064411120 eV   |
           -------------------------------------------------

 * finished run on 2024/04/06 at 11:11:55.395
