   * xtb version 6.6.1 (8d0f1dd) compiled by 'conda@1efc2f54142f' on 2023-08-01
          program call               : xtb struc.xyz --opt loose --input .xc1 --gfn2

   ID    Z sym.   atoms
    1    7 N      1, 17
    2    6 C      2-6, 8, 9, 11-16, 18-23, 25, 26, 28-33
    3    8 O      7, 10, 24, 27
    4    1 H      34-72
constraining bond 31 32 to    4.0000000 Å, actual value:    1.5261872 Å

          :  Hamiltonian                  GFN2-xTB          :
 * total energy  :   -98.3114299 Eh     change       -0.4035485E-08 Eh
 * total energy  :   -98.5388357 Eh     change       -0.2274058E+00 Eh
 * total energy  :   -98.7587797 Eh     change       -0.2199440E+00 Eh
 * total energy  :   -98.9834590 Eh     change       -0.2246792E+00 Eh
 * total energy  :   -99.1096289 Eh     change       -0.1261699E+00 Eh
 * total energy  :   -99.1559174 Eh     change       -0.4628855E-01 Eh
 * total energy  :   -99.1872248 Eh     change       -0.3130735E-01 Eh
 * total energy  :   -99.2088625 Eh     change       -0.2163773E-01 Eh
 * total energy  :   -99.2264951 Eh     change       -0.1763261E-01 Eh
 * total energy  :   -99.2384783 Eh     change       -0.1198316E-01 Eh
 * total energy  :   -99.2623656 Eh     change       -0.5520245E-04 Eh
 * total energy  :   -99.2624274 Eh     change       -0.6177856E-04 Eh
 * total energy  :   -99.2624937 Eh     change       -0.6630526E-04 Eh
 * total energy  :   -99.2625502 Eh     change       -0.5649379E-04 Eh
 * total energy  :   -99.2625933 Eh     change       -0.4312317E-04 Eh
 * total energy  :   -99.2626735 Eh     change       -0.8010593E-04 Eh
 * total energy  :   -99.2627248 Eh     change       -0.5131894E-04 Eh
 * total energy  :   -99.2627842 Eh     change       -0.5946803E-04 Eh
 * total energy  :   -99.2628299 Eh     change       -0.4569778E-04 Eh
   *** GEOMETRY OPTIMIZATION CONVERGED AFTER 44 ITERATIONS ***

 final structure:
================
72
 xtb: 6.6.1 (8d0f1dd)
N           -2.06944187854626        3.16470192686845        1.88740868119701
C           -1.88488357322733        2.37250146823928        0.93669758876809
C           -2.96220096955275        2.05142992916154       -0.08131573591594
C           -3.45711790025693        0.62700661658498        0.11210456595008
C           -4.39058502222163        0.11478348674413       -0.79124232650256
C           -4.89217520609974       -1.16836008249564       -0.65989280991049
O           -5.78821244464598       -1.74453209059927       -1.48836976174178
C           -6.31047337341820       -0.99732413380899       -2.56115430984899
C           -4.45526669448798       -1.97949897533700        0.42203010663228
O           -4.99428296519123       -3.21584360233761        0.47422679471530
C           -4.69266209688990       -4.04729437950433        1.56977911170763
C           -3.53913926268299       -1.45832907190513        1.31992914043446
C           -3.04337014235045       -0.16806367528058        1.16529242666695
C           -2.30570426742346        2.21483383958215       -1.48990313128534
C           -1.37663652063598        1.06065362923630       -1.89752213755039
C           -0.06909545728974        1.07517848615426       -1.20460984514976
N            0.54595127327439        0.01121394190444       -0.69304489059086
C            1.92233705907515        0.10214928044563       -0.26659269932444
C            2.89191341186060       -0.42484427284533       -1.34315363979361
C            4.31339303919586       -0.21056967651229       -0.90417581722581
C            4.94464262340969        1.00034816148209       -1.13598477498239
C            6.24624242923421        1.21631335094586       -0.71020741476064
C            6.94304459018258        0.22223176324437       -0.03943617646612
O            8.20679643428454        0.31895905838217        0.41701984619250
C            8.92315482891910        1.51343804912605        0.20544743013315
C            6.30379426303020       -1.02406076637079        0.20368334129692
O            7.05601725358138       -1.93513699981913        0.85472922542653
C            6.52466895718551       -3.21340441315248        1.10765103848346
C            5.00074565831725       -1.21541828377599       -0.22735983412462
C           -0.06724028002785       -1.29465352158712       -0.67818484872295
C           -4.11836867629804        2.98417417182618        0.04085633946112
C           -5.16247474048619        1.53391385506179        3.61249556199310
C           -3.97442797524410        4.44243281291694        0.01634093400840
H           -4.73563049938887        0.74437029889965       -1.59502735145166
H           -6.84800764683922       -0.11140630362423       -2.20993458422235
H           -7.00594499115042       -1.66265872006932       -3.06831485666223
H           -5.52498909444346       -0.69486208236043       -3.26134632164071
H           -4.97672249805486       -3.58078704299002        2.51776337524601
H           -5.28183377672067       -4.95014566123502        1.42193116118908
H           -3.63007273721275       -4.30979914526329        1.59598588634532
H           -3.20483750514712       -2.04604087858170        2.15947081708299
H           -2.34807837457705        0.21012009006455        1.89841955152740
H           -3.10516586059048        2.28585802321776       -2.22682360682045
H           -1.75202305683711        3.15426872150406       -1.51071641150736
H           -1.89392832735229        0.11222008911030       -1.76259268446595
H           -1.18215446191358        1.18131770795278       -2.97202406465625
H           -0.93628985483819        1.85296865313457        0.72223362331931
H            0.49415155208190        1.99616357767104       -1.21694637545107
H            2.05251284535350       -0.47304654062531        0.65378527303050
H            2.16592410416658        1.14525593060363       -0.05474540271199
H            2.70572148037555        0.11523786534058       -2.27347509559547
H            2.70607462357956       -1.48542684915463       -1.51609748241436
H            4.42795813900719        1.78649811916767       -1.66562061449685
H            6.71295489599030        2.16633028847879       -0.91237823940789
H            8.43940993088657        2.36342030002714        0.69650998124175
H            9.04170779714199        1.72614807839906       -0.86128120145194
H            9.90222489946240        1.34915475784545        0.65131499236442
H            7.31756328696708       -3.76483351711722        1.60924278351326
H            5.64984970362137       -3.16244319759011        1.76397514447051
H            6.25750146921114       -3.72832113723331        0.17955600468348
H            4.50903051471512       -2.15954940970111       -0.05218427943631
H           -0.16799372885911       -1.69850120453455       -1.68848939575634
H           -1.05761477113243       -1.24614525791807       -0.21971798196227
H            0.55066058280280       -1.97247404866094       -0.09457993541342
H           -5.06159807931039        2.56904848581672        0.35280638501621
H           -4.25623958936960        2.05608464306369        3.39122770401847
H           -5.25088422346094        0.49482857598368        3.38160704942399
H           -5.99064685994911        2.05772856414544        4.03753420267774
H           -3.70646862868554        4.79147191766405        1.02203158856312
H           -3.18181986005009        4.77236688877569       -0.65175868316574
H           -4.91241234715087        4.92224248491218       -0.25432500240107
H           -1.28431582994689        3.32854657486148        2.51070691083601

          :  Hamiltonian                  GFN2-xTB          :
         :: total energy             -99.262829948799 Eh    ::
         :: gradient norm              0.001352046465 Eh/a0 ::
         :: HOMO-LUMO gap              0.116160975919 eV    ::
         :: SCC energy              -100.647126855675 Eh    ::
         :: -> dispersion             -0.073020120052 Eh    ::
         :: repulsion energy           1.383051996262 Eh    ::

    * Orbital Energies and Occupations

         #    Occupation            Energy/Eh            Energy/eV
      -------------------------------------------------------------
         1        2.0000           -0.8053905             -21.9158
       ...           ...                  ...                  ...
        78        1.9993           -0.5352940             -14.5661
        79        1.9990           -0.5294709             -14.4076
        80        1.9989           -0.5274040             -14.3514
        81        1.9986           -0.5243569             -14.2685
        82        1.9986           -0.5235922             -14.2477
        83        1.9980           -0.5184836             -14.1087
        84        1.9975           -0.5150766             -14.0159
        85        1.9869           -0.4885955             -13.2954
        86        1.9817           -0.4832575             -13.1501
        87        1.9768           -0.4794304             -13.0460
        88        1.9105           -0.4575098             -12.4495
        89        1.8657           -0.4507154             -12.2646
        90        0.9632           -0.4078837             -11.0991 (HOMO)
        91        0.8301           -0.4036149             -10.9829 (LUMO)
        92        0.4592           -0.3898800             -10.6092
        93        0.0260           -0.3404615              -9.2644
        94        0.0050           -0.3141578              -8.5487
        95        0.0041           -0.3109379              -8.4611
        96        0.0032           -0.3069329              -8.3521
        97        0.0027           -0.3047148              -8.2917
        98        0.0000           -0.1878639              -5.1120
        99        0.0000           -0.1819960              -4.9524
       100                         -0.1302705              -3.5448
       101                         -0.0610677              -1.6617
       ...                                ...                  ...
       171                          0.5820389              15.8381
      -------------------------------------------------------------
                  HL-Gap            0.0042688 Eh            0.1162 eV

     #   Z          covCN         q      C6AA      α(0)
     1   7 N        1.774    -0.290    28.326     7.881
     2   6 C        2.825     0.098    25.824     8.327
     3   6 C        3.910     0.015    20.265     6.399
     4   6 C        2.978    -0.004    28.118     8.698
     5   6 C        2.921    -0.082    30.042     8.988
     6   6 C        2.863     0.129    25.168     8.223
     7   8 O        1.706    -0.232    17.851     5.704
     8   6 C        3.645     0.028    20.437     6.497
     9   6 C        2.864     0.127    25.204     8.229
    10   8 O        1.706    -0.232    17.854     5.705
    11   6 C        3.645     0.028    20.435     6.497
    12   6 C        2.915    -0.076    29.886     8.965
    13   6 C        2.920    -0.054    29.339     8.882
    14   6 C        3.810    -0.061    21.669     6.626
    15   6 C        3.802    -0.067    21.787     6.645
    16   6 C        2.843    -0.002    28.061     8.681
    17   7 N        2.729     0.007    21.131     6.827
    18   6 C        3.756    -0.016    20.913     6.520
    19   6 C        3.808    -0.070    21.834     6.652
    20   6 C        2.969    -0.002    28.061     8.689
    21   6 C        2.922    -0.050    29.242     8.868
    22   6 C        2.914    -0.068    29.701     8.937
    23   6 C        2.865     0.132    25.105     8.213
    24   8 O        1.706    -0.225    17.736     5.686
    25   6 C        3.645     0.026    20.469     6.502
    26   6 C        2.863     0.132    25.109     8.214
    27   8 O        1.706    -0.228    17.774     5.692
    28   6 C        3.645     0.028    20.438     6.498
    29   6 C        2.919    -0.080    29.994     8.981
    30   6 C        3.699    -0.069    21.994     6.707
    31   6 C        2.900    -0.031    28.782     8.796
    32   6 C        2.780    -0.144    31.667     9.217
    33   6 C        3.752    -0.114    22.736     6.800
    34   1 H        0.926     0.051     2.312     2.378
    35   1 H        0.924     0.052     2.298     2.370
    36   1 H        0.925     0.080     1.976     2.199
    37   1 H        0.924     0.046     2.372     2.408
    38   1 H        0.924     0.052     2.292     2.367
    39   1 H        0.925     0.080     1.981     2.201
    40   1 H        0.924     0.047     2.361     2.403
    41   1 H        0.926     0.051     2.313     2.378
    42   1 H        0.926     0.037     2.491     2.468
    43   1 H        0.925     0.060     2.200     2.319
    44   1 H        0.924     0.052     2.297     2.370
    45   1 H        0.925     0.067     2.121     2.277
    46   1 H        0.923     0.078     2.001     2.212
    47   1 H        0.923     0.010     2.895     2.661
    48   1 H        0.926     0.064     2.148     2.292
    49   1 H        0.924     0.066     2.131     2.283
    50   1 H        0.924     0.066     2.125     2.280
    51   1 H        0.924     0.054     2.275     2.359
    52   1 H        0.924     0.054     2.269     2.356
    53   1 H        0.926     0.042     2.417     2.431
    54   1 H        0.926     0.056     2.242     2.341
    55   1 H        0.924     0.052     2.291     2.367
    56   1 H        0.924     0.054     2.268     2.355
    57   1 H        0.925     0.081     1.971     2.196
    58   1 H        0.925     0.080     1.975     2.198
    59   1 H        0.924     0.047     2.352     2.398
    60   1 H        0.924     0.051     2.306     2.375
    61   1 H        0.926     0.046     2.368     2.406
    62   1 H        0.924     0.074     2.041     2.234
    63   1 H        0.924     0.078     1.996     2.210
    64   1 H        0.925     0.079     1.994     2.208
    65   1 H        0.926     0.056     2.243     2.342
    66   1 H        0.927     0.063     2.166     2.301
    67   1 H        0.927     0.054     2.264     2.353
    68   1 H        0.927     0.067     2.122     2.278
    69   1 H        0.924     0.109     1.708     2.044
    70   1 H        0.925     0.059     2.207     2.323
    71   1 H        0.925     0.070     2.080     2.256
    72   1 H        0.860     0.158     1.348     1.819

Wiberg/Mayer (AO) data.
largest (>0.10) Wiberg bond orders for each atom

     #   Z sym  total        # sym  WBO       # sym  WBO       # sym  WBO
 ---------------------------------------------------------------------------
     1   7 N    3.016 --     2 C    1.953    72 H    0.942
     2   6 C    3.892 --     1 N    1.953     3 C    0.958    47 H    0.914
     3   6 C    3.983 --    31 C    1.031     4 C    0.966     2 C    0.958
                            14 C    0.927
     4   6 C    3.957 --    13 C    1.428     5 C    1.365     3 C    0.966
     5   6 C    3.966 --     6 C    1.406     4 C    1.365    34 H    0.960
     6   6 C    3.914 --     5 C    1.406     9 C    1.225     7 O    1.097
     7   8 O    2.258 --     6 C    1.097     8 C    0.979
     8   6 C    3.934 --     7 O    0.979    36 H    0.977    37 H    0.974
                            35 H    0.974
     9   6 C    3.912 --    12 C    1.400     6 C    1.225    10 O    1.097
    10   8 O    2.255 --     9 C    1.097    11 C    0.978
    11   6 C    3.933 --    10 O    0.978    39 H    0.977    38 H    0.974
                            40 H    0.974
    12   6 C    3.967 --     9 C    1.400    13 C    1.395    41 H    0.964
    13   6 C    3.964 --     4 C    1.428    12 C    1.395    42 H    0.963
    14   6 C    3.943 --    15 C    0.985    44 H    0.972    43 H    0.972
                             3 C    0.927
    15   6 C    3.986 --    16 C    1.058    14 C    0.985    45 H    0.961
                            46 H    0.927
    16   6 C    3.545 --    17 N    1.385    15 C    1.058    48 H    0.958
    17   7 N    3.453 --    16 C    1.385    30 C    1.000    18 C    0.989
    18   6 C    3.956 --    17 N    0.989    50 H    0.968    19 C    0.966
                            49 H    0.965
    19   6 C    3.975 --    20 C    1.008    52 H    0.973    51 H    0.971
                            18 C    0.966
    20   6 C    3.949 --    21 C    1.412    29 C    1.379    19 C    1.008
    21   6 C    3.954 --    22 C    1.415    20 C    1.412    53 H    0.968
    22   6 C    3.963 --    21 C    1.415    23 C    1.386    54 H    0.963
    23   6 C    3.900 --    22 C    1.386    26 C    1.224    24 O    1.106
    24   8 O    2.255 --    23 C    1.106    25 C    0.977
    25   6 C    3.930 --    57 H    0.977    24 O    0.977    55 H    0.973
                            56 H    0.973
    26   6 C    3.903 --    29 C    1.397    23 C    1.224    27 O    1.100
    27   8 O    2.254 --    26 C    1.100    28 C    0.979
    28   6 C    3.934 --    27 O    0.979    58 H    0.977    59 H    0.974
                            60 H    0.974
    29   6 C    3.961 --    26 C    1.397    20 C    1.379    61 H    0.963
    30   6 C    3.959 --    17 N    1.000    64 H    0.978    62 H    0.966
                            63 H    0.962
    31   6 C    3.203 --    33 C    1.115     3 C    1.031    65 H    0.970
    32   6 C    2.983 --    67 H    0.995    68 H    0.993    66 H    0.993
    33   6 C    3.969 --    31 C    1.115    71 H    0.966    70 H    0.966
                            69 H    0.896
    34   1 H    0.996 --     5 C    0.960
    35   1 H    0.994 --     8 C    0.974
    36   1 H    0.993 --     8 C    0.977
    37   1 H    0.995 --     8 C    0.974
    38   1 H    0.994 --    11 C    0.974
    39   1 H    0.993 --    11 C    0.977
    40   1 H    0.995 --    11 C    0.974
    41   1 H    0.996 --    12 C    0.964
    42   1 H    0.998 --    13 C    0.963
    43   1 H    0.995 --    14 C    0.972
    44   1 H    0.996 --    14 C    0.972
    45   1 H    0.994 --    15 C    0.961
    46   1 H    0.966 --    15 C    0.927
    47   1 H    0.988 --     2 C    0.914
    48   1 H    0.995 --    16 C    0.958
    49   1 H    0.991 --    18 C    0.965
    50   1 H    0.994 --    18 C    0.968
    51   1 H    0.996 --    19 C    0.971
    52   1 H    0.996 --    19 C    0.973
    53   1 H    0.998 --    21 C    0.968
    54   1 H    0.995 --    22 C    0.963
    55   1 H    0.993 --    25 C    0.973
    56   1 H    0.992 --    25 C    0.973
    57   1 H    0.993 --    25 C    0.977
    58   1 H    0.993 --    28 C    0.977
    59   1 H    0.994 --    28 C    0.974
    60   1 H    0.994 --    28 C    0.974
    61   1 H    0.997 --    29 C    0.963
    62   1 H    0.984 --    30 C    0.966
    63   1 H    0.987 --    30 C    0.962
    64   1 H    0.993 --    30 C    0.978
    65   1 H    0.995 --    31 C    0.970
    66   1 H    0.996 --    32 C    0.993
    67   1 H    0.997 --    32 C    0.995
    68   1 H    0.995 --    32 C    0.993
    69   1 H    0.924 --    33 C    0.896
    70   1 H    0.984 --    33 C    0.966
    71   1 H    0.982 --    33 C    0.966
    72   1 H    0.971 --     1 N    0.942
 ---------------------------------------------------------------------------

molecular dipole:
                 x           y           z       tot (Debye)
 q only:       -0.044       0.658      -0.769
   full:        0.258       0.644      -0.834       2.757

           -------------------------------------------------
          | TOTAL ENERGY              -99.262829948799 Eh   |
          | GRADIENT NORM               0.001352046465 Eh/α |
          | HOMO-LUMO GAP               0.116160975919 eV   |
           -------------------------------------------------

 * finished run on 2024/04/06 at 11:14:46.819
