   * xtb version 6.6.1 (8d0f1dd) compiled by 'conda@1efc2f54142f' on 2023-08-01
          program call               : xtb struc.xyz --opt loose --input .xc1 --gfn2

   ID    Z sym.   atoms
    1    6 C      1, 3, 5-7, 10, 11, 14
    2    7 N      2, 4, 9, 13
    3    8 O      8, 12
    4    1 H      15-25
constraining bond 7 8 to    3.7600000 Å, actual value:    1.2054518 Å

          :  Hamiltonian                  GFN2-xTB          :
 * total energy  :   -30.6081739 Eh     change       -0.2401990E-09 Eh
 * total energy  :   -34.7627102 Eh     change       -0.4154536E+01 Eh
 * total energy  :   -38.2659566 Eh     change       -0.3503246E+01 Eh
 * total energy  :   -40.5138020 Eh     change       -0.2247845E+01 Eh
 * total energy  :   -41.5169870 Eh     change       -0.1003185E+01 Eh
 * total energy  :   -41.7148604 Eh     change       -0.1978735E+00 Eh
 * total energy  :   -41.7342054 Eh     change       -0.1934494E-01 Eh
 * total energy  :   -41.7508140 Eh     change       -0.1660867E-01 Eh
 * total energy  :   -41.8119954 Eh     change       -0.6118139E-01 Eh
 * total energy  :   -41.8435254 Eh     change       -0.3152998E-01 Eh
 * total energy  :   -42.1799313 Eh     change       -0.4180458E-02 Eh
 * total energy  :   -42.1808933 Eh     change       -0.9620917E-03 Eh
 * total energy  :   -42.1818686 Eh     change       -0.9752593E-03 Eh
 * total energy  :   -42.1821884 Eh     change       -0.3198445E-03 Eh
 * total energy  :   -42.1824134 Eh     change       -0.2249151E-03 Eh
 * total energy  :   -42.1825550 Eh     change       -0.1416561E-03 Eh
 * total energy  :   -42.1826814 Eh     change       -0.1263528E-03 Eh
 * total energy  :   -42.1827815 Eh     change       -0.1001112E-03 Eh
 * total energy  :   -42.1828167 Eh     change       -0.3520430E-04 Eh
   *** GEOMETRY OPTIMIZATION CONVERGED AFTER 78 ITERATIONS ***

 final structure:
================
25
 xtb: 6.6.1 (8d0f1dd)
C            2.94424316672881        1.38399978136921        0.12603065828837
N            2.09952777927366        0.21680854983580        0.16617572829000
C            2.48117329537197       -1.05555249743549       -0.04157817230814
N            1.38311216486970       -1.84880735014031       -0.14239094245516
C            0.28029463914241       -1.06261742221416       -0.01774844357616
C            0.72122148501453        0.25861751302772        0.16994455907021
C           -0.17738876546838        1.30868526002493        0.32567904216612
O            3.23918454501219        1.60880126861326       -1.21807227325757
N           -1.46818535080319        0.95279733577803        0.28897251281057
C           -2.47989187485913        1.97878811275347        0.45460668008409
C           -1.97486625285209       -0.33922577772767        0.10542932735770
O           -3.15703939331975       -0.56427415900937        0.09055487306866
N           -1.03119529182553       -1.37007668865703       -0.05970312333439
C           -1.50240716713999       -2.72382454581860       -0.27115167035077
H            2.37140562478379        2.21124831408592        0.57170218423385
H            3.85228218121114        1.19123123885817        0.71866333264210
H            3.79803457674343        2.38852237686908       -1.32501330693112
H            3.49372893678595       -1.39019376129513       -0.12665930594917
H           -1.98117723225719        2.93563704877776        0.58323502584206
H           -3.13120673083595        2.00590776641964       -0.42024644508118
H           -3.09890222723446        1.75439223203247        1.32481983553868
H           -1.17629769898140       -3.37360537591595        0.54194776253422
H           -1.13898802261067       -3.10789629916535       -1.22504864744222
H           -2.59162578794157       -2.69511679039504       -0.28883030974627
H            1.40539491529195       -2.84600758907121       -0.30014726359421

          :  Hamiltonian                  GFN2-xTB          :
         :: total energy             -42.182816685741 Eh    ::
         :: gradient norm              0.003188820387 Eh/a0 ::
         :: HOMO-LUMO gap              1.732816086813 eV    ::
         :: SCC energy               -42.685042989123 Eh    ::
         :: -> dispersion             -0.022187624350 Eh    ::
         :: repulsion energy           0.502129264894 Eh    ::

    * Orbital Energies and Occupations

         #    Occupation            Energy/Eh            Energy/eV
      -------------------------------------------------------------
         1        2.0000           -0.8926702             -24.2908
       ...           ...                  ...                  ...
        25        1.9994           -0.6643697             -18.0784
        26        1.9989           -0.6478627             -17.6292
        27        1.9988           -0.6461149             -17.5817
        28        1.9984           -0.6399624             -17.4143
        29        1.9975           -0.6289409             -17.1144
        30        1.9964           -0.6208972             -16.8955
        31        1.9958           -0.6170472             -16.7907
        32        1.9919           -0.6012459             -16.3607
        33        1.9805           -0.5803919             -15.7933
        34        1.9799           -0.5797131             -15.7748
        35        1.9690           -0.5692548             -15.4902
        36        1.9277           -0.5486141             -14.9285
        37        1.6076           -0.5041354             -13.7182 (HOMO)
        38        0.4382           -0.4404556             -11.9854 (LUMO)
        39        0.0931           -0.3989340             -10.8555
        40        0.0279           -0.3695195             -10.0551
        41        0.0007           -0.2804996              -7.6328
        42        0.0000           -0.1941792              -5.2839
        43        0.0000           -0.1862237              -5.0674
        44        0.0000           -0.1322201              -3.5979
        45        0.0000           -0.1133265              -3.0838
        46        0.0000           -0.0741973              -2.0190
        47                         -0.0656709              -1.7870
        48                         -0.0411279              -1.1191
       ...                                ...                  ...
        67                          0.5283145              14.3762
      -------------------------------------------------------------
                  HL-Gap            0.0636798 Eh            1.7328 eV

     #   Z          covCN         q      C6AA      α(0)
     1   6 C        3.614     0.124    19.016     6.293
     2   7 N        2.823     0.034    20.647     6.749
     3   6 C        3.026     0.052    26.807     8.493
     4   7 N        2.774    -0.059    22.386     7.027
     5   6 C        3.037     0.107    25.611     8.301
     6   6 C        3.094     0.032    27.169     8.543
     7   6 C        1.926    -0.103    33.933     9.407
     8   8 O        1.658    -0.407    20.981     6.183
     9   7 N        2.756     0.008    21.111     6.824
    10   6 C        3.714    -0.068    21.932     6.691
    11   6 C        2.730     0.306    21.810     7.646
    12   8 O        0.859    -0.359    20.868     6.125
    13   7 N        2.737    -0.045    22.114     6.984
    14   6 C        3.696    -0.069    22.004     6.710
    15   1 H        0.923     0.092     1.863     2.135
    16   1 H        0.923     0.073     2.053     2.241
    17   1 H        0.805     0.332     0.631     1.248
    18   1 H        0.927     0.119     1.624     1.993
    19   1 H        0.925     0.106     1.729     2.056
    20   1 H        0.924     0.105     1.742     2.064
    21   1 H        0.924     0.104     1.750     2.069
    22   1 H        0.924     0.084     1.939     2.177
    23   1 H        0.924     0.084     1.940     2.178
    24   1 H        0.925     0.125     1.572     1.961
    25   1 H        0.860     0.223     0.995     1.563

Wiberg/Mayer (AO) data.
largest (>0.10) Wiberg bond orders for each atom

     #   Z sym  total        # sym  WBO       # sym  WBO       # sym  WBO
 ---------------------------------------------------------------------------
     1   6 C    3.921 --     8 O    1.014     2 N    0.974    16 H    0.952
                            15 H    0.950
     2   7 N    3.557 --     3 C    1.312     6 C    1.121     1 C    0.974
     3   6 C    3.680 --     2 N    1.312     4 N    1.251    18 H    0.955
     4   7 N    3.547 --     3 C    1.251     5 C    1.195    25 H    0.920
     5   6 C    3.826 --     6 C    1.251    13 N    1.209     4 N    1.195
     6   6 C    3.856 --     7 C    1.276     5 C    1.251     2 N    1.121
     7   6 C    2.742 --     9 N    1.314     6 C    1.276
     8   8 O    1.953 --     1 C    1.014    17 H    0.871
     9   7 N    3.556 --     7 C    1.314    11 C    1.074    10 C    0.981
                            12 O    0.110
    10   6 C    3.904 --     9 N    0.981    19 H    0.971    20 H    0.955
                            21 H    0.955
    11   6 C    3.905 --    12 O    1.683     9 N    1.074    13 N    1.054
    12   8 O    1.993 --    11 C    1.683    13 N    0.121     9 N    0.110
    13   7 N    3.508 --     5 C    1.209    11 C    1.054    14 C    0.977
                            12 O    0.121
    14   6 C    3.917 --    13 N    0.977    23 H    0.967    22 H    0.967
                            24 H    0.963
    15   1 H    0.984 --     1 C    0.950
    16   1 H    0.985 --     1 C    0.952
    17   1 H    0.888 --     8 O    0.871
    18   1 H    0.985 --     3 C    0.955
    19   1 H    0.984 --    10 C    0.971
    20   1 H    0.975 --    10 C    0.955
    21   1 H    0.975 --    10 C    0.955
    22   1 H    0.985 --    14 C    0.967
    23   1 H    0.986 --    14 C    0.967
    24   1 H    0.982 --    14 C    0.963
    25   1 H    0.948 --     4 N    0.920
 ---------------------------------------------------------------------------

molecular dipole:
                 x           y           z       tot (Debye)
 q only:        2.233      -0.625       0.247
   full:        2.616      -1.113       0.260       7.255

           -------------------------------------------------
          | TOTAL ENERGY              -42.182816685741 Eh   |
          | GRADIENT NORM               0.003188820387 Eh/α |
          | HOMO-LUMO GAP               1.732816086813 eV   |
           -------------------------------------------------

 * finished run on 2024/06/05 at 19:58:50.555
