   * xtb version 6.6.1 (8d0f1dd) compiled by 'conda@1efc2f54142f' on 2023-08-01
          program call               : xtb xtbopt.xyz --opt crude --input .xc2 --gfn2

   ID    Z sym.   atoms
    1    6 C      1, 3, 5-7, 10, 11, 14
    2    7 N      2, 4, 9, 13
    3    8 O      8, 12
    4    1 H      15-25

          :  Hamiltonian                  GFN2-xTB          :
 * total energy  :   -42.1810930 Eh     change       -0.2067679E-11 Eh
   *** GEOMETRY OPTIMIZATION CONVERGED AFTER 1 ITERATIONS ***

 final structure:
================
25
 xtb: 6.6.1 (8d0f1dd)
C            3.20201349123060        1.07245129481444        0.02779777068354
N            2.17938274180316        0.06898495456133        0.10288145869801
C            2.35231673038420       -1.27027414101007        0.18880739984821
N            1.21307405852216       -1.92573929060735        0.25077905829454
C            0.24653147778221       -0.98770260669742        0.20077182879988
C            0.82801120152317        0.27987938475153        0.10568612971235
C            0.05296576144398        1.48747846993939        0.01147097957233
O            0.48529915748012        2.61741282232178       -0.06465124569638
N           -1.32652413126831        1.21618439874166        0.00914057173417
C           -2.22725550681216        2.35174738198582       -0.10030527133114
C           -1.94584425621668       -0.00760225710431        0.10025312495884
O           -3.14086615360293       -0.13481091669257        0.08543521060882
N           -1.10991698978903       -1.17537305061285        0.23612617191637
C           -1.68546335411202       -2.36153328585510        0.39161828163351
H            3.78854248029315        1.08589736779543        0.94924155794255
H            3.87426046208419        0.86537413591561       -0.80679959562275
H            2.73657227442218        2.04839678885854       -0.11235714919098
H            3.31410698228777       -1.74474734930930        0.20399461074247
H           -1.62808866471130        3.26120259258064       -0.12228236045470
H           -2.82237204780698        2.27212567643152       -1.01162350190913
H           -2.91080025921807        2.36989047888097        0.75037301727142
H           -1.06130896125113       -3.22873108906083        0.50653777700737
H            0.57724131242222       -4.23455155304349       -1.38383819527085
H           -2.76131835308626       -2.40541031957574        0.40212883842588
H            0.92987206029978       -3.70231134641527       -0.89001485047418

          :  Hamiltonian                  GFN2-xTB          :
         :: total energy             -42.181093040203 Eh    ::
         :: gradient norm              0.003326195065 Eh/a0 ::
         :: HOMO-LUMO gap              2.042894453030 eV    ::
         :: SCC energy               -42.715635711892 Eh    ::
         :: -> dispersion             -0.022663225981 Eh    ::
         :: repulsion energy           0.534432815426 Eh    ::

    * Orbital Energies and Occupations

         #    Occupation            Energy/Eh            Energy/eV
      -------------------------------------------------------------
         1        2.0000           -0.9042618             -24.6062
       ...           ...                  ...                  ...
        25        1.9970           -0.6703791             -18.2419
        26        1.9952           -0.6591792             -17.9372
        27        1.9930           -0.6504241             -17.6989
        28        1.9924           -0.6484069             -17.6441
        29        1.9903           -0.6426518             -17.4874
        30        1.9783           -0.6232817             -16.9604
        31        1.9675           -0.6135652             -16.6960
        32        1.9601           -0.6086501             -16.5622
        33        1.9458           -0.6011774             -16.3589
        34        1.9095           -0.5885499             -16.0153
        35        1.9022           -0.5866258             -15.9629
        36        1.8804           -0.5815812             -15.8256
        37        1.8220           -0.5713881             -15.5483 (HOMO)
        38        0.6053           -0.4963131             -13.5054 (LUMO)
        39        0.0507           -0.4294795             -11.6867
        40        0.0124           -0.3956141             -10.7652
        41        0.0054           -0.3756061             -10.2208
        42        0.0002           -0.2979928              -8.1088
        43        0.0000           -0.2146668              -5.8414
        44        0.0000           -0.1675196              -4.5584
        45        0.0000           -0.1454845              -3.9588
        46                         -0.0816807              -2.2226
        47                         -0.0550388              -1.4977
        48                         -0.0487786              -1.3273
       ...                                ...                  ...
        67                          0.5284135              14.3789
      -------------------------------------------------------------
                  HL-Gap            0.0750750 Eh            2.0429 eV

     #   Z          covCN         q      C6AA      α(0)
     1   6 C        3.689    -0.082    22.262     6.753
     2   7 N        2.833     0.049    20.390     6.707
     3   6 C        3.172     0.093    25.574     8.260
     4   7 N        1.902    -0.190    25.929     7.549
     5   6 C        3.164     0.112    25.222     8.208
     6   6 C        3.111    -0.005    28.000     8.669
     7   6 C        2.763     0.268    22.482     7.765
     8   8 O        0.858    -0.329    20.315     6.043
     9   7 N        2.744    -0.064    22.474     7.041
    10   6 C        3.710    -0.064    21.861     6.682
    11   6 C        2.733     0.310    21.738     7.633
    12   8 O        0.859    -0.319    20.118     6.014
    13   7 N        2.736     0.033    20.662     6.751
    14   6 C        2.804    -0.021    28.505     8.747
    15   1 H        0.924     0.112     1.677     2.025
    16   1 H        0.924     0.110     1.693     2.035
    17   1 H        0.924     0.129     1.543     1.943
    18   1 H        0.926     0.113     1.670     2.021
    19   1 H        0.925     0.130     1.538     1.939
    20   1 H        0.924     0.117     1.640     2.003
    21   1 H        0.924     0.117     1.635     2.000
    22   1 H        0.926     0.138     1.478     1.901
    23   1 H        0.703     0.048     2.499     2.511
    24   1 H        0.926     0.149     1.395     1.847
    25   1 H        0.703     0.044     2.553     2.538

Wiberg/Mayer (AO) data.
largest (>0.10) Wiberg bond orders for each atom

     #   Z sym  total        # sym  WBO       # sym  WBO       # sym  WBO
 ---------------------------------------------------------------------------
     1   6 C    3.890 --     2 N    0.996    17 H    0.954    16 H    0.950
                            15 H    0.946
     2   7 N    3.623 --     3 C    1.279     6 C    1.195     1 C    0.996
     3   6 C    3.865 --     4 N    1.464     2 N    1.279    18 H    0.952
     4   7 N    2.966 --     3 C    1.464     5 C    1.280
     5   6 C    3.869 --     6 C    1.295     4 N    1.280    13 N    1.104
     6   6 C    3.824 --     5 C    1.295     2 N    1.195     7 C    1.083
     7   6 C    3.895 --     8 O    1.663     6 C    1.083     9 N    1.066
     8   8 O    1.932 --     7 C    1.663     9 N    0.113
     9   7 N    3.502 --    11 C    1.152     7 C    1.066    10 C    0.975
                            12 O    0.132     8 O    0.113
    10   6 C    3.856 --     9 N    0.975    19 H    0.951    21 H    0.944
                            20 H    0.942
    11   6 C    3.901 --    12 O    1.702     9 N    1.152    13 N    0.963
    12   8 O    1.984 --    11 C    1.702     9 N    0.132
    13   7 N    3.619 --    14 C    1.384     5 C    1.104    11 C    0.963
    14   6 C    3.400 --    13 N    1.384    22 H    0.954    24 H    0.951
    15   1 H    0.970 --     1 C    0.946
    16   1 H    0.972 --     1 C    0.950
    17   1 H    0.973 --     1 C    0.954
    18   1 H    0.983 --     3 C    0.952
    19   1 H    0.970 --    10 C    0.951
    20   1 H    0.960 --    10 C    0.942
    21   1 H    0.961 --    10 C    0.944
    22   1 H    0.977 --    14 C    0.954
    23   1 H    0.892 --    25 H    0.880
    24   1 H    0.973 --    14 C    0.951
    25   1 H    0.915 --    23 H    0.880
 ---------------------------------------------------------------------------

molecular dipole:
                 x           y           z       tot (Debye)
 q only:        1.022      -0.964       0.062
   full:        1.236      -0.927       0.063       3.930

           -------------------------------------------------
          | TOTAL ENERGY              -42.181093040203 Eh   |
          | GRADIENT NORM               0.003326195065 Eh/α |
          | HOMO-LUMO GAP               2.042894453030 eV   |
           -------------------------------------------------

 * finished run on 2024/06/05 at 19:58:54.999
