   * xtb version 6.6.1 (8d0f1dd) compiled by 'conda@1efc2f54142f' on 2023-08-01
          program call               : xtb struc.xyz --opt loose --input .xc1 --gfn2

   ID    Z sym.   atoms
    1    7 N      1, 17
    2    6 C      2-6, 8, 9, 11-16, 18-23, 25, 26, 28-33
    3    8 O      7, 10, 24, 27
    4    1 H      34-72
constraining bond 24 56 to    3.9000000 Å, actual value:    2.0766854 Å

          :  Hamiltonian                  GFN2-xTB          :
 * total energy  :   -98.8105351 Eh     change       -0.4035485E-08 Eh
 * total energy  :   -99.0151102 Eh     change       -0.2045751E+00 Eh
 * total energy  :   -99.1260940 Eh     change       -0.1109838E+00 Eh
 * total energy  :   -99.1726356 Eh     change       -0.4654156E-01 Eh
 * total energy  :   -99.1939194 Eh     change       -0.2128379E-01 Eh
 * total energy  :   -99.2037494 Eh     change       -0.9830038E-02 Eh
 * total energy  :   -99.2103600 Eh     change       -0.6610622E-02 Eh
 * total energy  :   -99.2195534 Eh     change       -0.9193413E-02 Eh
 * total energy  :   -99.2323668 Eh     change       -0.1281334E-01 Eh
 * total energy  :   -99.2451637 Eh     change       -0.1279689E-01 Eh
 * total energy  :   -99.2744759 Eh     change       -0.2934750E-03 Eh
 * total energy  :   -99.2746440 Eh     change       -0.1681333E-03 Eh
 * total energy  :   -99.2747715 Eh     change       -0.1275227E-03 Eh
 * total energy  :   -99.2748692 Eh     change       -0.9762972E-04 Eh
 * total energy  :   -99.2749383 Eh     change       -0.6909719E-04 Eh
 * total energy  :   -99.2749884 Eh     change       -0.5010900E-04 Eh
 * total energy  :   -99.2750683 Eh     change       -0.7987957E-04 Eh
 * total energy  :   -99.2751876 Eh     change       -0.1193794E-03 Eh
 * total energy  :   -99.2752312 Eh     change       -0.4353522E-04 Eh
   *** GEOMETRY OPTIMIZATION CONVERGED AFTER 46 ITERATIONS ***

 final structure:
================
72
 xtb: 6.6.1 (8d0f1dd)
N           -1.89898242698733        2.90277811283525        2.20883036213710
C           -1.84346610304076        2.17360619700631        1.19696024244180
C           -2.98255216676743        1.94150558188742        0.24311328533405
C           -3.43125790497649        0.49082801652758        0.33033968373420
C           -4.33200900078962       -0.01482528615521       -0.60938252923411
C           -4.79325569005253       -1.31888781374137       -0.54124694194337
O           -5.66870761277759       -1.88225204807751       -1.39920661069720
C           -6.26190432266288       -1.08892686394401       -2.40016915565620
C           -4.33602659044945       -2.16962225757243        0.50143966075975
O           -4.83702463823722       -3.42119922313314        0.49030197301538
C           -4.51482707945558       -4.29754108733207        1.54489905092727
C           -3.44023467634328       -1.66244842012083        1.42883513584080
C           -2.99649254156078       -0.34856981103619        1.34422314091966
C           -2.41752284631171        2.24364945548233       -1.16966107321962
C           -1.46639609974652        1.16570127353741       -1.72028211846337
C           -0.14357658268124        1.14339609897846       -1.05686588104581
N            0.50810432769966        0.04843045363297       -0.67860865895001
C            1.88275007295071        0.12599847910266       -0.24463424698241
C            2.86032513435671       -0.27974561298358       -1.36576125154087
C            4.27675601166873       -0.15064563221076       -0.88300133204936
C            4.96510043148946        1.04736674069138       -1.03289910874401
C            6.25902502852394        1.18328823471551       -0.57102503884964
C            6.89150799119415        0.11352440077363        0.06079663494466
O            8.15351081698813        0.12541127267469        0.55960055810269
C            8.99987251358765        1.10649941398361        0.42277089313597
C            6.19856282279489       -1.11744423561233        0.22494689450517
O            6.89383724711295       -2.09536588624546        0.83466119179754
C            6.30948513079896       -3.36983435940152        0.98229750825042
C            4.89881995068544       -1.22275480228537       -0.24864988063894
C           -0.09229246535651       -1.26228625620932       -0.75469837090743
C           -4.21719280860042        2.84867046473004        0.52546342935844
C           -4.84860090337438        2.52733338022419        1.87806329251207
C           -3.89831015812874        4.33895147859516        0.44632197522456
H           -4.69076852266893        0.62766789979959       -1.39624693064224
H           -6.80463367077567       -0.24140361263245       -1.97079674862983
H           -6.96431985483228       -1.74336974228306       -2.91261362509282
H           -5.52012597350717       -0.72446742737215       -3.11836868687996
H           -4.81962544655512       -3.88866511241140        2.51281578744272
H           -5.07306579526034       -5.21040568422958        1.34686113734056
H           -3.44428875839245       -4.52581183988286        1.56522259435497
H           -3.08896665066508       -2.27945496184872        2.23989023548521
H           -2.32521031453448        0.01963376625914        2.10456291818384
H           -3.24989352819931        2.34539045537792       -1.86508073666976
H           -1.89399908703458        3.19988615097813       -1.14087818373960
H           -1.95394633522558        0.19333272435072       -1.67881422620145
H           -1.29573383435697        1.40920053275412       -2.77736804505757
H           -0.92542622463306        1.65054741785042        0.86314291888402
H            0.40534512493217        2.07228167358791       -1.00862470231406
H            2.02444398187669       -0.53285320700698        0.61638216504622
H            2.10794549668493        1.14809735174752        0.06710285036201
H            2.69951646526614        0.37371585232815       -2.22479181684382
H            2.65903421126346       -1.30765424769077       -1.67041996155341
H            4.49504210201170        1.88374254665741       -1.52629915394983
H            6.77388675607367        2.13347991920889       -0.71607585072586
H            8.78167706023038        2.01970995780052       -0.11859629067430
H            7.74972310249973        3.64101288297841       -1.05933513625521
H            9.95405742088232        0.93915272181744        0.89361110318102
H            7.06965225652121       -3.98569377285441        1.45835189386031
H            5.42245963641843       -3.33179057373883        1.62205604375025
H            6.04687570212961       -3.80403216464028        0.01292501920563
H            4.36183049836631       -2.15202858782449       -0.14135882764285
H           -0.25192450160085       -1.56540089210365       -1.79178456171892
H           -1.05319026162712       -1.27209972970633       -0.23393178327350
H            0.56494796711876       -1.98619682020808       -0.27986349339861
H           -4.95435963204193        2.61846037440787       -0.25236392842961
H           -4.15281092711680        2.75877456175794        2.67804527650998
H           -5.12671771505381        1.47824611790829        1.94341969068144
H           -5.74426659757674        3.12774460120187        2.01360914066127
H           -3.13964140394605        4.60216830235358        1.17702223709672
H           -3.56013653039394        4.63062867618938       -0.54461605386199
H           -4.79697480061210        4.90740891749932        0.67125453480826
H           -1.05692068020117        3.01059503479570        2.76544532529033

          :  Hamiltonian                  GFN2-xTB          :
         :: total energy             -99.275231168703 Eh    ::
         :: gradient norm              0.003651718790 Eh/a0 ::
         :: HOMO-LUMO gap              0.510560614521 eV    ::
         :: SCC energy              -100.646743908650 Eh    ::
         :: -> dispersion             -0.075925925042 Eh    ::
         :: repulsion energy           1.370254919789 Eh    ::

    * Orbital Energies and Occupations

         #    Occupation            Energy/Eh            Energy/eV
      -------------------------------------------------------------
         1        2.0000           -0.8471949             -23.0533
       ...           ...                  ...                  ...
        78        1.9984           -0.5304122             -14.4333
        79        1.9983           -0.5292260             -14.4010
        80        1.9981           -0.5282761             -14.3751
        81        1.9974           -0.5231547             -14.2358
        82        1.9958           -0.5154186             -14.0253
        83        1.9951           -0.5128666             -13.9558
        84        1.9941           -0.5100330             -13.8787
        85        1.9939           -0.5093942             -13.8613
        86        1.9810           -0.4912638             -13.3680
        87        1.9723           -0.4852735             -13.2050
        88        1.9373           -0.4720302             -12.8446
        89        1.8722           -0.4602175             -12.5232
        90        1.2114           -0.4245074             -11.5514 (HOMO)
        91        0.6392           -0.4057447             -11.0409 (LUMO)
        92        0.3927           -0.3953959             -10.7593
        93        0.0144           -0.3396812              -9.2432
        94        0.0049           -0.3224813              -8.7752
        95        0.0040           -0.3191456              -8.6844
        96        0.0035           -0.3173746              -8.6362
        97        0.0029           -0.3142897              -8.5523
        98        0.0000           -0.1994674              -5.4278
        99        0.0000           -0.1916921              -5.2162
       100                         -0.1392348              -3.7888
       101                         -0.0719504              -1.9579
       ...                                ...                  ...
       171                          0.5715425              15.5525
      -------------------------------------------------------------
                  HL-Gap            0.0187628 Eh            0.5106 eV

     #   Z          covCN         q      C6AA      α(0)
     1   7 N        1.774    -0.267    27.756     7.802
     2   6 C        2.827     0.101    25.749     8.315
     3   6 C        3.907     0.006    20.413     6.422
     4   6 C        2.974     0.002    27.978     8.676
     5   6 C        2.920    -0.080    30.005     8.983
     6   6 C        2.862     0.129    25.165     8.223
     7   8 O        1.706    -0.230    17.815     5.699
     8   6 C        3.644     0.028    20.449     6.500
     9   6 C        2.864     0.128    25.186     8.226
    10   8 O        1.706    -0.229    17.795     5.695
    11   6 C        3.645     0.027    20.454     6.500
    12   6 C        2.914    -0.075    29.864     8.961
    13   6 C        2.921    -0.053    29.325     8.880
    14   6 C        3.812    -0.065    21.734     6.636
    15   6 C        3.802    -0.069    21.824     6.651
    16   6 C        2.843     0.006    27.869     8.652
    17   7 N        2.729     0.009    21.098     6.822
    18   6 C        3.755    -0.016    20.920     6.522
    19   6 C        3.808    -0.072    21.868     6.657
    20   6 C        2.969     0.007    27.853     8.657
    21   6 C        2.922    -0.046    29.135     8.852
    22   6 C        2.910    -0.054    29.347     8.883
    23   6 C        2.872     0.104    25.686     8.308
    24   8 O        1.710    -0.092    15.718     5.353
    25   6 C        2.734     0.038    27.126     8.527
    26   6 C        2.860     0.140    24.953     8.188
    27   8 O        1.706    -0.229    17.790     5.695
    28   6 C        3.645     0.025    20.485     6.505
    29   6 C        2.919    -0.080    29.991     8.981
    30   6 C        3.699    -0.070    22.014     6.710
    31   6 C        3.853    -0.007    20.671     6.467
    32   6 C        3.756    -0.119    22.828     6.812
    33   6 C        3.755    -0.119    22.832     6.813
    34   1 H        0.926     0.052     2.295     2.369
    35   1 H        0.924     0.054     2.271     2.357
    36   1 H        0.925     0.081     1.966     2.193
    37   1 H        0.924     0.047     2.355     2.400
    38   1 H        0.924     0.055     2.258     2.350
    39   1 H        0.925     0.081     1.967     2.193
    40   1 H        0.924     0.048     2.348     2.396
    41   1 H        0.926     0.052     2.298     2.371
    42   1 H        0.926     0.039     2.468     2.456
    43   1 H        0.925     0.061     2.191     2.315
    44   1 H        0.924     0.054     2.266     2.354
    45   1 H        0.925     0.066     2.127     2.281
    46   1 H        0.923     0.080     1.977     2.199
    47   1 H        0.922     0.006     2.949     2.686
    48   1 H        0.926     0.070     2.085     2.258
    49   1 H        0.924     0.067     2.116     2.275
    50   1 H        0.924     0.069     2.101     2.267
    51   1 H        0.924     0.059     2.206     2.323
    52   1 H        0.924     0.058     2.219     2.330
    53   1 H        0.926     0.056     2.242     2.342
    54   1 H        0.924     0.092     1.864     2.135
    55   1 H        0.925     0.095     1.831     2.116
    56   1 H        0.000    -0.204    27.705     9.624
    57   1 H        0.926     0.103     1.756     2.072
    58   1 H        0.925     0.084     1.940     2.178
    59   1 H        0.924     0.051     2.310     2.377
    60   1 H        0.924     0.054     2.266     2.354
    61   1 H        0.926     0.052     2.296     2.370
    62   1 H        0.924     0.076     2.018     2.222
    63   1 H        0.924     0.080     1.983     2.202
    64   1 H        0.925     0.079     1.991     2.206
    65   1 H        0.924     0.037     2.484     2.465
    66   1 H        0.925     0.069     2.098     2.265
    67   1 H        0.925     0.035     2.513     2.479
    68   1 H        0.925     0.051     2.302     2.373
    69   1 H        0.925     0.061     2.187     2.313
    70   1 H        0.925     0.035     2.516     2.481
    71   1 H        0.925     0.055     2.260     2.351
    72   1 H        0.860     0.157     1.352     1.822

Wiberg/Mayer (AO) data.
largest (>0.10) Wiberg bond orders for each atom

     #   Z sym  total        # sym  WBO       # sym  WBO       # sym  WBO
 ---------------------------------------------------------------------------
     1   7 N    3.042 --     2 C    1.957    72 H    0.941
     2   6 C    3.928 --     1 N    1.957     3 C    0.994    47 H    0.898
     3   6 C    3.976 --     2 C    0.994     4 C    0.970    14 C    0.957
                            31 C    0.942
     4   6 C    3.949 --    13 C    1.414     5 C    1.368     3 C    0.970
     5   6 C    3.962 --     6 C    1.401     4 C    1.368    34 H    0.958
     6   6 C    3.906 --     5 C    1.401     9 C    1.222     7 O    1.099
     7   8 O    2.254 --     6 C    1.099     8 C    0.978
     8   6 C    3.932 --     7 O    0.978    36 H    0.977    35 H    0.974
                            37 H    0.973
     9   6 C    3.902 --    12 C    1.392     6 C    1.222    10 O    1.101
    10   8 O    2.252 --     9 C    1.101    11 C    0.978
    11   6 C    3.931 --    10 O    0.978    39 H    0.977    40 H    0.974
                            38 H    0.973
    12   6 C    3.963 --    13 C    1.403     9 C    1.392    41 H    0.964
    13   6 C    3.954 --     4 C    1.414    12 C    1.403    42 H    0.963
    14   6 C    3.972 --    15 C    0.981    44 H    0.972    43 H    0.968
                             3 C    0.957
    15   6 C    3.986 --    16 C    1.060    14 C    0.981    45 H    0.961
                            46 H    0.927
    16   6 C    3.586 --    17 N    1.394    15 C    1.060    48 H    0.957
    17   7 N    3.474 --    16 C    1.394    30 C    0.998    18 C    0.990
    18   6 C    3.956 --    17 N    0.990    50 H    0.968    19 C    0.966
                            49 H    0.964
    19   6 C    3.976 --    20 C    1.010    51 H    0.971    52 H    0.971
                            18 C    0.966
    20   6 C    3.915 --    21 C    1.388    29 C    1.388    19 C    1.010
    21   6 C    3.969 --    22 C    1.448    20 C    1.388    53 H    0.967
    22   6 C    3.871 --    21 C    1.448    23 C    1.354    54 H    0.912
    23   6 C    3.888 --    22 C    1.354    26 C    1.228    24 O    1.051
    24   8 O    2.439 --    25 C    1.299    23 C    1.051
    25   6 C    3.348 --    24 O    1.299    57 H    0.963    55 H    0.947
    26   6 C    3.891 --    29 C    1.387    23 C    1.228    27 O    1.112
    27   8 O    2.271 --    26 C    1.112    28 C    0.974
    28   6 C    3.930 --    58 H    0.977    59 H    0.975    60 H    0.975
                            27 O    0.974
    29   6 C    3.961 --    20 C    1.388    26 C    1.387    61 H    0.962
    30   6 C    3.958 --    17 N    0.998    64 H    0.978    62 H    0.967
                            63 H    0.962
    31   6 C    3.972 --    33 C    1.009    32 C    1.008    65 H    0.960
                             3 C    0.942
    32   6 C    3.979 --    31 C    1.008    67 H    0.982    68 H    0.981
                            66 H    0.974
    33   6 C    3.982 --    31 C    1.009    70 H    0.983    71 H    0.980
                            69 H    0.976
    34   1 H    0.996 --     5 C    0.958
    35   1 H    0.993 --     8 C    0.974
    36   1 H    0.993 --     8 C    0.977
    37   1 H    0.994 --     8 C    0.973
    38   1 H    0.993 --    11 C    0.973
    39   1 H    0.993 --    11 C    0.977
    40   1 H    0.993 --    11 C    0.974
    41   1 H    0.996 --    12 C    0.964
    42   1 H    0.998 --    13 C    0.963
    43   1 H    0.995 --    14 C    0.968
    44   1 H    0.996 --    14 C    0.972
    45   1 H    0.995 --    15 C    0.961
    46   1 H    0.969 --    15 C    0.927
    47   1 H    0.987 --     2 C    0.898
    48   1 H    0.995 --    16 C    0.957
    49   1 H    0.991 --    18 C    0.964
    50   1 H    0.994 --    18 C    0.968
    51   1 H    0.995 --    19 C    0.971
    52   1 H    0.995 --    19 C    0.971
    53   1 H    0.996 --    21 C    0.967
    54   1 H    0.990 --    22 C    0.912
    55   1 H    0.991 --    25 C    0.947
    56   1 H    0.070
    57   1 H    0.987 --    25 C    0.963
    58   1 H    0.992 --    28 C    0.977
    59   1 H    0.995 --    28 C    0.975
    60   1 H    0.994 --    28 C    0.975
    61   1 H    0.996 --    29 C    0.962
    62   1 H    0.985 --    30 C    0.967
    63   1 H    0.987 --    30 C    0.962
    64   1 H    0.994 --    30 C    0.978
    65   1 H    0.992 --    31 C    0.960
    66   1 H    0.991 --    32 C    0.974
    67   1 H    0.997 --    32 C    0.982
    68   1 H    0.994 --    32 C    0.981
    69   1 H    0.993 --    33 C    0.976
    70   1 H    0.997 --    33 C    0.983
    71   1 H    0.994 --    33 C    0.980
    72   1 H    0.970 --     1 N    0.941
 ---------------------------------------------------------------------------

molecular dipole:
                 x           y           z       tot (Debye)
 q only:        0.606      -1.259      -0.368
   full:        0.953      -1.353      -0.500       4.394

           -------------------------------------------------
          | TOTAL ENERGY              -99.275231168703 Eh   |
          | GRADIENT NORM               0.003651718790 Eh/α |
          | HOMO-LUMO GAP               0.510560614521 eV   |
           -------------------------------------------------

 * finished run on 2024/04/06 at 11:14:30.813
