   * xtb version 6.6.1 (8d0f1dd) compiled by 'conda@1efc2f54142f' on 2023-08-01
          program call               : xtb struc.xyz --opt loose --input .xc1 --gfn2

   ID    Z sym.   atoms
    1    6 C      1, 3, 5-7, 10, 11, 14
    2    7 N      2, 4, 9, 13
    3    8 O      8, 12
    4    1 H      15-25
constraining bond 4 11 to    5.9200000 Å, actual value:    3.6888736 Å

          :  Hamiltonian                  GFN2-xTB          :
 * total energy  :   -33.3718051 Eh     change       -0.2401990E-09 Eh
 * total energy  :   -36.9557944 Eh     change       -0.3583989E+01 Eh
 * total energy  :   -39.6356771 Eh     change       -0.2679883E+01 Eh
 * total energy  :   -41.2668771 Eh     change       -0.1631200E+01 Eh
 * total energy  :   -41.8553804 Eh     change       -0.5885033E+00 Eh
 * total energy  :   -41.9181845 Eh     change       -0.6280414E-01 Eh
 * total energy  :   -41.9398437 Eh     change       -0.2165912E-01 Eh
 * total energy  :   -41.9844347 Eh     change       -0.4459102E-01 Eh
 * total energy  :   -42.0053887 Eh     change       -0.2095404E-01 Eh
 * total energy  :   -42.0185234 Eh     change       -0.1313465E-01 Eh
 * total energy  :   -42.1000519 Eh     change       -0.1728076E-03 Eh
 * total energy  :   -42.1002198 Eh     change       -0.1678449E-03 Eh
 * total energy  :   -42.1003169 Eh     change       -0.9713622E-04 Eh
 * total energy  :   -42.1003705 Eh     change       -0.5357719E-04 Eh
 * total energy  :   -42.1004160 Eh     change       -0.4550405E-04 Eh
 * total energy  :   -42.1005559 Eh     change       -0.1399229E-03 Eh
 * total energy  :   -42.1005624 Eh     change       -0.6514543E-05 Eh
 * total energy  :   -42.1006297 Eh     change       -0.6726384E-04 Eh
 * total energy  :   -42.1006575 Eh     change       -0.2776074E-04 Eh
   *** GEOMETRY OPTIMIZATION CONVERGED AFTER 71 ITERATIONS ***

 final structure:
================
25
 xtb: 6.6.1 (8d0f1dd)
C            2.59650564437412        0.93998650937536       -0.81159922305485
N            1.97972937293332       -0.15585694129445       -0.08833427106872
C            2.81092767250053       -1.10818052368009        0.43742932374989
N            2.61755670839284       -2.12248667704434        1.16060544646851
C           -0.18994792022263       -1.19793369238238       -0.14496455476720
C            0.55992515917054       -0.09149600928960        0.03702518133160
C            0.02318848505725        1.20570742274205        0.36627711099193
O            0.64765324783134        2.13670139368172        0.80717700680397
N           -1.44941234573415        1.47599718265256        0.11590562379685
C           -1.90206297919007        2.80928839027946        0.55658859805516
C           -2.28646610436258        0.74555608243363       -0.48425836905061
O           -2.98219025055123       -0.00765572782528       -1.02806291322973
N           -0.78117880877548       -2.16343417361409       -0.50451144894103
C           -1.44020407662453       -3.36822142636154       -0.28495472567381
H            2.77145551739182        1.79567069883886       -0.15349421542741
H            3.54923667341981        0.61847945006477       -1.22756960739244
H            1.94912261256466        1.25912423312804       -1.62816806779543
H            3.84906788791111       -0.93713553358347        0.16524153905697
H           -1.06123673751564        3.28382770807315        1.06415780878507
H           -2.19191875604325        3.41367594882495       -0.30206904338333
H           -2.74230619599805        2.71404926399942        1.24190029657633
H           -1.40322905641990       -3.68268064261859        0.76138525843825
H           -0.97542383186999       -4.12844345378990       -0.91604992623669
H           -2.47927696982898       -3.25478977380246       -0.60157711752587
H            1.69091656568783       -2.36151116720507        1.49309190739352

          :  Hamiltonian                  GFN2-xTB          :
         :: total energy             -42.100657465314 Eh    ::
         :: gradient norm              0.001663082076 Eh/a0 ::
         :: HOMO-LUMO gap              2.047791067499 eV    ::
         :: SCC energy               -42.691415105554 Eh    ::
         :: -> dispersion             -0.020746568803 Eh    ::
         :: repulsion energy           0.590532262236 Eh    ::

    * Orbital Energies and Occupations

         #    Occupation            Energy/Eh            Energy/eV
      -------------------------------------------------------------
         1        2.0000           -0.9322124             -25.3668
       ...           ...                  ...                  ...
        25        1.9992           -0.6721469             -18.2900
        26        1.9990           -0.6666444             -18.1403
        27        1.9962           -0.6336143             -17.2415
        28        1.9957           -0.6306664             -17.1613
        29        1.9955           -0.6297478             -17.1363
        30        1.9942           -0.6235819             -16.9685
        31        1.9926           -0.6177855             -16.8108
        32        1.9908           -0.6126983             -16.6724
        33        1.9864           -0.6033728             -16.4186
        34        1.9788           -0.5926548             -16.1270
        35        1.9387           -0.5669829             -15.4284
        36        1.8103           -0.5385165             -14.6538
        37        1.6671           -0.5232080             -14.2372 (HOMO)
        38        0.3481           -0.4479531             -12.1894 (LUMO)
        39        0.1906           -0.4314947             -11.7416
        40        0.0840           -0.4106628             -11.1747
        41        0.0222           -0.3783073             -10.2943
        42        0.0118           -0.3631762              -9.8825
        43        0.0010           -0.3055120              -8.3134
        44        0.0001           -0.2429072              -6.6098
        45        0.0000           -0.1594511              -4.3389
        46        0.0000           -0.1155653              -3.1447
        47                         -0.0776570              -2.1132
        48                         -0.0472921              -1.2869
       ...                                ...                  ...
        67                          0.9772754              26.5930
      -------------------------------------------------------------
                  HL-Gap            0.0752549 Eh            2.0478 eV

     #   Z          covCN         q      C6AA      α(0)
     1   6 C        3.706    -0.071    22.008     6.706
     2   7 N        2.737    -0.012    21.479     6.883
     3   6 C        2.764     0.122    25.296     8.237
     4   7 N        1.772    -0.248    27.276     7.734
     5   6 C        1.907     0.070    29.345     8.749
     6   6 C        2.885     0.002    27.990     8.673
     7   6 C        2.754     0.252    22.770     7.814
     8   8 O        0.858    -0.323    20.195     6.025
     9   7 N        2.719    -0.036    21.948     6.958
    10   6 C        3.717    -0.069    21.955     6.694
    11   6 C        1.803     0.289    24.633     8.020
    12   8 O        0.856    -0.154    17.337     5.582
    13   7 N        1.821    -0.015    22.247     6.989
    14   6 C        3.686    -0.054    21.745     6.676
    15   1 H        0.924     0.111     1.689     2.032
    16   1 H        0.925     0.093     1.850     2.127
    17   1 H        0.925     0.080     1.979     2.200
    18   1 H        0.925     0.106     1.730     2.057
    19   1 H        0.924     0.141     1.453     1.885
    20   1 H        0.925     0.101     1.780     2.086
    21   1 H        0.925     0.099     1.792     2.093
    22   1 H        0.924     0.101     1.775     2.084
    23   1 H        0.924     0.124     1.578     1.965
    24   1 H        0.924     0.122     1.594     1.975
    25   1 H        0.860     0.169     1.280     1.772

Wiberg/Mayer (AO) data.
largest (>0.10) Wiberg bond orders for each atom

     #   Z sym  total        # sym  WBO       # sym  WBO       # sym  WBO
 ---------------------------------------------------------------------------
     1   6 C    3.912 --     2 N    0.990    17 H    0.970    16 H    0.963
                            15 H    0.945
     2   7 N    3.391 --     3 C    1.187     6 C    1.014     1 C    0.990
                             4 N    0.121
     3   6 C    3.924 --     4 N    1.761     2 N    1.187    18 H    0.919
     4   7 N    2.848 --     3 C    1.761    25 H    0.928     2 N    0.121
     5   6 C    3.776 --    13 N    2.162     6 C    1.390
     6   6 C    3.788 --     5 C    1.390     7 C    1.124     2 N    1.014
     7   6 C    3.787 --     8 O    1.718     6 C    1.124     9 N    0.827
     8   8 O    2.032 --     7 C    1.718
     9   7 N    3.556 --    11 C    1.502    10 C    0.916     7 C    0.827
                            12 O    0.194
    10   6 C    3.863 --    21 H    0.970    20 H    0.969    19 H    0.947
                             9 N    0.916
    11   6 C    3.590 --    12 O    1.997     9 N    1.502
    12   8 O    2.269 --    11 C    1.997     9 N    0.194
    13   7 N    3.410 --     5 C    2.162    14 C    1.044
    14   6 C    3.917 --    13 N    1.044    22 H    0.943    23 H    0.935
                            24 H    0.934
    15   1 H    0.962 --     1 C    0.945
    16   1 H    0.981 --     1 C    0.963
    17   1 H    0.983 --     1 C    0.970
    18   1 H    0.968 --     3 C    0.919
    19   1 H    0.975 --    10 C    0.947
    20   1 H    0.985 --    10 C    0.969
    21   1 H    0.985 --    10 C    0.970
    22   1 H    0.969 --    14 C    0.943
    23   1 H    0.973 --    14 C    0.935
    24   1 H    0.972 --    14 C    0.934
    25   1 H    0.957 --     4 N    0.928
 ---------------------------------------------------------------------------

molecular dipole:
                 x           y           z       tot (Debye)
 q only:       -0.708      -0.589      -0.405
   full:       -1.057      -0.500      -0.462       3.196

           -------------------------------------------------
          | TOTAL ENERGY              -42.100657465314 Eh   |
          | GRADIENT NORM               0.001663082076 Eh/α |
          | HOMO-LUMO GAP               2.047791067499 eV   |
           -------------------------------------------------

 * finished run on 2024/06/05 at 19:58:45.889
