   * xtb version 6.6.1 (8d0f1dd) compiled by 'conda@1efc2f54142f' on 2023-08-01
          program call               : xtb xtbopt.xyz --opt crude --input .xc2 --gfn2

   ID    Z sym.   atoms
    1    6 C      1, 3, 5-7, 10, 11, 14
    2    7 N      2, 4, 9, 13
    3    8 O      8, 12
    4    1 H      15-25
########################################################################
[WARNING] Please study the warnings concerning your input carefully
-1- readin_getIntValue: could not parse ''
########################################################################

          :  Hamiltonian                  GFN2-xTB          :
 * total energy  :   -42.1007125 Eh     change       -0.1392664E-11 Eh
 * total energy  :   -42.1028860 Eh     change       -0.2173538E-02 Eh
 * total energy  :   -42.1049296 Eh     change       -0.2043548E-02 Eh
 * total energy  :   -42.1051998 Eh     change       -0.2702496E-03 Eh
 * total energy  :   -42.1060210 Eh     change       -0.8211886E-03 Eh
 * total energy  :   -42.1065211 Eh     change       -0.5000255E-03 Eh
 * total energy  :   -42.1071997 Eh     change       -0.6786231E-03 Eh
 * total energy  :   -42.1081711 Eh     change       -0.9714579E-03 Eh
 * total energy  :   -42.1100144 Eh     change       -0.1843259E-02 Eh
 * total energy  :   -42.1130242 Eh     change       -0.3009769E-02 Eh
 * total energy  :   -42.1554623 Eh     change       -0.5453005E-02 Eh
 * total energy  :   -42.1569425 Eh     change       -0.1480153E-02 Eh
 * total energy  :   -42.1593968 Eh     change       -0.2454391E-02 Eh
 * total energy  :   -42.1567604 Eh     change        0.2636410E-02 Eh
 * total energy  :   -42.1655417 Eh     change       -0.8781238E-02 Eh
 * total energy  :   -42.1674920 Eh     change       -0.1950308E-02 Eh
 * total energy  :   -42.1696477 Eh     change       -0.2155699E-02 Eh
 * total energy  :   -42.1704958 Eh     change       -0.8481019E-03 Eh
 * total energy  :   -42.1709768 Eh     change       -0.4810092E-03 Eh
   *** GEOMETRY OPTIMIZATION CONVERGED AFTER 25 ITERATIONS ***

 final structure:
================
25
 xtb: 6.6.1 (8d0f1dd)
C            2.85601056795277        0.89464913669209       -0.77034772528641
N            2.02025356156867       -0.12834023006398       -0.18348518940656
C            2.60694832339345       -1.27807019182393        0.29170321932100
N            2.13776482072924       -2.16486734710459        1.04739993039089
C           -0.40857298549484       -0.76489332140591       -0.09187286430518
C            0.68402862303712        0.14426076402746       -0.04478838468459
C            0.15597516107221        1.49310867872004        0.14927824914519
O            0.74751924102154        2.54270432595390        0.26482214578714
N           -1.23723697859970        1.36294630186648        0.23005967321762
C           -2.12441399804488        2.46615409785925        0.48419068651733
C           -1.65934319877960        0.06710278812583        0.06999716077517
O           -2.79787310893433       -0.32270893944643        0.07642669781134
N           -0.36944605370163       -2.03407853928919       -0.24334268794329
C           -1.41140887077366       -2.95788288074227       -0.36352492739703
H            2.90572277212737        1.77178171886822       -0.11615600698901
H            3.86259441126447        0.51270679825600       -0.92797150701959
H            2.43963171315244        1.22005821945632       -1.72559928733160
H            3.64275655396202       -1.40571944845900       -0.01492999160649
H           -1.54152395640792        3.29148798097457        0.89613111197037
H           -2.61021235179306        2.79409186575192       -0.44056428544174
H           -2.89805728618000        2.15446487688782        1.18799399800261
H           -1.55673563740309       -3.46744647904937        0.59929998026816
H           -1.11641485696858       -3.72295845599773       -1.09095147170424
H           -2.36313127063140       -2.49368352411874       -0.66605569181489
H            1.19559631852970       -2.15662965433572        1.41345878562332

          :  Hamiltonian                  GFN2-xTB          :
         :: total energy             -42.170976793342 Eh    ::
         :: gradient norm              0.009201693458 Eh/a0 ::
         :: HOMO-LUMO gap              0.539495117879 eV    ::
         :: SCC energy               -42.696278062686 Eh    ::
         :: -> dispersion             -0.021945479252 Eh    ::
         :: repulsion energy           0.525137650348 Eh    ::

    * Orbital Energies and Occupations

         #    Occupation            Energy/Eh            Energy/eV
      -------------------------------------------------------------
         1        2.0000           -0.8966511             -24.3991
       ...           ...                  ...                  ...
        25        1.9944           -0.6604402             -17.9715
        26        1.9938           -0.6582001             -17.9105
        27        1.9923           -0.6529929             -17.7688
        28        1.9899           -0.6463428             -17.5879
        29        1.9864           -0.6393993             -17.3989
        30        1.9814           -0.6318848             -17.1945
        31        1.9804           -0.6305783             -17.1589
        32        1.9639           -0.6158459             -16.7580
        33        1.9301           -0.5997715             -16.3206
        34        1.8843           -0.5872276             -15.9793
        35        1.8597           -0.5823248             -15.8459
        36        1.7348           -0.5655512             -15.3894
        37        1.4545           -0.5442379             -14.8095 (HOMO)
        38        1.0728           -0.5244118             -14.2700 (LUMO)
        39        0.1807           -0.4660924             -12.6830
        40        0.0098           -0.3947570             -10.7419
        41        0.0013           -0.3469149              -9.4400
        42        0.0004           -0.3214217              -8.7463
        43        0.0000           -0.1856282              -5.0512
        44        0.0000           -0.1595505              -4.3416
        45                         -0.1013183              -2.7570
        46                         -0.0936573              -2.5485
        47                         -0.0646924              -1.7604
        48                         -0.0410232              -1.1163
       ...                                ...                  ...
        67                          0.5674872              15.4421
      -------------------------------------------------------------
                  HL-Gap            0.0198261 Eh            0.5395 eV

     #   Z          covCN         q      C6AA      α(0)
     1   6 C        3.706    -0.082    22.229     6.740
     2   7 N        2.732     0.037    20.592     6.740
     3   6 C        2.769     0.122    25.300     8.238
     4   7 N        1.774    -0.201    26.159     7.574
     5   6 C        2.937     0.058    26.688     8.473
     6   6 C        2.960     0.004    27.924     8.668
     7   6 C        2.833     0.261    22.618     7.793
     8   8 O        0.857    -0.316    20.066     6.006
     9   7 N        2.779    -0.053    22.272     7.009
    10   6 C        3.690    -0.058    21.806     6.683
    11   6 C        2.830     0.263    22.572     7.785
    12   8 O        0.857    -0.292    19.633     5.941
    13   7 N        1.825    -0.112    24.204     7.290
    14   6 C        3.691    -0.049    21.636     6.656
    15   1 H        0.924     0.135     1.495     1.912
    16   1 H        0.925     0.107     1.718     2.050
    17   1 H        0.924     0.109     1.702     2.040
    18   1 H        0.925     0.123     1.590     1.972
    19   1 H        0.924     0.123     1.591     1.973
    20   1 H        0.924     0.117     1.638     2.001
    21   1 H        0.924     0.117     1.642     2.004
    22   1 H        0.923     0.128     1.550     1.947
    23   1 H        0.924     0.129     1.540     1.941
    24   1 H        0.923     0.128     1.553     1.949
    25   1 H        0.860     0.200     1.108     1.649

Wiberg/Mayer (AO) data.
largest (>0.10) Wiberg bond orders for each atom

     #   Z sym  total        # sym  WBO       # sym  WBO       # sym  WBO
 ---------------------------------------------------------------------------
     1   6 C    3.873 --     2 N    0.990    16 H    0.961    17 H    0.951
                            15 H    0.925
     2   7 N    3.436 --     6 C    1.170     3 C    1.142     1 C    0.990
     3   6 C    3.899 --     4 N    1.784     2 N    1.142    18 H    0.916
     4   7 N    2.816 --     3 C    1.784    25 H    0.909
     5   6 C    3.840 --    13 N    1.571     6 C    1.198    11 C    0.899
     6   6 C    3.610 --     5 C    1.198     2 N    1.170     7 C    1.058
     7   6 C    3.877 --     8 O    1.674     9 N    1.058     6 C    1.058
     8   8 O    1.915 --     7 C    1.674
     9   7 N    3.437 --    11 C    1.135     7 C    1.058    10 C    0.991
                            12 O    0.113
    10   6 C    3.857 --     9 N    0.991    19 H    0.951    21 H    0.946
                            20 H    0.931
    11   6 C    3.827 --    12 O    1.716     9 N    1.135     5 C    0.899
    12   8 O    1.968 --    11 C    1.716     9 N    0.113
    13   7 N    2.801 --     5 C    1.571    14 C    1.094
    14   6 C    3.850 --    13 N    1.094    23 H    0.915    22 H    0.901
                            24 H    0.895
    15   1 H    0.948 --     1 C    0.925
    16   1 H    0.978 --     1 C    0.961
    17   1 H    0.963 --     1 C    0.951
    18   1 H    0.958 --     3 C    0.916
    19   1 H    0.966 --    10 C    0.951
    20   1 H    0.948 --    10 C    0.931
    21   1 H    0.961 --    10 C    0.946
    22   1 H    0.937 --    14 C    0.901
    23   1 H    0.938 --    14 C    0.915
    24   1 H    0.914 --    14 C    0.895
    25   1 H    0.943 --     4 N    0.909
 ---------------------------------------------------------------------------

molecular dipole:
                 x           y           z       tot (Debye)
 q only:        0.898      -0.805      -0.272
   full:        0.581      -0.593      -0.348       2.288

           -------------------------------------------------
          | TOTAL ENERGY              -42.170976793342 Eh   |
          | GRADIENT NORM               0.009201693458 Eh/α |
          | HOMO-LUMO GAP               0.539495117879 eV   |
           -------------------------------------------------

 * finished run on 2024/06/05 at 19:58:46.746
