   * xtb version 6.6.1 (8d0f1dd) compiled by 'conda@1efc2f54142f' on 2023-08-01
          program call               : xtb struc.xyz --opt loose --input .xc1 --gfn2

   ID    Z sym.   atoms
    1    6 C      1, 3, 5-7, 10, 11, 14
    2    7 N      2, 4, 9, 13
    3    8 O      8, 12
    4    1 H      15-25
constraining bond 15 16 to    3.2800000 Å, actual value:    1.7725958 Å

          :  Hamiltonian                  GFN2-xTB          :
 * total energy  :   -38.1906522 Eh     change       -0.6650680E-10 Eh
 * total energy  :   -40.2857369 Eh     change       -0.2095085E+01 Eh
 * total energy  :   -41.6333379 Eh     change       -0.1347601E+01 Eh
 * total energy  :   -42.0352868 Eh     change       -0.4019489E+00 Eh
 * total energy  :   -42.0647487 Eh     change       -0.2946195E-01 Eh
 * total energy  :   -42.0651782 Eh     change       -0.4294820E-03 Eh
 * total energy  :   -42.0662231 Eh     change       -0.1044903E-02 Eh
 * total energy  :   -42.0667946 Eh     change       -0.5714558E-03 Eh
 * total energy  :   -42.0672728 Eh     change       -0.4781982E-03 Eh
 * total energy  :   -42.0677862 Eh     change       -0.5134381E-03 Eh
 * total energy  :   -42.1101668 Eh     change       -0.7440234E-04 Eh
 * total energy  :   -42.1102296 Eh     change       -0.6277704E-04 Eh
 * total energy  :   -42.1103143 Eh     change       -0.8465454E-04 Eh
 * total energy  :   -42.1103855 Eh     change       -0.7124640E-04 Eh
 * total energy  :   -42.1104819 Eh     change       -0.9637138E-04 Eh
 * total energy  :   -42.1105264 Eh     change       -0.4453121E-04 Eh
 * total energy  :   -42.1105953 Eh     change       -0.6891573E-04 Eh
 * total energy  :   -42.1106315 Eh     change       -0.3618133E-04 Eh
 * total energy  :   -42.1106751 Eh     change       -0.4361521E-04 Eh
   *** GEOMETRY OPTIMIZATION CONVERGED AFTER 43 ITERATIONS ***

 final structure:
================
25
 xtb: 6.6.1 (8d0f1dd)
C            3.20957693025496        1.02042286961210       -0.29843689651197
N            2.32385869033102        0.02313572406367       -0.24346464079728
C            2.56729813722616       -1.30526428506811       -0.26790622045266
N            1.40008130892063       -1.99395139824521       -0.17024852832150
C            0.38296155710961       -1.09423195747824       -0.08062467605863
C            0.94476618347211        0.16955101665676       -0.12237660062115
C            0.13924934000683        1.36849582439949       -0.07631819857604
O            0.55670019528885        2.50136796995586       -0.11171156420522
N           -1.21825054596149        1.06074969424423        0.01413424895042
C           -2.15682571881672        2.17393690323213        0.04829795248327
C           -1.80429234826023       -0.19086313221278        0.06268100360500
O           -2.99054705507824       -0.34340926344698        0.13949160864456
N           -0.93869171526079       -1.30784062403090        0.01878008319171
C           -1.51050491729218       -2.63825150820060        0.06995760203077
H            2.49503084733323        1.87813038299231        2.00865674104199
H            4.23705373971342        0.77549284876800       -0.53869815274632
H            2.84516728075532        2.03234772599973       -0.33086152572603
H            3.53645169750823       -1.75478693355321       -0.34341087090173
H           -1.58520091924547        3.09873333896913        0.02698042166740
H           -2.82350918680302        2.12108148778635       -0.81250178874111
H           -2.76093121110945        2.12026870411518        0.95346350231014
H           -1.11478620397863       -3.19182548545193        0.92172708029540
H           -1.31032203279623       -3.17874869171450       -0.85564919902444
H           -2.58814562952925       -2.52572850784804        0.18707381679906
H            1.32424309031125       -3.00057416194425       -0.16786358043542

          :  Hamiltonian                  GFN2-xTB          :
         :: total energy             -42.110675121648 Eh    ::
         :: gradient norm              0.003989840921 Eh/a0 ::
         :: HOMO-LUMO gap              0.727148010080 eV    ::
         :: SCC energy               -42.632314103393 Eh    ::
         :: -> dispersion             -0.023393450413 Eh    ::
         :: repulsion energy           0.521464050634 Eh    ::

    * Orbital Energies and Occupations

         #    Occupation            Energy/Eh            Energy/eV
      -------------------------------------------------------------
         1        2.0000           -0.9150308             -24.8993
       ...           ...                  ...                  ...
        25        1.9999           -0.6711386             -18.2626
        26        1.9999           -0.6709326             -18.2570
        27        1.9999           -0.6617148             -18.0062
        28        1.9995           -0.6391188             -17.3913
        29        1.9994           -0.6354177             -17.2906
        30        1.9991           -0.6294223             -17.1275
        31        1.9986           -0.6226599             -16.9434
        32        1.9950           -0.6030637             -16.4102
        33        1.9843           -0.5847004             -15.9105
        34        1.9550           -0.5678157             -15.4511
        35        1.9490           -0.5657568             -15.3950
        36        1.9432           -0.5640260             -15.3479
        37        1.4794           -0.5246190             -14.2756 (HOMO)
        38        0.6891           -0.4978968             -13.5485 (LUMO)
        39        0.0054           -0.4144013             -11.2764
        40        0.0031           -0.4054394             -11.0326
        41        0.0004           -0.3720621             -10.1243
        42        0.0000           -0.2901073              -7.8942
        43                         -0.2101063              -5.7173
        44                         -0.1895052              -5.1567
        45                         -0.1467531              -3.9934
        46                         -0.1190823              -3.2404
        47                         -0.0863499              -2.3497
        48                         -0.0524698              -1.4278
       ...                                ...                  ...
        67                          0.5514651              15.0061
      -------------------------------------------------------------
                  HL-Gap            0.0267222 Eh            0.7271 eV

     #   Z          covCN         q      C6AA      α(0)
     1   6 C        2.787    -0.064    29.568     8.907
     2   7 N        2.810     0.127    19.071     6.486
     3   6 C        3.044     0.030    27.286     8.568
     4   7 N        2.782    -0.057    22.338     7.020
     5   6 C        3.025     0.120    25.345     8.258
     6   6 C        3.115    -0.037    28.748     8.783
     7   6 C        2.765     0.275    22.357     7.743
     8   8 O        0.858    -0.354    20.785     6.112
     9   7 N        2.746    -0.079    22.785     7.089
    10   6 C        3.710    -0.063    21.852     6.681
    11   6 C        2.728     0.318    21.594     7.608
    12   8 O        0.860    -0.347    20.646     6.092
    13   7 N        2.738    -0.052    22.247     7.005
    14   6 C        3.696    -0.074    22.086     6.723
    15   1 H        0.000     0.015     7.006     4.840
    16   1 H        0.925     0.112     1.680     2.027
    17   1 H        0.926     0.146     1.416     1.861
    18   1 H        0.926     0.124     1.580     1.966
    19   1 H        0.925     0.117     1.636     2.000
    20   1 H        0.925     0.104     1.749     2.068
    21   1 H        0.925     0.105     1.737     2.061
    22   1 H        0.925     0.086     1.918     2.166
    23   1 H        0.924     0.087     1.908     2.160
    24   1 H        0.925     0.130     1.536     1.938
    25   1 H        0.860     0.230     0.966     1.539

Wiberg/Mayer (AO) data.
largest (>0.10) Wiberg bond orders for each atom

     #   Z sym  total        # sym  WBO       # sym  WBO       # sym  WBO
 ---------------------------------------------------------------------------
     1   6 C    3.468 --     2 N    1.301    16 H    0.965    17 H    0.949
                            15 H    0.125
     2   7 N    3.757 --     1 C    1.301     3 C    1.261     6 C    1.093
     3   6 C    3.677 --     2 N    1.261     4 N    1.248    18 H    0.954
     4   7 N    3.538 --     3 C    1.248     5 C    1.191    25 H    0.919
     5   6 C    3.941 --     6 C    1.352    13 N    1.219     4 N    1.191
     6   6 C    3.851 --     5 C    1.352     2 N    1.093     7 C    1.083
     7   6 C    3.959 --     8 O    1.685     9 N    1.096     6 C    1.083
     8   8 O    2.019 --     7 C    1.685     9 N    0.139
     9   7 N    3.532 --    11 C    1.125     7 C    1.096    10 C    0.971
                             8 O    0.139    12 O    0.133
    10   6 C    3.896 --     9 N    0.971    19 H    0.965    21 H    0.957
                            20 H    0.957
    11   6 C    3.958 --    12 O    1.709     9 N    1.125    13 N    1.034
    12   8 O    2.048 --    11 C    1.709     9 N    0.133    13 N    0.118
    13   7 N    3.533 --     5 C    1.219    11 C    1.034    14 C    0.975
                            12 O    0.118
    14   6 C    3.918 --    13 N    0.975    22 H    0.968    23 H    0.967
                            24 H    0.962
    15   1 H    0.164 --     1 C    0.125
    16   1 H    0.985 --     1 C    0.965
    17   1 H    0.977 --     1 C    0.949
    18   1 H    0.984 --     3 C    0.954
    19   1 H    0.983 --    10 C    0.965
    20   1 H    0.976 --    10 C    0.957
    21   1 H    0.976 --    10 C    0.957
    22   1 H    0.986 --    14 C    0.968
    23   1 H    0.985 --    14 C    0.967
    24   1 H    0.982 --    14 C    0.962
    25   1 H    0.947 --     4 N    0.919
 ---------------------------------------------------------------------------

molecular dipole:
                 x           y           z       tot (Debye)
 q only:        2.177      -2.084      -0.279
   full:        2.450      -2.554      -0.309       9.029

           -------------------------------------------------
          | TOTAL ENERGY              -42.110675121648 Eh   |
          | GRADIENT NORM               0.003989840921 Eh/α |
          | HOMO-LUMO GAP               0.727148010080 eV   |
           -------------------------------------------------

 * finished run on 2024/06/05 at 19:58:07.794
