   * xtb version 6.6.1 (8d0f1dd) compiled by 'conda@1efc2f54142f' on 2023-08-01
          program call               : xtb struc.xyz --opt loose --input .xc1 --gfn2

   ID    Z sym.   atoms
    1    7 N      1, 17
    2    6 C      2-6, 8, 9, 11-16, 18-23, 25, 26, 28-33
    3    8 O      7, 10, 24, 27
    4    1 H      34-72
constraining bond 18 21 to    6.0000000 Å, actual value:    3.2847275 Å

          :  Hamiltonian                  GFN2-xTB          :
 * total energy  :   -98.0877109 Eh     change       -0.4035485E-08 Eh
 * total energy  :   -98.4409406 Eh     change       -0.3532297E+00 Eh
 * total energy  :   -98.6629497 Eh     change       -0.2220091E+00 Eh
 * total energy  :   -98.8069803 Eh     change       -0.1440307E+00 Eh
 * total energy  :   -98.9177315 Eh     change       -0.1107512E+00 Eh
 * total energy  :   -99.0083732 Eh     change       -0.9064169E-01 Eh
 * total energy  :   -99.0812310 Eh     change       -0.7285781E-01 Eh
 * total energy  :   -99.1320475 Eh     change       -0.5081653E-01 Eh
 * total energy  :   -99.1732175 Eh     change       -0.4117002E-01 Eh
 * total energy  :   -99.2160027 Eh     change       -0.4278516E-01 Eh
 * total energy  :   -99.3266002 Eh     change       -0.8142460E-04 Eh
 * total energy  :   -99.3267080 Eh     change       -0.1077949E-03 Eh
 * total energy  :   -99.3267928 Eh     change       -0.8482427E-04 Eh
 * total energy  :   -99.3268696 Eh     change       -0.7671372E-04 Eh
 * total energy  :   -99.3269739 Eh     change       -0.1043391E-03 Eh
 * total energy  :   -99.3271170 Eh     change       -0.1430716E-03 Eh
 * total energy  :   -99.3272484 Eh     change       -0.1314622E-03 Eh
 * total energy  :   -99.3273669 Eh     change       -0.1184283E-03 Eh
 * total energy  :   -99.3274141 Eh     change       -0.4724487E-04 Eh
   *** GEOMETRY OPTIMIZATION CONVERGED AFTER 44 ITERATIONS ***

 final structure:
================
72
 xtb: 6.6.1 (8d0f1dd)
N           -2.20127694299189        2.91699125102183        2.38548169923344
C           -2.12635089414306        2.08953412419523        1.45256049349345
C           -3.18253974583413        1.90710925925873        0.39495751025595
C           -3.72390578122068        0.49094324989720        0.47236883139057
C           -4.52121267992369       -0.00990794763330       -0.55871296680529
C           -5.01706187562252       -1.30368624831889       -0.52709574451974
O           -5.77562438138830       -1.87106660355558       -1.48810669181884
C           -6.18931007346247       -1.09510933021909       -2.58841784002100
C           -4.71585365062343       -2.14168154744311        0.58124501867083
O           -5.21077016171853       -3.39447915716175        0.51677422529338
C           -5.00743460540283       -4.26642221280933        1.60454910232833
C           -3.95397228335593       -1.62516749206833        1.61831228796348
C           -3.46615216992985       -0.32637801694805        1.56312303054180
C           -2.46740959557114        2.15851316292702       -0.96243279645770
C           -1.66985442106859        0.97589092315981       -1.54711624604917
C           -0.48709759663221        0.58521063449520       -0.74055466971396
N           -0.17425483333307       -0.65164139811151       -0.37257197367820
C            0.90508522270053       -0.94557064912443        0.34193965004966
C            3.85986269202056        0.31427216499092       -1.98555012857182
C            5.11795027549711        0.33499281501091       -1.43492616714998
C            6.03025126685261        1.39409087896454       -1.70895992147097
C            7.27847584085482        1.42330938073944       -1.14391857417712
C            7.69957084000186        0.40665829391675       -0.28073477734867
O            8.88722477301556        0.34177149446144        0.32843807487956
C            9.83076373423455        1.37196484338697        0.13489019132726
C            6.81003544653968       -0.68166391337355        0.00196821000037
O            7.31840351464631       -1.61208230857437        0.83597148076573
C            6.54332967013077       -2.74626982047196        1.14518357306834
C            5.56051667163618       -0.70354757980158       -0.56182553654454
C           -1.04079613388055       -1.75538998588695       -0.75492147424430
C           -4.37935269205947        2.89406251765605        0.54112935457863
C           -5.13812106119760        2.66965553446987        1.84661506930751
C           -3.96654418079252        4.35935485621555        0.43188409218496
H           -4.76393435191351        0.62743448271175       -1.39319408660104
H           -6.78445988085196       -0.23390213534437       -2.27070678379150
H           -6.80623706599885       -1.75521763302307       -3.19471043955394
H           -5.33634783940712       -0.75220449837648       -3.18348651213423
H           -5.45437991537914       -3.87304883177345        2.52208496120887
H           -5.50331341528982       -5.19551097938047        1.33098997055067
H           -3.94278429812038       -4.45988984118114        1.77074636304273
H           -3.73577205535546       -2.22674408118419        2.48550717562352
H           -2.89293134847382        0.04579336147616        2.39744389206133
H           -3.21759186378049        2.43926476568068       -1.70203127874118
H           -1.79515683000322        3.00896400159391       -0.83959111280037
H           -2.33969912751979        0.13365867407410       -1.70216668487480
H           -1.32036608680680        1.30864266868408       -2.53352924957775
H           -1.25749273044880        1.43024293855476        1.28658577098489
H            0.23317249118809        1.35270016478375       -0.50092345223443
H            1.11448735361023       -1.95884193326002        0.61183178433082
H            1.57277864232624       -0.16015340060748        0.63924172962496
H            3.52689367302240        1.09508136785561       -2.64447618243899
H            3.17666379166632       -0.49177590338964       -1.78447845628108
H            5.71858855698080        2.18293235915067       -2.37537303743968
H            7.94042916259263        2.24254644721086       -1.37464465541432
H            9.44298595480318        2.33637972281342        0.47543462465123
H           10.13102849124468        1.44749457766362       -0.91429556212003
H           10.69353285442437        1.09528049490621        0.73810602680150
H            7.16920396508412       -3.36214359387750        1.78791199162922
H            5.63014531698442       -2.47141674236317        1.68288197059363
H            6.28230664359622       -3.30926212888366        0.24379865231499
H            4.87713094855622       -1.51231592659058       -0.35890555549523
H           -1.12973227208843       -1.80529745202817       -1.83983364294140
H           -2.03150681126513       -1.63002529134246       -0.31787415249805
H           -0.61834693880782       -2.69096255164093       -0.39829053611464
H           -5.06373770242271        2.67117205654624       -0.28620796213784
H           -4.49945446178014        2.90180043417869        2.69314291641857
H           -5.48053526036330        1.64107042039523        1.93238720486217
H           -6.00618988240026        3.32296828790549        1.88003301973266
H           -3.25676815854609        4.60834569997839        1.21468038872181
H           -3.52749149325575        4.58808581573876       -0.53546117100770
H           -4.84506264389678        4.98754066515742        0.55660886305983
H           -1.42011400286726        2.98119186643548        3.03048166382729

          :  Hamiltonian                  GFN2-xTB          :
         :: total energy             -99.327414110607 Eh    ::
         :: gradient norm              0.002343162998 Eh/a0 ::
         :: HOMO-LUMO gap              0.764233271642 eV    ::
         :: SCC energy              -100.729983367448 Eh    ::
         :: -> dispersion             -0.072617596105 Eh    ::
         :: repulsion energy           1.400948606215 Eh    ::

    * Orbital Energies and Occupations

         #    Occupation            Energy/Eh            Energy/eV
      -------------------------------------------------------------
         1        2.0000           -0.8143643             -22.1600
       ...           ...                  ...                  ...
        78        1.9977           -0.5264706             -14.3260
        79        1.9976           -0.5253450             -14.2954
        80        1.9968           -0.5208707             -14.1736
        81        1.9961           -0.5179492             -14.0941
        82        1.9945           -0.5122354             -13.9386
        83        1.9936           -0.5099801             -13.8773
        84        1.9922           -0.5068687             -13.7926
        85        1.9879           -0.4998684             -13.6021
        86        1.9777           -0.4900963             -13.3362
        87        1.9266           -0.4707874             -12.8108
        88        1.9125           -0.4679003             -12.7322
        89        1.8576           -0.4597235             -12.5097
        90        1.5761           -0.4398475             -11.9689 (HOMO)
        91        0.7738           -0.4117624             -11.2046 (LUMO)
        92        0.0134           -0.3398913              -9.2489
        93        0.0088           -0.3331883              -9.0665
        94        0.0031           -0.3166340              -8.6161
        95        0.0025           -0.3132207              -8.5232
        96        0.0019           -0.3085176              -8.3952
        97        0.0004           -0.2848810              -7.7520
        98        0.0000           -0.1911610              -5.2018
        99        0.0000           -0.1776035              -4.8328
       100                         -0.1018048              -2.7703
       101                         -0.0663071              -1.8043
       ...                                ...                  ...
       171                          0.5920707              16.1111
      -------------------------------------------------------------
                  HL-Gap            0.0280851 Eh            0.7642 eV

     #   Z          covCN         q      C6AA      α(0)
     1   7 N        1.774    -0.266    27.735     7.799
     2   6 C        2.828     0.102    25.733     8.312
     3   6 C        3.907     0.007    20.405     6.421
     4   6 C        2.974     0.004    27.919     8.667
     5   6 C        2.920    -0.080    29.995     8.981
     6   6 C        2.862     0.127    25.208     8.230
     7   8 O        1.706    -0.231    17.829     5.701
     8   6 C        3.644     0.028    20.450     6.500
     9   6 C        2.864     0.127    25.220     8.232
    10   8 O        1.706    -0.229    17.800     5.696
    11   6 C        3.645     0.026    20.462     6.501
    12   6 C        2.913    -0.074    29.843     8.958
    13   6 C        2.921    -0.051    29.265     8.871
    14   6 C        3.810    -0.064    21.716     6.633
    15   6 C        3.801    -0.067    21.791     6.646
    16   6 C        2.868    -0.041    29.017     8.830
    17   7 N        2.729     0.101    19.510     6.560
    18   6 C        2.823    -0.109    30.739     9.085
    19   6 C        2.852    -0.093    30.326     9.026
    20   6 C        2.959     0.024    27.465     8.596
    21   6 C        2.921    -0.035    28.880     8.813
    22   6 C        2.906    -0.061    29.527     8.910
    23   6 C        2.865     0.142    24.899     8.179
    24   8 O        1.706    -0.202    17.360     5.625
    25   6 C        3.645     0.021    20.554     6.516
    26   6 C        2.857     0.136    25.030     8.200
    27   8 O        1.706    -0.230    17.807     5.697
    28   6 C        3.646     0.027    20.455     6.500
    29   6 C        2.918    -0.078    29.939     8.973
    30   6 C        3.719    -0.077    22.099     6.715
    31   6 C        3.853    -0.007    20.668     6.466
    32   6 C        3.756    -0.117    22.804     6.809
    33   6 C        3.755    -0.120    22.845     6.815
    34   1 H        0.926     0.054     2.274     2.358
    35   1 H        0.924     0.055     2.258     2.350
    36   1 H        0.925     0.081     1.966     2.193
    37   1 H        0.924     0.047     2.362     2.403
    38   1 H        0.924     0.056     2.241     2.341
    39   1 H        0.925     0.081     1.966     2.193
    40   1 H        0.924     0.048     2.341     2.393
    41   1 H        0.926     0.054     2.270     2.356
    42   1 H        0.926     0.043     2.407     2.426
    43   1 H        0.924     0.057     2.232     2.337
    44   1 H        0.924     0.052     2.296     2.370
    45   1 H        0.925     0.057     2.232     2.336
    46   1 H        0.923     0.065     2.138     2.287
    47   1 H        0.923     0.014     2.825     2.628
    48   1 H        0.926     0.056     2.243     2.342
    49   1 H        0.927     0.060     2.200     2.320
    50   1 H        0.926     0.058     2.225     2.332
    51   1 H        0.926     0.053     2.285     2.364
    52   1 H        0.926     0.045     2.381     2.413
    53   1 H        0.926     0.060     2.196     2.317
    54   1 H        0.926     0.062     2.180     2.309
    55   1 H        0.924     0.061     2.188     2.313
    56   1 H        0.924     0.062     2.171     2.304
    57   1 H        0.925     0.086     1.913     2.163
    58   1 H        0.925     0.081     1.964     2.192
    59   1 H        0.924     0.049     2.330     2.387
    60   1 H        0.924     0.053     2.287     2.365
    61   1 H        0.926     0.053     2.278     2.360
    62   1 H        0.925     0.082     1.956     2.187
    63   1 H        0.925     0.083     1.949     2.183
    64   1 H        0.925     0.084     1.934     2.175
    65   1 H        0.924     0.037     2.486     2.465
    66   1 H        0.925     0.068     2.111     2.272
    67   1 H        0.925     0.035     2.520     2.482
    68   1 H        0.925     0.051     2.304     2.374
    69   1 H        0.925     0.065     2.144     2.290
    70   1 H        0.925     0.037     2.494     2.470
    71   1 H        0.925     0.054     2.272     2.357
    72   1 H        0.860     0.158     1.345     1.817

Wiberg/Mayer (AO) data.
largest (>0.10) Wiberg bond orders for each atom

     #   Z sym  total        # sym  WBO       # sym  WBO       # sym  WBO
 ---------------------------------------------------------------------------
     1   7 N    3.019 --     2 C    1.956    72 H    0.940
     2   6 C    3.935 --     1 N    1.956     3 C    0.991    47 H    0.916
     3   6 C    3.971 --     2 C    0.991     4 C    0.975    14 C    0.952
                            31 C    0.943
     4   6 C    3.946 --    13 C    1.410     5 C    1.369     3 C    0.975
     5   6 C    3.961 --     6 C    1.398     4 C    1.369    34 H    0.958
     6   6 C    3.901 --     5 C    1.398     9 C    1.222     7 O    1.098
     7   8 O    2.251 --     6 C    1.098     8 C    0.978
     8   6 C    3.932 --     7 O    0.978    36 H    0.977    37 H    0.973
                            35 H    0.973
     9   6 C    3.897 --    12 C    1.388     6 C    1.222    10 O    1.101
    10   8 O    2.249 --     9 C    1.101    11 C    0.977
    11   6 C    3.931 --    10 O    0.977    39 H    0.977    40 H    0.973
                            38 H    0.973
    12   6 C    3.961 --    13 C    1.407     9 C    1.388    41 H    0.963
    13   6 C    3.950 --     4 C    1.410    12 C    1.407    42 H    0.962
    14   6 C    3.972 --    15 C    0.982    44 H    0.973    43 H    0.968
                             3 C    0.952
    15   6 C    3.986 --    16 C    1.052    14 C    0.982    45 H    0.962
                            46 H    0.940
    16   6 C    3.671 --    17 N    1.355    15 C    1.052    48 H    0.960
                            18 C    0.218
    17   7 N    3.747 --    18 C    1.363    16 C    1.355    30 C    0.984
    18   6 C    3.596 --    17 N    1.363    49 H    0.975    50 H    0.974
                            16 C    0.218
    19   6 C    3.545 --    20 C    1.502    51 H    0.979    52 H    0.979
    20   6 C    3.979 --    19 C    1.502    21 C    1.205    29 C    1.199
    21   6 C    3.807 --    22 C    1.524    20 C    1.205    53 H    0.967
    22   6 C    3.968 --    21 C    1.524    23 C    1.315    54 H    0.961
    23   6 C    3.768 --    22 C    1.315    26 C    1.171    24 O    1.145
    24   8 O    2.260 --    23 C    1.145    25 C    0.971
    25   6 C    3.923 --    57 H    0.976    55 H    0.971    24 O    0.971
                            56 H    0.971
    26   6 C    3.913 --    29 C    1.484    23 C    1.171    27 O    1.098
    27   8 O    2.254 --    26 C    1.098    28 C    0.978
    28   6 C    3.932 --    27 O    0.978    58 H    0.977    59 H    0.973
                            60 H    0.973
    29   6 C    3.854 --    26 C    1.484    20 C    1.199    61 H    0.962
    30   6 C    3.955 --    17 N    0.984    64 H    0.977    62 H    0.970
                            63 H    0.963
    31   6 C    3.970 --    33 C    1.008    32 C    1.008    65 H    0.959
                             3 C    0.943
    32   6 C    3.976 --    31 C    1.008    67 H    0.981    68 H    0.981
                            66 H    0.973
    33   6 C    3.977 --    31 C    1.008    70 H    0.982    71 H    0.979
                            69 H    0.973
    34   1 H    0.996 --     5 C    0.958
    35   1 H    0.993 --     8 C    0.973
    36   1 H    0.993 --     8 C    0.977
    37   1 H    0.994 --     8 C    0.973
    38   1 H    0.992 --    11 C    0.973
    39   1 H    0.993 --    11 C    0.977
    40   1 H    0.993 --    11 C    0.973
    41   1 H    0.995 --    12 C    0.963
    42   1 H    0.997 --    13 C    0.962
    43   1 H    0.994 --    14 C    0.968
    44   1 H    0.996 --    14 C    0.973
    45   1 H    0.996 --    15 C    0.962
    46   1 H    0.976 --    15 C    0.940
    47   1 H    0.978 --     2 C    0.916
    48   1 H    0.996 --    16 C    0.960
    49   1 H    0.996 --    18 C    0.975
    50   1 H    0.997 --    18 C    0.974
    51   1 H    0.996 --    19 C    0.979
    52   1 H    0.997 --    19 C    0.979
    53   1 H    0.996 --    21 C    0.967
    54   1 H    0.994 --    22 C    0.961
    55   1 H    0.989 --    25 C    0.971
    56   1 H    0.989 --    25 C    0.971
    57   1 H    0.992 --    25 C    0.976
    58   1 H    0.993 --    28 C    0.977
    59   1 H    0.993 --    28 C    0.973
    60   1 H    0.993 --    28 C    0.973
    61   1 H    0.996 --    29 C    0.962
    62   1 H    0.993 --    30 C    0.970
    63   1 H    0.993 --    30 C    0.963
    64   1 H    0.993 --    30 C    0.977
    65   1 H    0.990 --    31 C    0.959
    66   1 H    0.990 --    32 C    0.973
    67   1 H    0.996 --    32 C    0.981
    68   1 H    0.993 --    32 C    0.981
    69   1 H    0.991 --    33 C    0.973
    70   1 H    0.996 --    33 C    0.982
    71   1 H    0.993 --    33 C    0.979
    72   1 H    0.968 --     1 N    0.940
 ---------------------------------------------------------------------------

molecular dipole:
                 x           y           z       tot (Debye)
 q only:        1.297      -0.269      -0.639
   full:        1.620      -0.385      -0.722       4.614

           -------------------------------------------------
          | TOTAL ENERGY              -99.327414110607 Eh   |
          | GRADIENT NORM               0.002343162998 Eh/α |
          | HOMO-LUMO GAP               0.764233271642 eV   |
           -------------------------------------------------

 * finished run on 2024/04/06 at 11:13:40.215
