   * xtb version 6.6.1 (8d0f1dd) compiled by 'conda@1efc2f54142f' on 2023-08-01
          program call               : xtb struc.xyz --opt loose --input .xc1 --gfn2

   ID    Z sym.   atoms
    1    6 C      1, 3, 5-7, 10, 11, 14
    2    7 N      2, 4, 9, 13
    3    8 O      8, 12
    4    1 H      15-25
constraining bond 8 9 to    4.6800000 Å, actual value:    2.2895399 Å

          :  Hamiltonian                  GFN2-xTB          :
 * total energy  :   -32.0569850 Eh     change       -0.2401990E-09 Eh
 * total energy  :   -35.8917468 Eh     change       -0.3834762E+01 Eh
 * total energy  :   -38.8100730 Eh     change       -0.2918326E+01 Eh
 * total energy  :   -40.6591338 Eh     change       -0.1849061E+01 Eh
 * total energy  :   -41.5489060 Eh     change       -0.8897722E+00 Eh
 * total energy  :   -41.7225987 Eh     change       -0.1736928E+00 Eh
 * total energy  :   -41.7352797 Eh     change       -0.1268099E-01 Eh
 * total energy  :   -41.7573446 Eh     change       -0.2206494E-01 Eh
 * total energy  :   -41.7783319 Eh     change       -0.2098721E-01 Eh
 * total energy  :   -41.7970683 Eh     change       -0.1873649E-01 Eh
 * total energy  :   -42.2266751 Eh     change       -0.1697936E-03 Eh
 * total energy  :   -42.2267657 Eh     change       -0.9056733E-04 Eh
 * total energy  :   -42.2268416 Eh     change       -0.7588698E-04 Eh
 * total energy  :   -42.2269391 Eh     change       -0.9750231E-04 Eh
 * total energy  :   -42.2270256 Eh     change       -0.8648633E-04 Eh
 * total energy  :   -42.2271408 Eh     change       -0.1152072E-03 Eh
 * total energy  :   -42.2271870 Eh     change       -0.4625430E-04 Eh
 * total energy  :   -42.2272158 Eh     change       -0.2878811E-04 Eh
 * total energy  :   -42.2272565 Eh     change       -0.4063808E-04 Eh
   *** GEOMETRY OPTIMIZATION CONVERGED AFTER 105 ITERATIONS ***

 final structure:
================
25
 xtb: 6.6.1 (8d0f1dd)
C            3.71002698941942        0.80447484628693       -0.40630556481007
N            2.61326516715562       -0.07854389966105       -0.13033960560148
C            2.67491654901645       -1.39432044489299        0.09566072771933
N            1.42014643696000       -1.88967902645876        0.27122408284657
C            0.53748323709655       -0.85718771354245        0.14746180624953
C            1.28483042649920        0.29141438045794       -0.10342925806112
C            0.67489435191426        1.58521344530065       -0.26629073755466
O            1.24694292131826        2.63482093369056       -0.43738654071308
N           -2.75824311084900        0.29151794824710        0.08293981486142
C           -3.61905019836570        1.40828677189817       -0.09975420705481
C           -1.48630958510677        0.34081296558800        0.03694558574282
O           -0.73711991091681        1.47120889254155       -0.18344055715700
N           -0.80955150802512       -0.86983480145105        0.23148127282320
C           -1.54126708347253       -2.09349573744130        0.48171521030087
H            4.63210745732629        0.38814973485048       -0.00693906862571
H            3.81821459092337        0.94708135377366       -1.48419617382838
H            3.51208886003712        1.77917231617714        0.03873210786026
H            3.57216913341252       -1.97641311680865        0.13735530194831
H           -3.24008041155465        2.31335505436476        0.38318473984031
H           -3.74213162680123        1.61551217139447       -1.16738064946472
H           -4.59243399167666        1.14248768833186        0.31499029775233
H           -1.36645791131786       -2.44110136299916        1.50271337638916
H           -1.24198552786852       -2.86312159635560       -0.23220953979603
H           -2.60145302293959       -1.87740010156515        0.35684569495652
H            1.19942928192213       -2.85417216016523        0.46759350127483

          :  Hamiltonian                  GFN2-xTB          :
         :: total energy             -42.227256475332 Eh    ::
         :: gradient norm              0.003316629702 Eh/a0 ::
         :: HOMO-LUMO gap              2.770031981698 eV    ::
         :: SCC energy               -42.735927195395 Eh    ::
         :: -> dispersion             -0.021761359346 Eh    ::
         :: repulsion energy           0.508433769999 Eh    ::

    * Orbital Energies and Occupations

         #    Occupation            Energy/Eh            Energy/eV
      -------------------------------------------------------------
         1        2.0000           -0.9032912             -24.5798
       ...           ...                  ...                  ...
        25        1.9993           -0.6624208             -18.0254
        26        1.9990           -0.6556657             -17.8416
        27        1.9989           -0.6533221             -17.7778
        28        1.9973           -0.6316496             -17.1881
        29        1.9969           -0.6280031             -17.0888
        30        1.9965           -0.6252484             -17.0139
        31        1.9960           -0.6219041             -16.9229
        32        1.9938           -0.6116891             -16.6449
        33        1.9932           -0.6096233             -16.5887
        34        1.9714           -0.5750736             -15.6486
        35        1.9649           -0.5701668             -15.5150
        36        1.8520           -0.5345663             -14.5463
        37        1.8415           -0.5327971             -14.4981 (HOMO)
        38        0.2757           -0.4310003             -11.7281 (LUMO)
        39        0.0975           -0.4039841             -10.9930
        40        0.0268           -0.3724509             -10.1349
        41        0.0010           -0.2938313              -7.9956
        42        0.0000           -0.2017581              -5.4901
        43        0.0000           -0.1975485              -5.3756
        44        0.0000           -0.1619858              -4.4079
        45        0.0000           -0.1428858              -3.8881
        46        0.0000           -0.0863116              -2.3487
        47                         -0.0517802              -1.4090
        48                         -0.0390601              -1.0629
       ...                                ...                  ...
        67                          0.5219239              14.2023
      -------------------------------------------------------------
                  HL-Gap            0.1017968 Eh            2.7700 eV

     #   Z          covCN         q      C6AA      α(0)
     1   6 C        3.691    -0.088    22.376     6.769
     2   7 N        2.821     0.068    20.051     6.651
     3   6 C        3.037     0.041    27.041     8.529
     4   7 N        2.784    -0.067    22.543     7.052
     5   6 C        3.034     0.113    25.469     8.278
     6   6 C        3.093    -0.025    28.504     8.750
     7   6 C        2.693     0.338    21.254     7.545
     8   8 O        0.857    -0.320    20.155     6.019
     9   7 N        1.836    -0.207    26.324     7.603
    10   6 C        3.700    -0.038    21.408     6.617
    11   6 C        2.730     0.276    22.337     7.737
    12   8 O        1.704    -0.254    18.206     5.761
    13   7 N        2.749    -0.036    21.933     6.956
    14   6 C        3.696    -0.083    22.263     6.750
    15   1 H        0.925     0.103     1.761     2.075
    16   1 H        0.924     0.113     1.673     2.023
    17   1 H        0.925     0.128     1.551     1.948
    18   1 H        0.926     0.119     1.622     1.991
    19   1 H        0.924     0.087     1.905     2.158
    20   1 H        0.924     0.097     1.813     2.106
    21   1 H        0.924     0.102     1.769     2.080
    22   1 H        0.924     0.092     1.856     2.130
    23   1 H        0.924     0.088     1.903     2.157
    24   1 H        0.925     0.127     1.556     1.951
    25   1 H        0.860     0.225     0.987     1.556

Wiberg/Mayer (AO) data.
largest (>0.10) Wiberg bond orders for each atom

     #   Z sym  total        # sym  WBO       # sym  WBO       # sym  WBO
 ---------------------------------------------------------------------------
     1   6 C    3.916 --     2 N    0.993    15 H    0.970    17 H    0.957
                            16 H    0.949
     2   7 N    3.601 --     3 C    1.344     6 C    1.142     1 C    0.993
     3   6 C    3.731 --     2 N    1.344     4 N    1.239    18 H    0.955
     4   7 N    3.538 --     3 C    1.239     5 C    1.189    25 H    0.921
     5   6 C    3.872 --     6 C    1.315    13 N    1.196     4 N    1.189
     6   6 C    3.845 --     5 C    1.315     2 N    1.142     7 C    1.098
     7   6 C    3.838 --     8 O    1.723     6 C    1.098    12 O    0.949
     8   8 O    2.002 --     7 C    1.723    12 O    0.121
     9   7 N    2.940 --    11 C    1.647    10 C    1.041    12 O    0.103
    10   6 C    3.898 --     9 N    1.041    21 H    0.951    19 H    0.940
                            20 H    0.930
    11   6 C    3.880 --     9 N    1.647    13 N    1.070    12 O    1.041
    12   8 O    2.303 --    11 C    1.041     7 C    0.949     8 O    0.121
                             9 N    0.103
    13   7 N    3.500 --     5 C    1.196    11 C    1.070    14 C    0.978
    14   6 C    3.915 --    13 N    0.978    23 H    0.968    22 H    0.965
                            24 H    0.959
    15   1 H    0.986 --     1 C    0.970
    16   1 H    0.977 --     1 C    0.949
    17   1 H    0.979 --     1 C    0.957
    18   1 H    0.985 --     3 C    0.955
    19   1 H    0.956 --    10 C    0.940
    20   1 H    0.959 --    10 C    0.930
    21   1 H    0.964 --    10 C    0.951
    22   1 H    0.982 --    14 C    0.965
    23   1 H    0.985 --    14 C    0.968
    24   1 H    0.981 --    14 C    0.959
    25   1 H    0.949 --     4 N    0.921
 ---------------------------------------------------------------------------

molecular dipole:
                 x           y           z       tot (Debye)
 q only:        1.389      -2.552       0.287
   full:        1.591      -2.794       0.304       8.209

           -------------------------------------------------
          | TOTAL ENERGY              -42.227256475332 Eh   |
          | GRADIENT NORM               0.003316629702 Eh/α |
          | HOMO-LUMO GAP               2.770031981698 eV   |
           -------------------------------------------------

 * finished run on 2024/06/05 at 19:58:52.456
