   * xtb version 6.6.1 (8d0f1dd) compiled by 'conda@1efc2f54142f' on 2023-08-01
          program call               : xtb xtbopt.xyz --opt crude --input .xc2 --gfn2

   ID    Z sym.   atoms
    1    6 C      1, 3, 5-7, 10, 11, 14
    2    7 N      2, 4, 9, 13
    3    8 O      8, 12
    4    1 H      15-25
########################################################################
[WARNING] Please study the warnings concerning your input carefully
-1- readin_getIntValue: could not parse ''
########################################################################

          :  Hamiltonian                  GFN2-xTB          :
 * total energy  :   -42.2274570 Eh     change       -0.5897505E-12 Eh
 * total energy  :   -42.2294223 Eh     change       -0.1965372E-02 Eh
 * total energy  :   -42.2299855 Eh     change       -0.5631868E-03 Eh
 * total energy  :   -42.2300517 Eh     change       -0.6618873E-04 Eh
   *** GEOMETRY OPTIMIZATION CONVERGED AFTER 4 ITERATIONS ***

 final structure:
================
25
 xtb: 6.6.1 (8d0f1dd)
C            3.69792647039729        0.81734374983266       -0.40212686638778
N            2.60889249899954       -0.07641495311640       -0.12957586608744
C            2.68381133897112       -1.39180399996943        0.10074794545286
N            1.43250696875663       -1.90063918349433        0.27146211482997
C            0.54095586947545       -0.87779436762572        0.14157079075574
C            1.27663862524836        0.27868711242920       -0.11130942666706
C            0.63041711414974        1.55541381528826       -0.26758817487418
O            1.13009440169795        2.63121930213669       -0.44423225618674
N           -2.73450148474131        0.31488736848279        0.07548447794926
C           -3.57888884580788        1.44323955345650       -0.10183698456669
C           -1.47311576765675        0.31722327793777        0.03259184145392
O           -0.75330958804983        1.44141194168398       -0.18428720358095
N           -0.80680079566168       -0.89730870895786        0.22214962034416
C           -1.54590883024490       -2.11315845162132        0.48100561016523
H            4.62144146183996        0.41241005192810        0.00616550638726
H            3.81302796696620        0.95638991904138       -1.47974172328916
H            3.48651053160012        1.79153813121766        0.03842268498153
H            3.58586231608330       -1.96566583584292        0.14810489178226
H           -3.17966328728308        2.34721438232257        0.36609163659814
H           -3.71965693692130        1.63913444325142       -1.16804381925369
H           -4.54722822428159        1.19510814261300        0.33386225063553
H           -1.36051733823912       -2.46359163172312        1.49753026472796
H           -1.26529663843421       -2.88483115243292       -0.23615805652540
H           -2.60358083064794       -1.88512978779945        0.37086778695952
H            1.22081451789066       -2.86664457747662        0.47001457229414

          :  Hamiltonian                  GFN2-xTB          :
         :: total energy             -42.230051720025 Eh    ::
         :: gradient norm              0.002687216585 Eh/a0 ::
         :: HOMO-LUMO gap              2.734154778295 eV    ::
         :: SCC energy               -42.749167105425 Eh    ::
         :: -> dispersion             -0.021813881666 Eh    ::
         :: repulsion energy           0.519077694827 Eh    ::

    * Orbital Energies and Occupations

         #    Occupation            Energy/Eh            Energy/eV
      -------------------------------------------------------------
         1        2.0000           -0.9035824             -24.5877
       ...           ...                  ...                  ...
        25        1.9993           -0.6635688             -18.0566
        26        1.9990           -0.6544815             -17.8093
        27        1.9989           -0.6522245             -17.7479
        28        1.9975           -0.6319792             -17.1970
        29        1.9971           -0.6281554             -17.0930
        30        1.9967           -0.6254465             -17.0193
        31        1.9962           -0.6218268             -16.9208
        32        1.9943           -0.6121863             -16.6584
        33        1.9936           -0.6096947             -16.5906
        34        1.9727           -0.5748092             -15.6414
        35        1.9673           -0.5705146             -15.5245
        36        1.8588           -0.5344001             -14.5418
        37        1.8330           -0.5300796             -14.4242 (HOMO)
        38        0.2753           -0.4296012             -11.6900 (LUMO)
        39        0.0968           -0.4024316             -10.9507
        40        0.0242           -0.3686526             -10.0315
        41        0.0009           -0.2892047              -7.8697
        42        0.0000           -0.1974826              -5.3738
        43        0.0000           -0.1914326              -5.2091
        44        0.0000           -0.1476866              -4.0188
        45        0.0000           -0.1296481              -3.5279
        46        0.0000           -0.0851777              -2.3178
        47                         -0.0484015              -1.3171
        48                         -0.0385639              -1.0494
       ...                                ...                  ...
        67                          0.5534894              15.0612
      -------------------------------------------------------------
                  HL-Gap            0.1004783 Eh            2.7342 eV

     #   Z          covCN         q      C6AA      α(0)
     1   6 C        3.691    -0.087    22.361     6.767
     2   7 N        2.820     0.068    20.061     6.652
     3   6 C        3.037     0.040    27.064     8.533
     4   7 N        2.783    -0.068    22.553     7.053
     5   6 C        3.038     0.113    25.476     8.279
     6   6 C        3.092    -0.028    28.591     8.764
     7   6 C        2.700     0.340    21.230     7.541
     8   8 O        0.857    -0.324    20.228     6.030
     9   7 N        1.835    -0.209    26.379     7.611
    10   6 C        3.700    -0.038    21.419     6.619
    11   6 C        2.738     0.278    22.288     7.730
    12   8 O        1.708    -0.239    17.954     5.721
    13   7 N        2.747    -0.039    22.005     6.967
    14   6 C        3.696    -0.082    22.240     6.746
    15   1 H        0.925     0.103     1.762     2.076
    16   1 H        0.924     0.112     1.678     2.026
    17   1 H        0.925     0.126     1.568     1.958
    18   1 H        0.927     0.118     1.627     1.995
    19   1 H        0.924     0.087     1.905     2.158
    20   1 H        0.924     0.097     1.808     2.103
    21   1 H        0.924     0.102     1.763     2.077
    22   1 H        0.924     0.092     1.863     2.135
    23   1 H        0.925     0.088     1.899     2.155
    24   1 H        0.925     0.126     1.568     1.958
    25   1 H        0.860     0.225     0.989     1.558

Wiberg/Mayer (AO) data.
largest (>0.10) Wiberg bond orders for each atom

     #   Z sym  total        # sym  WBO       # sym  WBO       # sym  WBO
 ---------------------------------------------------------------------------
     1   6 C    3.917 --     2 N    0.993    15 H    0.971    17 H    0.959
                            16 H    0.950
     2   7 N    3.597 --     3 C    1.341     6 C    1.143     1 C    0.993
     3   6 C    3.725 --     2 N    1.341     4 N    1.236    18 H    0.955
     4   7 N    3.537 --     3 C    1.236     5 C    1.190    25 H    0.921
     5   6 C    3.872 --     6 C    1.316    13 N    1.193     4 N    1.190
     6   6 C    3.845 --     5 C    1.316     2 N    1.143     7 C    1.091
     7   6 C    3.845 --     8 O    1.719     6 C    1.091    12 O    0.968
     8   8 O    1.998 --     7 C    1.719    12 O    0.119
     9   7 N    2.941 --    11 C    1.650    10 C    1.040    12 O    0.101
    10   6 C    3.898 --     9 N    1.040    21 H    0.950    19 H    0.940
                            20 H    0.932
    11   6 C    3.886 --     9 N    1.650    13 N    1.067    12 O    1.050
    12   8 O    2.328 --    11 C    1.050     7 C    0.968     8 O    0.119
                             9 N    0.101
    13   7 N    3.497 --     5 C    1.193    11 C    1.067    14 C    0.978
    14   6 C    3.916 --    13 N    0.978    23 H    0.968    22 H    0.965
                            24 H    0.961
    15   1 H    0.986 --     1 C    0.971
    16   1 H    0.977 --     1 C    0.950
    17   1 H    0.979 --     1 C    0.959
    18   1 H    0.985 --     3 C    0.955
    19   1 H    0.956 --    10 C    0.940
    20   1 H    0.962 --    10 C    0.932
    21   1 H    0.963 --    10 C    0.950
    22   1 H    0.983 --    14 C    0.965
    23   1 H    0.985 --    14 C    0.968
    24   1 H    0.982 --    14 C    0.961
    25   1 H    0.949 --     4 N    0.921
 ---------------------------------------------------------------------------

molecular dipole:
                 x           y           z       tot (Debye)
 q only:        1.401      -2.523       0.294
   full:        1.634      -2.804       0.319       8.288

           -------------------------------------------------
          | TOTAL ENERGY              -42.230051720025 Eh   |
          | GRADIENT NORM               0.002687216585 Eh/α |
          | HOMO-LUMO GAP               2.734154778295 eV   |
           -------------------------------------------------

 * finished run on 2024/06/05 at 19:58:52.668
