   * xtb version 6.6.1 (8d0f1dd) compiled by 'conda@1efc2f54142f' on 2023-08-01
          program call               : xtb struc.xyz --opt loose --input .xc1 --gfn2

   ID    Z sym.   atoms
    1    6 C      1, 3, 5-7, 10, 11, 14
    2    7 N      2, 4, 9, 13
    3    8 O      8, 12
    4    1 H      15-25
constraining bond 5 13 to    3.9200000 Å, actual value:    1.3391347 Å

          :  Hamiltonian                  GFN2-xTB          :
 * total energy  :   -18.4614791 Eh     change       -0.6650680E-10 Eh
 * total energy  :   -28.3706475 Eh     change       -0.9909168E+01 Eh
 * total energy  :   -35.0955864 Eh     change       -0.6724939E+01 Eh
 * total energy  :   -39.2261755 Eh     change       -0.4130589E+01 Eh
 * total energy  :   -40.9843482 Eh     change       -0.1758173E+01 Eh
 * total energy  :   -41.3159846 Eh     change       -0.3316364E+00 Eh
 * total energy  :   -41.3859782 Eh     change       -0.6999364E-01 Eh
 * total energy  :   -41.4403169 Eh     change       -0.5433863E-01 Eh
 * total energy  :   -41.5085133 Eh     change       -0.6819648E-01 Eh
 * total energy  :   -41.5183321 Eh     change       -0.9818718E-02 Eh
 * total energy  :   -41.9252903 Eh     change       -0.2540909E-03 Eh
 * total energy  :   -41.9255176 Eh     change       -0.2272830E-03 Eh
 * total energy  :   -41.9257741 Eh     change       -0.2564756E-03 Eh
 * total energy  :   -41.9259416 Eh     change       -0.1674701E-03 Eh
 * total energy  :   -41.9261153 Eh     change       -0.1737343E-03 Eh
 * total energy  :   -41.9262244 Eh     change       -0.1091423E-03 Eh
 * total energy  :   -41.9263731 Eh     change       -0.1486456E-03 Eh
 * total energy  :   -41.9264433 Eh     change       -0.7023125E-04 Eh
 * total energy  :   -41.9264921 Eh     change       -0.4879607E-04 Eh
   *** GEOMETRY OPTIMIZATION CONVERGED AFTER 55 ITERATIONS ***

 final structure:
================
25
 xtb: 6.6.1 (8d0f1dd)
C            3.24086621970869        1.04429517739566       -0.59661495683779
N            2.29913758715572        0.16781451460413        0.00538274062785
C            2.46656833656128       -0.94223789442829        0.90082332265516
N            1.54918019892778       -2.01224969588244        0.49376653658896
C            0.97992346389636       -0.90017298866559        1.17170689416048
C            0.95039108648922        0.20855219060478        0.16029670304232
C            0.04788658518247        1.11861595690244       -0.39863934060496
O            0.24587637947135        2.03312397788694       -1.15999423178023
N           -1.38487943919460        0.91757671577160        0.06631110916633
C           -1.97909027572980        2.03349678726842        0.78534962883066
C           -2.08046302946194       -0.06624726592019       -0.32959783295387
O           -3.30349185729156       -0.51392281717761       -0.26802106981047
N           -2.20036652066997       -1.15129143635961       -1.10501726558432
C           -1.78931424103987       -2.47453499580148       -0.74914625661942
H            3.84169944596725        1.55196872533440        0.16518961325625
H            3.91961157312927        0.47435532280082       -1.23721300061981
H            2.70807535973410        1.78838451928505       -1.18819324767202
H            3.35665255998519       -1.10369582260384        1.47806310508405
H           -1.70985175807132        2.95247046513653        0.26259890014608
H           -3.06357441055290        1.92818153570726        0.81946695700978
H           -1.57742083819425        2.06071531797997        1.80077573403318
H           -1.77894001942598       -2.65484704963700        0.32803996777614
H           -0.78170938001654       -2.59298447582667       -1.15022787324764
H           -2.45799321206236       -3.17703600705587       -1.24374192294189
H            1.66165769960254       -2.87209221572073        1.01980740419367

          :  Hamiltonian                  GFN2-xTB          :
         :: total energy             -41.926492106426 Eh    ::
         :: gradient norm              0.003743422542 Eh/a0 ::
         :: HOMO-LUMO gap              0.908174805594 eV    ::
         :: SCC energy               -42.405934789981 Eh    ::
         :: -> dispersion             -0.020759997327 Eh    ::
         :: repulsion energy           0.479205403196 Eh    ::

    * Orbital Energies and Occupations

         #    Occupation            Energy/Eh            Energy/eV
      -------------------------------------------------------------
         1        2.0000           -0.9609378             -26.1484
       ...           ...                  ...                  ...
        25        1.9999           -0.6609899             -17.9865
        26        1.9999           -0.6527352             -17.7618
        27        1.9998           -0.6473901             -17.6164
        28        1.9997           -0.6396184             -17.4049
        29        1.9997           -0.6377199             -17.3532
        30        1.9996           -0.6333477             -17.2343
        31        1.9992           -0.6230474             -16.9540
        32        1.9988           -0.6159786             -16.7616
        33        1.9949           -0.5934056             -16.1474
        34        1.9931           -0.5887266             -16.0201
        35        1.9898           -0.5823867             -15.8475
        36        1.8870           -0.5434939             -14.7892
        37        1.5334           -0.5177577             -14.0889 (HOMO)
        38        0.5708           -0.4843829             -13.1807 (LUMO)
        39        0.0311           -0.4332345             -11.7889
        40        0.0031           -0.3963079             -10.7841
        41        0.0003           -0.3578999              -9.7390
        42        0.0000           -0.2584755              -7.0335
        43        0.0000           -0.2370181              -6.4496
        44                         -0.2144436              -5.8353
        45                         -0.1689779              -4.5981
        46                         -0.1035769              -2.8185
        47                         -0.0827469              -2.2517
        48                         -0.0730827              -1.9887
       ...                                ...                  ...
        67                          0.5979061              16.2699
      -------------------------------------------------------------
                  HL-Gap            0.0333748 Eh            0.9082 eV

     #   Z          covCN         q      C6AA      α(0)
     1   6 C        3.683    -0.076    22.178     6.743
     2   7 N        2.978     0.022    20.857     6.783
     3   6 C        4.121     0.093    18.972     6.187
     4   7 N        2.698    -0.186    25.031     7.431
     5   6 C        3.107    -0.064    29.447     8.891
     6   6 C        3.294     0.022    25.865     8.155
     7   6 C        2.752     0.251    22.789     7.817
     8   8 O        0.857    -0.321    20.167     6.021
     9   7 N        2.723    -0.027    21.762     6.928
    10   6 C        3.705    -0.068    21.963     6.700
    11   6 C        2.714     0.323    21.509     7.592
    12   8 O        1.723    -0.171    16.886     5.548
    13   7 N        2.687     0.002    21.226     6.843
    14   6 C        3.689    -0.067    21.981     6.710
    15   1 H        0.924     0.101     1.775     2.083
    16   1 H        0.924     0.106     1.729     2.056
    17   1 H        0.925     0.115     1.655     2.012
    18   1 H        0.926     0.076     2.018     2.221
    19   1 H        0.924     0.127     1.560     1.953
    20   1 H        0.925     0.108     1.713     2.047
    21   1 H        0.924     0.109     1.706     2.043
    22   1 H        0.924     0.085     1.924     2.169
    23   1 H        0.924     0.120     1.613     1.986
    24   1 H        0.925     0.124     1.581     1.966
    25   1 H        0.860     0.196     1.126     1.662

Wiberg/Mayer (AO) data.
largest (>0.10) Wiberg bond orders for each atom

     #   Z sym  total        # sym  WBO       # sym  WBO       # sym  WBO
 ---------------------------------------------------------------------------
     1   6 C    3.923 --     2 N    1.017    17 H    0.964    16 H    0.945
                            15 H    0.941
     2   7 N    3.412 --     6 C    1.257     1 C    1.017     3 C    1.000
     3   6 C    3.812 --     2 N    1.000    18 H    0.960     4 N    0.919
                             5 C    0.851
     4   7 N    2.926 --     5 C    1.005    25 H    0.929     3 C    0.919
     5   6 C    3.035 --     6 C    1.029     4 N    1.005     3 C    0.851
     6   6 C    3.730 --     2 N    1.257     7 C    1.226     5 C    1.029
     7   6 C    3.826 --     8 O    1.706     6 C    1.226     9 N    0.805
     8   8 O    1.976 --     7 C    1.706
     9   7 N    3.613 --    11 C    1.547    10 C    0.951     7 C    0.805
                            12 O    0.108
    10   6 C    3.904 --    20 H    0.972    21 H    0.961    19 H    0.956
                             9 N    0.951
    11   6 C    3.892 --     9 N    1.547    13 N    1.121    12 O    1.115
    12   8 O    2.180 --    11 C    1.115    13 N    0.844     9 N    0.108
    13   7 N    3.110 --    11 C    1.121    14 C    1.002    12 O    0.844
    14   6 C    3.926 --    13 N    1.002    22 H    0.969    24 H    0.964
                            23 H    0.936
    15   1 H    0.965 --     1 C    0.941
    16   1 H    0.969 --     1 C    0.945
    17   1 H    0.985 --     1 C    0.964
    18   1 H    0.989 --     3 C    0.960
    19   1 H    0.982 --    10 C    0.956
    20   1 H    0.987 --    10 C    0.972
    21   1 H    0.987 --    10 C    0.961
    22   1 H    0.991 --    14 C    0.969
    23   1 H    0.985 --    14 C    0.936
    24   1 H    0.983 --    14 C    0.964
    25   1 H    0.952 --     4 N    0.929
 ---------------------------------------------------------------------------

molecular dipole:
                 x           y           z       tot (Debye)
 q only:        0.459      -0.743       0.538
   full:        0.779      -0.955       0.937       3.934

           -------------------------------------------------
          | TOTAL ENERGY              -41.926492106426 Eh   |
          | GRADIENT NORM               0.003743422542 Eh/α |
          | HOMO-LUMO GAP               0.908174805594 eV   |
           -------------------------------------------------

 * finished run on 2024/06/05 at 19:59:12.472
