   * xtb version 6.6.1 (8d0f1dd) compiled by 'conda@1efc2f54142f' on 2023-08-01
          program call               : xtb struc.xyz --opt loose --input .xc1 --gfn2

   ID    Z sym.   atoms
    1    6 C      1, 3, 5-7, 10, 11, 14
    2    7 N      2, 4, 9, 13
    3    8 O      8, 12
    4    1 H      15-25
constraining bond 2 8 to    5.6800000 Å, actual value:    3.0543308 Å

          :  Hamiltonian                  GFN2-xTB          :
 * total energy  :   -17.6284465 Eh     change       -0.6650680E-10 Eh
 * total energy  :   -27.7805071 Eh     change       -0.1015206E+02 Eh
 * total energy  :   -34.5064605 Eh     change       -0.6725953E+01 Eh
 * total energy  :   -38.9223522 Eh     change       -0.4415892E+01 Eh
 * total energy  :   -41.0995217 Eh     change       -0.2177169E+01 Eh
 * total energy  :   -41.6309042 Eh     change       -0.5313825E+00 Eh
 * total energy  :   -41.6637652 Eh     change       -0.3286098E-01 Eh
 * total energy  :   -41.6828357 Eh     change       -0.1907053E-01 Eh
 * total energy  :   -41.7184944 Eh     change       -0.3565873E-01 Eh
 * total energy  :   -41.7419072 Eh     change       -0.2341274E-01 Eh
 * total energy  :   -42.0782949 Eh     change       -0.1926567E-03 Eh
 * total energy  :   -42.0785464 Eh     change       -0.2514588E-03 Eh
 * total energy  :   -42.0786765 Eh     change       -0.1300904E-03 Eh
 * total energy  :   -42.0788030 Eh     change       -0.1265684E-03 Eh
 * total energy  :   -42.0789031 Eh     change       -0.1000117E-03 Eh
 * total energy  :   -42.0789225 Eh     change       -0.1943469E-04 Eh
 * total energy  :   -42.0790250 Eh     change       -0.1024851E-03 Eh
 * total energy  :   -42.0790590 Eh     change       -0.3400517E-04 Eh
 * total energy  :   -42.0790930 Eh     change       -0.3399076E-04 Eh
   *** GEOMETRY OPTIMIZATION CONVERGED AFTER 66 ITERATIONS ***

 final structure:
================
25
 xtb: 6.6.1 (8d0f1dd)
C            3.55879287514817        0.61667888675019        0.06088123363749
N            3.69588241773745       -0.74921741510890       -0.24122484577335
C            2.76604993455950       -1.58008714140929       -0.36619611580590
N            1.37984738476975       -1.46744147574114       -0.24734318122508
C            0.44000565513360       -0.50433090430666       -0.00192333519244
C            0.59063929134782        0.86213962880348        0.14323515101026
C           -0.50273887145112        1.69284421779612        0.18908210267946
O           -0.50935602498570        2.99018948820857        0.49380730822870
N           -1.74164870520247        1.14895290012117       -0.19776854474707
C           -2.78583344006773        1.88346974102759       -0.58959193198609
C           -1.96424627054356       -0.25739275743585       -0.02536205848246
O           -3.07950796175130       -0.69981688422269       -0.04646056986917
N           -0.84290630856921       -1.02152487853353        0.16967821664700
C           -1.09429810900002       -2.42457568401632        0.47819054241295
H            4.01737703706366        0.81661450538327        1.03184581342597
H            4.09284354754770        1.19852665636456       -0.69229142327825
H            2.47765470620025        0.96255095342465        0.09834832896701
H            3.05792616605883       -2.59678828018328       -0.60469648124294
H           -1.39803030366840        3.33860549853090        0.65245961989816
H           -2.67282852404686        2.92658282643856       -0.82188832414798
H           -3.71530301837364        1.37441920451411       -0.75862115531219
H           -0.39603790757411       -2.77263576641065        1.23740393402316
H           -1.04886082214258       -3.05167041123799       -0.41487435712443
H           -2.10691801864272       -2.49759180995778        0.87316322743439
H            0.94192678455207       -2.37026255719883       -0.38868153627709

          :  Hamiltonian                  GFN2-xTB          :
         :: total energy             -42.079092969845 Eh    ::
         :: gradient norm              0.003848870298 Eh/a0 ::
         :: HOMO-LUMO gap              0.457906909413 eV    ::
         :: SCC energy               -42.594464851067 Eh    ::
         :: -> dispersion             -0.021818529758 Eh    ::
         :: repulsion energy           0.515184250805 Eh    ::

    * Orbital Energies and Occupations

         #    Occupation            Energy/Eh            Energy/eV
      -------------------------------------------------------------
         1        2.0000           -0.8927112             -24.2919
       ...           ...                  ...                  ...
        25        1.9999           -0.6628297             -18.0365
        26        1.9999           -0.6556105             -17.8401
        27        1.9999           -0.6483381             -17.6422
        28        1.9999           -0.6481280             -17.6365
        29        1.9998           -0.6414887             -17.4558
        30        1.9996           -0.6317626             -17.1911
        31        1.9988           -0.6147031             -16.7269
        32        1.9982           -0.6084321             -16.5563
        33        1.9954           -0.5930867             -16.1387
        34        1.9799           -0.5696712             -15.5015
        35        1.9444           -0.5532992             -15.0560
        36        1.9193           -0.5472008             -14.8901
        37        1.3262           -0.5077442             -13.8164 (HOMO)
        38        0.8095           -0.4909164             -13.3585 (LUMO)
        39        0.0274           -0.4293166             -11.6823
        40        0.0016           -0.3845480             -10.4641
        41        0.0005           -0.3642497              -9.9117
        42        0.0000           -0.2991233              -8.1396
        43                         -0.1963282              -5.3424
        44                         -0.1657663              -4.5107
        45                         -0.1439748              -3.9178
        46                         -0.1067357              -2.9044
        47                         -0.0888049              -2.4165
        48                         -0.0406875              -1.1072
       ...                                ...                  ...
        67                          0.5117967              13.9267
      -------------------------------------------------------------
                  HL-Gap            0.0168278 Eh            0.4579 eV

     #   Z          covCN         q      C6AA      α(0)
     1   6 C        3.697    -0.054    21.721     6.666
     2   7 N        1.821    -0.117    24.314     7.306
     3   6 C        2.769     0.109    25.575     8.282
     4   7 N        2.692    -0.112    23.443     7.191
     5   6 C        2.834     0.136    25.025     8.198
     6   6 C        1.982    -0.141    35.031     9.558
     7   6 C        2.782     0.210    23.551     7.949
     8   8 O        1.660    -0.317    19.316     5.933
     9   7 N        2.742    -0.017    21.576     6.899
    10   6 C        2.802    -0.038    28.925     8.811
    11   6 C        2.742     0.314    21.668     7.622
    12   8 O        0.859    -0.357    20.842     6.121
    13   7 N        2.751    -0.071    22.613     7.063
    14   6 C        3.703    -0.071    22.025     6.710
    15   1 H        0.924     0.109     1.708     2.044
    16   1 H        0.924     0.111     1.689     2.032
    17   1 H        0.916     0.106     1.732     2.058
    18   1 H        0.925     0.097     1.813     2.106
    19   1 H        0.805     0.346     0.598     1.215
    20   1 H        0.926     0.107     1.722     2.052
    21   1 H        0.926     0.134     1.502     1.916
    22   1 H        0.925     0.088     1.902     2.157
    23   1 H        0.924     0.086     1.920     2.167
    24   1 H        0.925     0.123     1.587     1.970
    25   1 H        0.860     0.220     1.009     1.574

Wiberg/Mayer (AO) data.
largest (>0.10) Wiberg bond orders for each atom

     #   Z sym  total        # sym  WBO       # sym  WBO       # sym  WBO
 ---------------------------------------------------------------------------
     1   6 C    3.827 --     2 N    1.084    16 H    0.935    15 H    0.934
                            17 H    0.811
     2   7 N    3.056 --     3 C    1.781     1 C    1.084
     3   6 C    3.932 --     2 N    1.781     4 N    1.105    18 H    0.941
     4   7 N    3.462 --     5 C    1.204     3 C    1.105    25 H    0.907
     5   6 C    3.835 --     6 C    1.375     4 N    1.204    13 N    1.105
     6   6 C    3.258 --     7 C    1.438     5 C    1.375    17 H    0.122
     7   6 C    3.813 --     6 C    1.438     8 O    1.164     9 N    1.051
     8   8 O    2.190 --     7 C    1.164    19 H    0.844
     9   7 N    3.593 --    10 C    1.360     7 C    1.051    11 C    0.976
    10   6 C    3.402 --     9 N    1.360    20 H    0.960    21 H    0.955
    11   6 C    3.917 --    12 O    1.703    13 N    1.152     9 N    0.976
    12   8 O    2.016 --    11 C    1.703    13 N    0.148
    13   7 N    3.539 --    11 C    1.152     5 C    1.105    14 C    0.970
                            12 O    0.148
    14   6 C    3.924 --    22 H    0.971    13 N    0.970    23 H    0.962
                            24 H    0.959
    15   1 H    0.975 --     1 C    0.934
    16   1 H    0.966 --     1 C    0.935
    17   1 H    0.944 --     1 C    0.811     6 C    0.122
    18   1 H    0.984 --     3 C    0.941
    19   1 H    0.879 --     8 O    0.844
    20   1 H    0.987 --    10 C    0.960
    21   1 H    0.978 --    10 C    0.955
    22   1 H    0.990 --    14 C    0.971
    23   1 H    0.989 --    14 C    0.962
    24   1 H    0.981 --    14 C    0.959
    25   1 H    0.950 --     4 N    0.907
 ---------------------------------------------------------------------------

molecular dipole:
                 x           y           z       tot (Debye)
 q only:        0.594      -0.045      -0.036
   full:       -0.005      -0.067      -0.078       0.261

           -------------------------------------------------
          | TOTAL ENERGY              -42.079092969845 Eh   |
          | GRADIENT NORM               0.003848870298 Eh/α |
          | HOMO-LUMO GAP               0.457906909413 eV   |
           -------------------------------------------------

 * finished run on 2024/06/05 at 19:59:07.407
