   * xtb version 6.6.1 (8d0f1dd) compiled by 'conda@1efc2f54142f' on 2023-08-01
          program call               : xtb xtbopt.xyz --opt crude --input .xc2 --gfn2

   ID    Z sym.   atoms
    1    6 C      1, 3, 5-7, 10, 11, 14
    2    7 N      2, 4, 9, 13
    3    8 O      8, 12
    4    1 H      15-25
########################################################################
[WARNING] Please study the warnings concerning your input carefully
-1- readin_getIntValue: could not parse ''
########################################################################

          :  Hamiltonian                  GFN2-xTB          :
 * total energy  :   -42.0791765 Eh     change       -0.9123369E-11 Eh
 * total energy  :   -42.0833872 Eh     change       -0.4210669E-02 Eh
 * total energy  :   -42.0878014 Eh     change       -0.4414217E-02 Eh
 * total energy  :   -42.0907896 Eh     change       -0.2988149E-02 Eh
 * total energy  :   -42.0941202 Eh     change       -0.3330617E-02 Eh
 * total energy  :   -42.1000121 Eh     change       -0.5891951E-02 Eh
 * total energy  :   -42.0946016 Eh     change        0.5410487E-02 Eh
 * total energy  :   -42.1043209 Eh     change       -0.9719257E-02 Eh
 * total energy  :   -42.1011734 Eh     change        0.3147523E-02 Eh
 * total energy  :   -42.1085421 Eh     change       -0.7368727E-02 Eh
 * total energy  :   -42.1118725 Eh     change       -0.3330346E-02 Eh
 * total energy  :   -42.1154011 Eh     change       -0.3528655E-02 Eh
 * total energy  :   -42.1199149 Eh     change       -0.4513752E-02 Eh
 * total energy  :   -42.1224765 Eh     change       -0.2561606E-02 Eh
 * total energy  :   -42.1239255 Eh     change       -0.1449083E-02 Eh
 * total energy  :   -42.1253422 Eh     change       -0.1416635E-02 Eh
 * total energy  :   -42.1262622 Eh     change       -0.9200087E-03 Eh
 * total energy  :   -42.1264535 Eh     change       -0.1913596E-03 Eh
 * total energy  :   -42.1266368 Eh     change       -0.1832440E-03 Eh
   *** GEOMETRY OPTIMIZATION CONVERGED AFTER 19 ITERATIONS ***

 final structure:
================
25
 xtb: 6.6.1 (8d0f1dd)
C            3.83630050860600        0.62402025334424        0.09337300051714
N            3.49746438427074       -0.48062977323676       -0.44091321206507
C            2.74994226774732       -1.51606393862294       -0.31037859443861
N            1.41680500520660       -1.59333729244219       -0.02942026492973
C            0.44098608769284       -0.63409548544613        0.04614072380192
C            0.64802045613968        0.73899095284463        0.02940422718172
C           -0.42296519640100        1.61229889188061       -0.01316199522979
O           -0.18510429048092        2.92292539186004       -0.01572369163470
N           -1.70857037602692        1.13840541257607       -0.09658526286090
C           -2.78754987117470        1.91382023861593       -0.29507469148036
C           -1.96027501946872       -0.26290999538668        0.06724105116457
O           -3.08990164396592       -0.66705398156493        0.12679262617832
N           -0.86182789266847       -1.08703169141609        0.14374991652269
C           -1.15798182377721       -2.50357757703400        0.31166890519278
H            3.65695046233317        0.86523873962145        1.13958207051607
H            4.42076022708033        1.31022176280928       -0.50432994609617
H            1.62843458007358        1.17228611261032        0.04074421053367
H            3.18938677425059       -2.46442923616332       -0.58646113089989
H           -0.98179193837995        3.45297643124061        0.13495676821238
H           -2.69495519556833        2.95235142808303       -0.53984286440354
H           -3.74565847726168        1.43164010297343       -0.29381001243641
H           -0.61340878131807       -2.91282062325905        1.16430481472192
H           -0.94381029977845       -3.06444079360055       -0.60120197261105
H           -2.22685408011835       -2.59077756089391        0.51359081034299
H            1.05603564708748       -2.53976922779262       -0.05347386789991

          :  Hamiltonian                  GFN2-xTB          :
         :: total energy             -42.126636793758 Eh    ::
         :: gradient norm              0.008487064166 Eh/a0 ::
         :: HOMO-LUMO gap              0.876688977995 eV    ::
         :: SCC energy               -42.671576610220 Eh    ::
         :: -> dispersion             -0.022062071537 Eh    ::
         :: repulsion energy           0.544849077887 Eh    ::

    * Orbital Energies and Occupations

         #    Occupation            Energy/Eh            Energy/eV
      -------------------------------------------------------------
         1        2.0000           -0.8848932             -24.0792
       ...           ...                  ...                  ...
        25        2.0000           -0.6693725             -18.2146
        26        2.0000           -0.6547065             -17.8155
        27        2.0000           -0.6493818             -17.6706
        28        2.0000           -0.6436974             -17.5159
        29        1.9999           -0.6332732             -17.2322
        30        1.9999           -0.6274261             -17.0731
        31        1.9998           -0.6166419             -16.7797
        32        1.9998           -0.6126062             -16.6699
        33        1.9996           -0.6012800             -16.3617
        34        1.9981           -0.5766275             -15.6908
        35        1.9961           -0.5655884             -15.3904
        36        1.9928           -0.5558529             -15.1255
        37        1.4455           -0.4818778             -13.1126 (HOMO)
        38        0.5083           -0.4496601             -12.2359 (LUMO)
        39        0.0479           -0.4079864             -11.1019
        40        0.0094           -0.3818820             -10.3915
        41        0.0028           -0.3629405              -9.8761
        42        0.0000           -0.2865701              -7.7980
        43                         -0.1903277              -5.1791
        44                         -0.1487106              -4.0466
        45                         -0.1271743              -3.4606
        46                         -0.0965318              -2.6268
        47                         -0.0800182              -2.1774
        48                         -0.0544042              -1.4804
       ...                                ...                  ...
        67                          0.5867588              15.9665
      -------------------------------------------------------------
                  HL-Gap            0.0322177 Eh            0.8767 eV

     #   Z          covCN         q      C6AA      α(0)
     1   6 C        2.771     0.002    27.966     8.661
     2   7 N        1.823    -0.063    23.192     7.136
     3   6 C        2.760     0.083    26.136     8.372
     4   7 N        2.690    -0.094    23.091     7.137
     5   6 C        2.836     0.108    25.615     8.294
     6   6 C        2.907    -0.103    30.600     9.071
     7   6 C        2.788     0.193    23.873     8.003
     8   8 O        1.661    -0.338    19.679     5.989
     9   7 N        2.739    -0.006    21.385     6.868
    10   6 C        2.808    -0.068    29.672     8.924
    11   6 C        2.743     0.309    21.757     7.637
    12   8 O        0.859    -0.368    21.045     6.151
    13   7 N        2.746    -0.058    22.358     7.023
    14   6 C        3.704    -0.077    22.130     6.726
    15   1 H        0.925     0.090     1.883     2.146
    16   1 H        0.925     0.112     1.675     2.024
    17   1 H        0.926     0.103     1.756     2.072
    18   1 H        0.926     0.106     1.733     2.059
    19   1 H        0.804     0.344     0.602     1.219
    20   1 H        0.926     0.085     1.926     2.170
    21   1 H        0.926     0.122     1.598     1.977
    22   1 H        0.924     0.083     1.953     2.185
    23   1 H        0.924     0.082     1.956     2.187
    24   1 H        0.924     0.130     1.538     1.939
    25   1 H        0.860     0.224     0.990     1.559

Wiberg/Mayer (AO) data.
largest (>0.10) Wiberg bond orders for each atom

     #   Z sym  total        # sym  WBO       # sym  WBO       # sym  WBO
 ---------------------------------------------------------------------------
     1   6 C    3.682 --     2 N    1.673    16 H    0.952    15 H    0.937
     2   7 N    3.307 --     1 C    1.673     3 C    1.494
     3   6 C    3.756 --     2 N    1.494     4 N    1.197    18 H    0.932
     4   7 N    3.507 --     3 C    1.197     5 C    1.165    25 H    0.904
     5   6 C    3.823 --     6 C    1.346     4 N    1.165    13 N    1.132
     6   6 C    3.921 --     7 C    1.374     5 C    1.346    17 H    0.942
     7   6 C    3.816 --     6 C    1.374     8 O    1.141     9 N    1.135
     8   8 O    2.160 --     7 C    1.141    19 H    0.844
     9   7 N    3.642 --    10 C    1.304     7 C    1.135    11 C    0.982
    10   6 C    3.431 --     9 N    1.304    20 H    0.963    21 H    0.961
    11   6 C    3.924 --    12 O    1.693    13 N    1.145     9 N    0.982
    12   8 O    2.030 --    11 C    1.693    13 N    0.153
    13   7 N    3.547 --    11 C    1.145     5 C    1.132    14 C    0.976
                            12 O    0.153
    14   6 C    3.930 --    13 N    0.976    22 H    0.969    23 H    0.966
                            24 H    0.958
    15   1 H    0.976 --     1 C    0.937
    16   1 H    0.980 --     1 C    0.952
    17   1 H    0.988 --     6 C    0.942
    18   1 H    0.979 --     3 C    0.932
    19   1 H    0.880 --     8 O    0.844
    20   1 H    0.992 --    10 C    0.963
    21   1 H    0.984 --    10 C    0.961
    22   1 H    0.991 --    14 C    0.969
    23   1 H    0.990 --    14 C    0.966
    24   1 H    0.982 --    14 C    0.958
    25   1 H    0.948 --     4 N    0.904
 ---------------------------------------------------------------------------

molecular dipole:
                 x           y           z       tot (Debye)
 q only:        1.583      -0.339       0.049
   full:        1.456      -0.266       0.132       3.776

           -------------------------------------------------
          | TOTAL ENERGY              -42.126636793758 Eh   |
          | GRADIENT NORM               0.008487064166 Eh/α |
          | HOMO-LUMO GAP               0.876688977995 eV   |
           -------------------------------------------------

 * finished run on 2024/06/05 at 19:59:08.136
