   * xtb version 6.6.1 (8d0f1dd) compiled by 'conda@1efc2f54142f' on 2023-08-01
          program call               : xtb xtbopt.xyz --opt crude --input .xc2 --gfn2

   ID    Z sym.   atoms
    1    6 C      1, 3, 5-7, 10, 11, 14
    2    7 N      2, 4, 9, 13
    3    8 O      8, 12
    4    1 H      15-25

          :  Hamiltonian                  GFN2-xTB          :
 * total energy  :   -42.1411805 Eh     change       -0.2202682E-12 Eh
   *** GEOMETRY OPTIMIZATION CONVERGED AFTER 1 ITERATIONS ***

 final structure:
================
25
 xtb: 6.6.1 (8d0f1dd)
C            3.10652197193680        1.00777684286438       -0.21890238671520
N            2.22770472769796        0.01344055069034       -0.16033696336207
C            2.47806743089339       -1.31902151078688       -0.17186208859096
N            1.30321103000316       -2.01292473697126       -0.10998187206199
C            0.28399939715664       -1.11706855091516       -0.05902490329762
C            0.84274241749205        0.15489784060254       -0.08585668544539
C            0.03416478687693        1.34425725996980       -0.06404695325888
O            0.43803979411031        2.48638057705881       -0.08653063772968
N           -1.33225948239046        1.03165705582181       -0.01221960401827
C           -2.27264263831953        2.13988927505219        0.00136817912307
C           -1.91018869593260       -0.22330802394197        0.01553360888825
O           -3.10256134189366       -0.37849751058051        0.05468163179462
N           -1.04374299492594       -1.33408252570490       -0.00532492845876
C           -1.60967994706026       -2.66641847881320        0.02477177918402
H            4.97000348896607        2.41800793977145        1.62344554114554
H            4.15520434605326        0.78590747978783       -0.28842618795534
H            2.74026149620010        2.01780884728350       -0.21294045679737
H            3.44872749849695       -1.76493611115072       -0.22040789425485
H           -1.70473816601349        3.06807523614191        0.01942482405305
H           -2.90484383048352        2.10223154509202       -0.88726402206199
H           -2.91622435274361        2.07040009932935        0.87929563457675
H           -1.28238973830093       -3.20108518535025        0.91743437372630
H           -1.32627330776754       -3.22306057780336       -0.86941845854968
H           -2.69441496043472       -2.56300811137720        0.04934075093035
H            1.23174258448279       -3.01908068447048       -0.10158066296377

          :  Hamiltonian                  GFN2-xTB          :
         :: total energy             -42.141180482553 Eh    ::
         :: gradient norm              0.002677402682 Eh/a0 ::
         :: HOMO-LUMO gap              0.467994996260 eV    ::
         :: SCC energy               -42.660206782727 Eh    ::
         :: -> dispersion             -0.022721406791 Eh    ::
         :: repulsion energy           0.518930988273 Eh    ::

    * Orbital Energies and Occupations

         #    Occupation            Energy/Eh            Energy/eV
      -------------------------------------------------------------
         1        2.0000           -0.9081901             -24.7131
       ...           ...                  ...                  ...
        25        1.9989           -0.6732837             -18.3210
        26        1.9988           -0.6697049             -18.2236
        27        1.9984           -0.6629744             -18.0405
        28        1.9953           -0.6379896             -17.3606
        29        1.9944           -0.6339330             -17.2502
        30        1.9935           -0.6303740             -17.1533
        31        1.9903           -0.6207961             -16.8927
        32        1.9830           -0.6072939             -16.5253
        33        1.9609           -0.5872346             -15.9795
        34        1.9182           -0.5691865             -15.4884
        35        1.9152           -0.5682978             -15.4642
        36        1.8961           -0.5632463             -15.3267
        37        1.2988           -0.5089117             -13.8482 (HOMO)
        38        0.9462           -0.4917132             -13.3802 (LUMO)
        39        0.0640           -0.4133004             -11.2465
        40        0.0400           -0.4018433             -10.9347
        41        0.0110           -0.3708501             -10.0913
        42        0.0004           -0.2900230              -7.8919
        43        0.0000           -0.2100377              -5.7154
        44        0.0000           -0.1858158              -5.0563
        45        0.0000           -0.1460142              -3.9732
        46        0.0000           -0.1196203              -3.2550
        47                         -0.0815329              -2.2186
        48                         -0.0508450              -1.3836
       ...                                ...                  ...
        67                          0.5400698              14.6960
      -------------------------------------------------------------
                  HL-Gap            0.0171985 Eh            0.4680 eV

     #   Z          covCN         q      C6AA      α(0)
     1   6 C        2.789    -0.073    29.807     8.943
     2   7 N        2.804     0.126    19.090     6.489
     3   6 C        3.033     0.021    27.514     8.604
     4   7 N        2.775    -0.061    22.416     7.032
     5   6 C        3.018     0.115    25.448     8.275
     6   6 C        3.104    -0.033    28.672     8.774
     7   6 C        2.764     0.270    22.447     7.759
     8   8 O        0.858    -0.347    20.653     6.093
     9   7 N        2.746    -0.076    22.715     7.079
    10   6 C        3.709    -0.061    21.825     6.677
    11   6 C        2.728     0.315    21.640     7.616
    12   8 O        0.860    -0.345    20.607     6.086
    13   7 N        2.738    -0.048    22.172     6.993
    14   6 C        3.697    -0.073    22.070     6.720
    15   1 H        0.000     0.024     6.659     4.718
    16   1 H        0.926     0.109     1.708     2.044
    17   1 H        0.926     0.137     1.486     1.906
    18   1 H        0.927     0.120     1.613     1.986
    19   1 H        0.925     0.123     1.589     1.971
    20   1 H        0.924     0.110     1.701     2.039
    21   1 H        0.924     0.111     1.689     2.032
    22   1 H        0.924     0.090     1.876     2.142
    23   1 H        0.924     0.089     1.884     2.146
    24   1 H        0.925     0.131     1.525     1.931
    25   1 H        0.860     0.226     0.981     1.552

Wiberg/Mayer (AO) data.
largest (>0.10) Wiberg bond orders for each atom

     #   Z sym  total        # sym  WBO       # sym  WBO       # sym  WBO
 ---------------------------------------------------------------------------
     1   6 C    3.395 --     2 N    1.325    16 H    0.962    17 H    0.954
     2   7 N    3.741 --     1 C    1.325     3 C    1.236     6 C    1.087
     3   6 C    3.606 --     2 N    1.236     4 N    1.222    18 H    0.955
     4   7 N    3.513 --     3 C    1.222     5 C    1.200    25 H    0.921
     5   6 C    3.894 --     6 C    1.323    13 N    1.203     4 N    1.200
     6   6 C    3.805 --     5 C    1.323     7 C    1.100     2 N    1.087
     7   6 C    3.923 --     8 O    1.659     6 C    1.100     9 N    1.076
     8   8 O    1.957 --     7 C    1.659     9 N    0.123
     9   7 N    3.491 --    11 C    1.125     7 C    1.076    10 C    0.977
                            12 O    0.124     8 O    0.123
    10   6 C    3.873 --     9 N    0.977    19 H    0.956    21 H    0.949
                            20 H    0.948
    11   6 C    3.939 --    12 O    1.681     9 N    1.125    13 N    1.045
    12   8 O    1.997 --    11 C    1.681     9 N    0.124    13 N    0.111
    13   7 N    3.501 --     5 C    1.203    11 C    1.045    14 C    0.978
                            12 O    0.111
    14   6 C    3.907 --    13 N    0.978    23 H    0.964    22 H    0.963
                            24 H    0.959
    15   1 H    0.014
    16   1 H    0.984 --     1 C    0.962
    17   1 H    0.978 --     1 C    0.954
    18   1 H    0.984 --     3 C    0.955
    19   1 H    0.974 --    10 C    0.956
    20   1 H    0.965 --    10 C    0.948
    21   1 H    0.966 --    10 C    0.949
    22   1 H    0.980 --    14 C    0.963
    23   1 H    0.981 --    14 C    0.964
    24   1 H    0.979 --    14 C    0.959
    25   1 H    0.948 --     4 N    0.921
 ---------------------------------------------------------------------------

molecular dipole:
                 x           y           z       tot (Debye)
 q only:        1.817      -1.994      -0.120
   full:        2.068      -2.443      -0.128       8.142

           -------------------------------------------------
          | TOTAL ENERGY              -42.141180482553 Eh   |
          | GRADIENT NORM               0.002677402682 Eh/α |
          | HOMO-LUMO GAP               0.467994996260 eV   |
           -------------------------------------------------

 * finished run on 2024/06/05 at 19:58:43.084
