   * xtb version 6.6.1 (8d0f1dd) compiled by 'conda@1efc2f54142f' on 2023-08-01
          program call               : xtb struc.xyz --opt loose --input .xc1 --gfn2

   ID    Z sym.   atoms
    1    6 C      1, 3, 5-7, 10, 11, 14
    2    7 N      2, 4, 9, 13
    3    8 O      8, 12
    4    1 H      15-25
constraining bond 7 8 to    3.7600000 Å, actual value:    1.2054518 Å

          :  Hamiltonian                  GFN2-xTB          :
 * total energy  :   -18.9441057 Eh     change       -0.6650680E-10 Eh
 * total energy  :   -28.7564972 Eh     change       -0.9812391E+01 Eh
 * total energy  :   -35.5863954 Eh     change       -0.6829898E+01 Eh
 * total energy  :   -39.6844645 Eh     change       -0.4098069E+01 Eh
 * total energy  :   -41.3737986 Eh     change       -0.1689334E+01 Eh
 * total energy  :   -41.6482260 Eh     change       -0.2744274E+00 Eh
 * total energy  :   -41.6674087 Eh     change       -0.1918271E-01 Eh
 * total energy  :   -41.6580433 Eh     change        0.9365428E-02 Eh
 * total energy  :   -41.7416805 Eh     change       -0.8363718E-01 Eh
 * total energy  :   -41.7572124 Eh     change       -0.1553188E-01 Eh
 * total energy  :   -42.1532950 Eh     change       -0.1281773E-02 Eh
 * total energy  :   -42.1573849 Eh     change       -0.4089968E-02 Eh
 * total energy  :   -42.1595722 Eh     change       -0.2187310E-02 Eh
 * total energy  :   -42.1604759 Eh     change       -0.9036362E-03 Eh
 * total energy  :   -42.1609620 Eh     change       -0.4861193E-03 Eh
 * total energy  :   -42.1612570 Eh     change       -0.2949995E-03 Eh
 * total energy  :   -42.1614054 Eh     change       -0.1483636E-03 Eh
 * total energy  :   -42.1614876 Eh     change       -0.8227051E-04 Eh
 * total energy  :   -42.1615164 Eh     change       -0.2877838E-04 Eh
   *** GEOMETRY OPTIMIZATION CONVERGED AFTER 75 ITERATIONS ***

 final structure:
================
25
 xtb: 6.6.1 (8d0f1dd)
C            2.91981813445236        1.47937550575948        0.15552126849157
N            2.08423270525034        0.27305062227224        0.12343057802817
C            2.47479948011030       -0.98730169231684       -0.07923042044102
N            1.39167559622914       -1.79540606199759       -0.17857385124919
C            0.28040078102128       -1.02262883655726       -0.04592528638228
C            0.70605551464546        0.29541388637856        0.14428921978075
C           -0.20297319285245        1.34725545899084        0.33635986344274
O            3.21992615446398        1.90227340613214       -1.11813773234688
N           -1.47697133007709        0.96678294523313        0.29901572004895
C           -2.50851993780402        1.97017533417521        0.49164058352921
C           -1.97807656286548       -0.32929741117398        0.09019365452435
O           -3.15304713830542       -0.56612786172024        0.06034855098189
N           -1.02077529148066       -1.35009473320697       -0.07635265506009
C           -1.47396763188068       -2.71383402640694       -0.27019022040889
H            2.30644854998700        2.25728836617253        0.62217051501355
H            3.80596624837404        1.26491638484235        0.76749446174158
H            3.98661547334674        1.44889829264307       -1.48777131758521
H            3.49025434397256       -1.32367398854183       -0.13993601842838
H           -2.02697391495955        2.93269777803368        0.63537023048466
H           -3.16448808433560        1.99920666935554       -0.37851260827409
H           -3.11525156559412        1.71483701139183        1.36072956632788
H           -1.11818571159745       -3.35148174694237        0.53932791605470
H           -1.12849013132091       -3.09726805085174       -1.23038460569611
H           -2.56329439374646       -2.70220946506158       -0.26257633392078
H            1.42525341906631       -2.79460924500352       -0.32712946075746

          :  Hamiltonian                  GFN2-xTB          :
         :: total energy             -42.161516408450 Eh    ::
         :: gradient norm              0.002962871605 Eh/a0 ::
         :: HOMO-LUMO gap              1.643917771708 eV    ::
         :: SCC energy               -42.668702443072 Eh    ::
         :: -> dispersion             -0.022176865671 Eh    ::
         :: repulsion energy           0.507090817019 Eh    ::

    * Orbital Energies and Occupations

         #    Occupation            Energy/Eh            Energy/eV
      -------------------------------------------------------------
         1        2.0000           -0.9038819             -24.5959
       ...           ...                  ...                  ...
        25        2.0000           -0.6714207             -18.2703
        26        2.0000           -0.6466996             -17.5976
        27        2.0000           -0.6458594             -17.5747
        28        1.9999           -0.6393265             -17.3970
        29        1.9998           -0.6235078             -16.9665
        30        1.9998           -0.6226923             -16.9443
        31        1.9996           -0.6090476             -16.5730
        32        1.9992           -0.5980050             -16.2725
        33        1.9987           -0.5901102             -16.0577
        34        1.9977           -0.5812325             -15.8161
        35        1.9976           -0.5804621             -15.7952
        36        1.9856           -0.5522536             -15.0276
        37        1.7384           -0.5042197             -13.7205 (HOMO)
        38        0.2554           -0.4438068             -12.0766 (LUMO)
        39        0.0251           -0.4050953             -11.0232
        40        0.0032           -0.3722481             -10.1294
        41        0.0000           -0.2829301              -7.6989
        42                         -0.2001177              -5.4455
        43                         -0.1968028              -5.3553
        44                         -0.1424233              -3.8755
        45                         -0.1138343              -3.0976
        46                         -0.0757474              -2.0612
        47                         -0.0659272              -1.7940
        48                         -0.0448492              -1.2204
       ...                                ...                  ...
        67                          0.5373065              14.6209
      -------------------------------------------------------------
                  HL-Gap            0.0604129 Eh            1.6439 eV

     #   Z          covCN         q      C6AA      α(0)
     1   6 C        3.613     0.118    19.116     6.311
     2   7 N        2.826     0.019    20.911     6.792
     3   6 C        3.043     0.056    26.697     8.475
     4   7 N        2.781    -0.060    22.409     7.031
     5   6 C        3.048     0.114    25.449     8.274
     6   6 C        3.114     0.031    27.162     8.537
     7   6 C        1.925    -0.110    34.160     9.439
     8   8 O        1.658    -0.388    20.619     6.130
     9   7 N        2.759     0.015    20.990     6.804
    10   6 C        3.718    -0.071    21.991     6.699
    11   6 C        2.732     0.308    21.761     7.637
    12   8 O        0.859    -0.359    20.877     6.126
    13   7 N        2.738    -0.048    22.163     6.992
    14   6 C        3.697    -0.070    22.013     6.711
    15   1 H        0.924     0.123     1.590     1.972
    16   1 H        0.923     0.070     2.085     2.258
    17   1 H        0.805     0.319     0.666     1.281
    18   1 H        0.926     0.112     1.676     2.024
    19   1 H        0.925     0.107     1.727     2.055
    20   1 H        0.925     0.102     1.764     2.077
    21   1 H        0.924     0.100     1.782     2.088
    22   1 H        0.925     0.081     1.970     2.195
    23   1 H        0.925     0.081     1.967     2.193
    24   1 H        0.925     0.125     1.577     1.964
    25   1 H        0.860     0.225     0.989     1.558

Wiberg/Mayer (AO) data.
largest (>0.10) Wiberg bond orders for each atom

     #   Z sym  total        # sym  WBO       # sym  WBO       # sym  WBO
 ---------------------------------------------------------------------------
     1   6 C    3.918 --     8 O    1.051    16 H    0.959    15 H    0.951
                             2 N    0.927
     2   7 N    3.603 --     3 C    1.364     6 C    1.132     1 C    0.927
     3   6 C    3.780 --     2 N    1.364     4 N    1.264    18 H    0.956
     4   7 N    3.581 --     3 C    1.264     5 C    1.197    25 H    0.919
     5   6 C    3.907 --     6 C    1.289    13 N    1.227     4 N    1.197
     6   6 C    3.894 --     5 C    1.289     7 C    1.234     2 N    1.132
     7   6 C    2.803 --     9 N    1.379     6 C    1.234
     8   8 O    2.025 --     1 C    1.051    17 H    0.883
     9   7 N    3.627 --     7 C    1.379    11 C    1.066    10 C    0.978
                            12 O    0.114
    10   6 C    3.921 --     9 N    0.978    19 H    0.975    21 H    0.961
                            20 H    0.960
    11   6 C    3.935 --    12 O    1.716     9 N    1.066    13 N    1.052
    12   8 O    2.051 --    11 C    1.716    13 N    0.133     9 N    0.114
    13   7 N    3.562 --     5 C    1.227    11 C    1.052    14 C    0.974
                            12 O    0.133
    14   6 C    3.926 --    13 N    0.974    23 H    0.971    22 H    0.970
                            24 H    0.965
    15   1 H    0.984 --     1 C    0.951
    16   1 H    0.993 --     1 C    0.959
    17   1 H    0.898 --     8 O    0.883
    18   1 H    0.986 --     3 C    0.956
    19   1 H    0.988 --    10 C    0.975
    20   1 H    0.984 --    10 C    0.960
    21   1 H    0.984 --    10 C    0.961
    22   1 H    0.991 --    14 C    0.970
    23   1 H    0.991 --    14 C    0.971
    24   1 H    0.984 --    14 C    0.965
    25   1 H    0.948 --     4 N    0.919
 ---------------------------------------------------------------------------

molecular dipole:
                 x           y           z       tot (Debye)
 q only:        2.416      -1.229       0.120
   full:        2.856      -2.144       0.054       9.077

           -------------------------------------------------
          | TOTAL ENERGY              -42.161516408450 Eh   |
          | GRADIENT NORM               0.002962871605 Eh/α |
          | HOMO-LUMO GAP               1.643917771708 eV   |
           -------------------------------------------------

 * finished run on 2024/06/05 at 19:59:15.722
