   * xtb version 6.6.1 (8d0f1dd) compiled by 'conda@1efc2f54142f' on 2023-08-01
          program call               : xtb struc.xyz --opt loose --input .xc1 --gfn2

   ID    Z sym.   atoms
    1    7 N      1, 17
    2    6 C      2-6, 8, 9, 11-16, 18-23, 25, 26, 28-33
    3    8 O      7, 10, 24, 27
    4    1 H      34-72
constraining bond 17 48 to    4.0600000 Å, actual value:    2.0347383 Å

          :  Hamiltonian                  GFN2-xTB          :
 * total energy  :   -98.6717619 Eh     change       -0.4035485E-08 Eh
 * total energy  :   -98.8865035 Eh     change       -0.2147415E+00 Eh
 * total energy  :   -99.0244972 Eh     change       -0.1379938E+00 Eh
 * total energy  :   -99.1056629 Eh     change       -0.8116568E-01 Eh
 * total energy  :   -99.1681119 Eh     change       -0.6244901E-01 Eh
 * total energy  :   -99.2089951 Eh     change       -0.4088318E-01 Eh
 * total energy  :   -99.2299962 Eh     change       -0.2100114E-01 Eh
 * total energy  :   -99.2545821 Eh     change       -0.2458592E-01 Eh
 * total energy  :   -99.2615406 Eh     change       -0.6958506E-02 Eh
 * total energy  :   -99.2674842 Eh     change       -0.5943560E-02 Eh
 * total energy  :   -99.4088576 Eh     change       -0.1304325E-03 Eh
 * total energy  :   -99.4089606 Eh     change       -0.1029413E-03 Eh
 * total energy  :   -99.4090729 Eh     change       -0.1123645E-03 Eh
 * total energy  :   -99.4091897 Eh     change       -0.1167552E-03 Eh
 * total energy  :   -99.4093266 Eh     change       -0.1369597E-03 Eh
 * total energy  :   -99.4094416 Eh     change       -0.1149982E-03 Eh
 * total energy  :   -99.4094847 Eh     change       -0.4310181E-04 Eh
 * total energy  :   -99.4095883 Eh     change       -0.1035624E-03 Eh
 * total energy  :   -99.4096362 Eh     change       -0.4786475E-04 Eh
   *** GEOMETRY OPTIMIZATION CONVERGED AFTER 93 ITERATIONS ***

 final structure:
================
72
 xtb: 6.6.1 (8d0f1dd)
N           -0.73574439550368        1.39892577090767        1.28401111906086
C           -1.56301135542600        2.20944308934272        0.79622525896744
C           -2.83186939448017        1.84128345290994        0.07525338411908
C           -3.32522752753228        0.41521048612915        0.27307737108168
C           -4.35619138109012       -0.05549524466416       -0.54722121123542
C           -4.88966244236321       -1.32411437636969       -0.39665278048387
O           -5.88987800272768       -1.84310468885915       -1.14212178392406
C           -6.53238928183238       -1.03113024656161       -2.09561408637951
C           -4.37697060698607       -2.18401402028029        0.61148920503437
O           -4.93729855950398       -3.40830162951416        0.67498420910411
C           -4.52883635120629       -4.29479495352094        1.69021402142022
C           -3.37121959643938       -1.70657969730987        1.43508361796585
C           -2.85981913443161       -0.42489867807278        1.27317528209569
C           -2.54209970909671        2.11396963666029       -1.42425064043760
C           -1.64934382659261        1.04060269282696       -2.07594348292796
C           -0.26512816125612        1.09826233284742       -1.56399387599881
N            0.38992214385151        0.10612160905839       -1.00126006168645
C            1.73415746768602        0.28644874640213       -0.51047878333736
C            2.78599455370674       -0.32546832874761       -1.45458696812008
C            4.16124717377391       -0.12134854893900       -0.88102501737543
C            4.76245452855165        1.12646936323869       -0.92963332459273
C            6.01063285456571        1.33694133879308       -0.36514922422154
C            6.68755205333795        0.29853985183120        0.25813083719404
O            7.89727615120702        0.38739405905452        0.84208845819812
C            8.56676117933116        1.62704944119172        0.85080713797280
C            6.08536074992663       -0.98914754836514        0.30152193513627
O            6.81799169558993       -1.94354245930092        0.90913275048046
C            6.32450103782604       -3.26084194677403        0.96543280912425
C            4.83085741024375       -1.17201205258759       -0.25982601425593
C           -0.19673993370218       -1.20146940139122       -0.83626173105564
C           -3.97630507811114        2.78052255224929        0.58376956855704
C           -4.10642824994059        2.65860831396184        2.10136205486873
C           -3.83803803140875        4.25156883633950        0.19421116738291
H           -4.76240143314676        0.58565829208802       -1.31195046414809
H           -6.96895670489843       -0.13931869913421       -1.63469251500144
H           -7.32861725453336       -1.64467676843190       -2.51311343890087
H           -5.84963535039424       -0.73297817500571       -2.89798025811086
H           -4.71877132888422       -3.87878487294117        2.68408089241597
H           -5.12889546683160       -5.19266888313507        1.55414438785836
H           -3.46871156401821       -4.55034197246674        1.59760933523757
H           -2.97607981724793       -2.32375407661276        2.22570375743578
H           -2.08596309908479       -0.08808076560718        1.94101082908848
H           -3.48134679977733        2.16285334918405       -1.97359377983343
H           -2.05296555892212        3.08359386410424       -1.52337304254929
H           -2.09395666711893        0.05927029161285       -1.92960701914975
H           -1.62695539294819        1.25355755444504       -3.15141098856542
H            0.25469708348591        2.04101908448664       -1.64894081458153
H           -1.39103097070791        3.29206516579239        0.79637768517913
H            1.81024850087586       -0.17891178340538        0.47452010923869
H            1.93986197562838        1.35165274717090       -0.40173241270229
H            2.70963689489149        0.16479900123261       -2.42702294560976
H            2.59136930127534       -1.38910043890081       -1.59006233724339
H            4.26375094267385        1.94831632727356       -1.42077235878231
H            6.45243313855308        2.31832371800171       -0.42085709856810
H            7.98894907937417        2.39046522202581        1.38076727962560
H            8.78470339340101        1.97208478600300       -0.16416286030750
H            9.50105633975285        1.45033984214049        1.37984212218263
H            7.09311615390178       -3.83870606046231        1.47498572580310
H            5.39252498270606       -3.31671960159600        1.53673024799495
H            6.16661188990905       -3.67273838327744       -0.03606121130897
H            4.36527019487661       -2.14465864124214       -0.22926625119793
H           -0.46644068787443       -1.63284467248609       -1.80240563776720
H           -1.08936266590505       -1.13329619819554       -0.20898664148928
H            0.51848590467396       -1.85894312173808       -0.34975954810463
H           -4.90429799833142        2.41269804284285        0.13510428023990
H           -3.21509792837964        3.03597478423079        2.59855806345060
H           -4.25011990559275        1.62163205609732        2.39542677910085
H           -4.95899755936684        3.23469208925579        2.45038405468638
H           -2.94835812328570        4.70590795156739        0.61983254418598
H           -3.82333358104993        4.38926354167263       -0.88201661359168
H           -4.69529380543785        4.79474075619142        0.58322206749489
H            0.07688150478102        1.82065641719196        1.72478171719911

          :  Hamiltonian                  GFN2-xTB          :
         :: total energy             -99.409636174488 Eh    ::
         :: gradient norm              0.003660524243 Eh/a0 ::
         :: HOMO-LUMO gap              1.709831270681 eV    ::
         :: SCC energy              -100.790254963640 Eh    ::
         :: -> dispersion             -0.076388810407 Eh    ::
         :: repulsion energy           1.379238105062 Eh    ::

    * Orbital Energies and Occupations

         #    Occupation            Energy/Eh            Energy/eV
      -------------------------------------------------------------
         1        2.0000           -0.8052101             -21.9109
       ...           ...                  ...                  ...
        78        1.9989           -0.5323363             -14.4856
        79        1.9987           -0.5299639             -14.4211
        80        1.9983           -0.5262666             -14.3204
        81        1.9978           -0.5224062             -14.2154
        82        1.9978           -0.5218170             -14.1994
        83        1.9972           -0.5181609             -14.0999
        84        1.9968           -0.5161465             -14.0451
        85        1.9960           -0.5125885             -13.9482
        86        1.9795           -0.4865229             -13.2390
        87        1.9782           -0.4855496             -13.2125
        88        1.9600           -0.4758308             -12.9480
        89        1.8593           -0.4550597             -12.3828
        90        1.8471           -0.4536475             -12.3444 (HOMO)
        91        0.3719           -0.3908123             -10.6345 (LUMO)
        92        0.0187           -0.3403793              -9.2622
        93        0.0031           -0.3120030              -8.4900
        94        0.0028           -0.3100221              -8.4361
        95        0.0025           -0.3083702              -8.3912
        96        0.0024           -0.3076917              -8.3727
        97        0.0000           -0.1861133              -5.0644
        98        0.0000           -0.1853207              -5.0428
        99                         -0.1271409              -3.4597
       100                         -0.0736483              -2.0041
       101                         -0.0610990              -1.6626
       ...                                ...                  ...
       171                          0.5791820              15.7603
      -------------------------------------------------------------
                  HL-Gap            0.0628351 Eh            1.7098 eV

     #   Z          covCN         q      C6AA      α(0)
     1   7 N        1.773    -0.318    29.060     7.983
     2   6 C        2.828     0.101    25.749     8.315
     3   6 C        3.906     0.004    20.449     6.428
     4   6 C        2.969     0.003    27.956     8.673
     5   6 C        2.922    -0.083    30.066     8.992
     6   6 C        2.862     0.128    25.187     8.226
     7   8 O        1.706    -0.232    17.843     5.703
     8   6 C        3.644     0.029    20.430     6.497
     9   6 C        2.864     0.129    25.169     8.223
    10   8 O        1.706    -0.229    17.791     5.695
    11   6 C        3.646     0.027    20.457     6.500
    12   6 C        2.914    -0.075    29.868     8.962
    13   6 C        2.922    -0.055    29.375     8.888
    14   6 C        3.815    -0.061    21.661     6.624
    15   6 C        3.803    -0.070    21.847     6.654
    16   6 C        2.848     0.013    27.725     8.630
    17   7 N        2.729     0.045    20.463     6.719
    18   6 C        3.758    -0.023    21.033     6.538
    19   6 C        3.808    -0.071    21.854     6.655
    20   6 C        2.969     0.000    28.022     8.683
    21   6 C        2.922    -0.050    29.237     8.867
    22   6 C        2.914    -0.068    29.690     8.935
    23   6 C        2.865     0.133    25.091     8.211
    24   8 O        1.706    -0.223    17.695     5.680
    25   6 C        3.645     0.025    20.483     6.504
    26   6 C        2.863     0.133    25.088     8.210
    27   8 O        1.706    -0.225    17.731     5.685
    28   6 C        3.645     0.027    20.460     6.501
    29   6 C        2.919    -0.079    29.975     8.978
    30   6 C        3.702    -0.082    22.235     6.742
    31   6 C        3.856    -0.014    20.791     6.485
    32   6 C        3.756    -0.110    22.654     6.786
    33   6 C        3.754    -0.112    22.707     6.795
    34   1 H        0.926     0.048     2.350     2.397
    35   1 H        0.924     0.051     2.305     2.374
    36   1 H        0.925     0.080     1.977     2.199
    37   1 H        0.924     0.046     2.365     2.405
    38   1 H        0.924     0.055     2.264     2.353
    39   1 H        0.925     0.080     1.977     2.199
    40   1 H        0.924     0.049     2.331     2.388
    41   1 H        0.926     0.053     2.288     2.365
    42   1 H        0.926     0.073     2.050     2.239
    43   1 H        0.925     0.061     2.193     2.316
    44   1 H        0.924     0.053     2.289     2.366
    45   1 H        0.925     0.071     2.074     2.252
    46   1 H        0.924     0.079     1.986     2.204
    47   1 H        0.926     0.068     2.102     2.267
    48   1 H        0.924     0.015     2.804     2.619
    49   1 H        0.924     0.079     1.986     2.204
    50   1 H        0.924     0.069     2.095     2.263
    51   1 H        0.924     0.057     2.234     2.338
    52   1 H        0.925     0.056     2.247     2.344
    53   1 H        0.926     0.043     2.412     2.429
    54   1 H        0.926     0.057     2.229     2.335
    55   1 H        0.924     0.053     2.280     2.361
    56   1 H        0.924     0.056     2.252     2.347
    57   1 H        0.925     0.082     1.959     2.189
    58   1 H        0.925     0.082     1.963     2.191
    59   1 H        0.924     0.049     2.327     2.386
    60   1 H        0.924     0.053     2.286     2.364
    61   1 H        0.926     0.049     2.337     2.391
    62   1 H        0.924     0.078     1.999     2.211
    63   1 H        0.924     0.098     1.800     2.098
    64   1 H        0.925     0.084     1.934     2.175
    65   1 H        0.924     0.042     2.421     2.433
    66   1 H        0.925     0.039     2.463     2.454
    67   1 H        0.925     0.042     2.421     2.433
    68   1 H        0.925     0.051     2.304     2.374
    69   1 H        0.925     0.039     2.456     2.451
    70   1 H        0.925     0.040     2.450     2.448
    71   1 H        0.925     0.054     2.267     2.355
    72   1 H        0.860     0.147     1.425     1.870

Wiberg/Mayer (AO) data.
largest (>0.10) Wiberg bond orders for each atom

     #   Z sym  total        # sym  WBO       # sym  WBO       # sym  WBO
 ---------------------------------------------------------------------------
     1   7 N    2.989 --     2 C    1.919    72 H    0.947
     2   6 C    3.931 --     1 N    1.919     3 C    1.001    48 H    0.936
     3   6 C    3.981 --     2 C    1.001     4 C    0.985    14 C    0.953
                            31 C    0.933
     4   6 C    3.944 --    13 C    1.412     5 C    1.367     3 C    0.985
     5   6 C    3.960 --     6 C    1.403     4 C    1.367    34 H    0.957
     6   6 C    3.900 --     5 C    1.403     9 C    1.221     7 O    1.095
     7   8 O    2.247 --     6 C    1.095     8 C    0.980
     8   6 C    3.934 --     7 O    0.980    36 H    0.977    35 H    0.974
                            37 H    0.973
     9   6 C    3.898 --    12 C    1.392     6 C    1.221    10 O    1.101
    10   8 O    2.250 --     9 C    1.101    11 C    0.978
    11   6 C    3.932 --    10 O    0.978    39 H    0.977    40 H    0.973
                            38 H    0.973
    12   6 C    3.960 --    13 C    1.401     9 C    1.392    41 H    0.964
    13   6 C    3.946 --     4 C    1.412    12 C    1.401    42 H    0.952
    14   6 C    3.968 --    15 C    0.972    44 H    0.972    43 H    0.965
                             3 C    0.953
    15   6 C    3.988 --    16 C    1.061    14 C    0.972    45 H    0.963
                            46 H    0.936
    16   6 C    3.611 --    17 N    1.462    15 C    1.061    47 H    0.958
    17   7 N    3.520 --    16 C    1.462    30 C    0.996    18 C    0.988
    18   6 C    3.954 --    17 N    0.988    19 C    0.968    50 H    0.967
                            49 H    0.960
    19   6 C    3.978 --    20 C    1.008    52 H    0.973    51 H    0.969
                            18 C    0.968
    20   6 C    3.946 --    21 C    1.407    29 C    1.384    19 C    1.008
    21   6 C    3.951 --    22 C    1.419    20 C    1.407    53 H    0.968
    22   6 C    3.961 --    21 C    1.419    23 C    1.383    54 H    0.963
    23   6 C    3.896 --    22 C    1.383    26 C    1.222    24 O    1.109
    24   8 O    2.254 --    23 C    1.109    25 C    0.976
    25   6 C    3.929 --    57 H    0.977    24 O    0.976    55 H    0.973
                            56 H    0.973
    26   6 C    3.899 --    29 C    1.392    23 C    1.222    27 O    1.104
    27   8 O    2.255 --    26 C    1.104    28 C    0.978
    28   6 C    3.932 --    27 O    0.978    58 H    0.977    59 H    0.973
                            60 H    0.973
    29   6 C    3.960 --    26 C    1.392    20 C    1.384    61 H    0.962
    30   6 C    3.950 --    17 N    0.996    64 H    0.977    62 H    0.967
                            63 H    0.949
    31   6 C    3.981 --    33 C    1.009    32 C    1.009    65 H    0.963
                             3 C    0.933
    32   6 C    3.990 --    31 C    1.009    68 H    0.983    66 H    0.982
                            67 H    0.982
    33   6 C    3.990 --    31 C    1.009    70 H    0.983    69 H    0.980
                            71 H    0.980
    34   1 H    0.996 --     5 C    0.957
    35   1 H    0.993 --     8 C    0.974
    36   1 H    0.993 --     8 C    0.977
    37   1 H    0.994 --     8 C    0.973
    38   1 H    0.993 --    11 C    0.973
    39   1 H    0.993 --    11 C    0.977
    40   1 H    0.993 --    11 C    0.973
    41   1 H    0.995 --    12 C    0.964
    42   1 H    0.993 --    13 C    0.952
    43   1 H    0.994 --    14 C    0.965
    44   1 H    0.996 --    14 C    0.972
    45   1 H    0.995 --    15 C    0.963
    46   1 H    0.976 --    15 C    0.936
    47   1 H    0.995 --    16 C    0.958
    48   1 H    0.990 --     2 C    0.936
    49   1 H    0.988 --    18 C    0.960
    50   1 H    0.994 --    18 C    0.967
    51   1 H    0.995 --    19 C    0.969
    52   1 H    0.996 --    19 C    0.973
    53   1 H    0.998 --    21 C    0.968
    54   1 H    0.995 --    22 C    0.963
    55   1 H    0.992 --    25 C    0.973
    56   1 H    0.992 --    25 C    0.973
    57   1 H    0.993 --    25 C    0.977
    58   1 H    0.993 --    28 C    0.977
    59   1 H    0.993 --    28 C    0.973
    60   1 H    0.993 --    28 C    0.973
    61   1 H    0.996 --    29 C    0.962
    62   1 H    0.986 --    30 C    0.967
    63   1 H    0.982 --    30 C    0.949
    64   1 H    0.993 --    30 C    0.977
    65   1 H    0.996 --    31 C    0.963
    66   1 H    0.997 --    32 C    0.982
    67   1 H    0.997 --    32 C    0.982
    68   1 H    0.996 --    32 C    0.983
    69   1 H    0.997 --    33 C    0.980
    70   1 H    0.998 --    33 C    0.983
    71   1 H    0.995 --    33 C    0.980
    72   1 H    0.975 --     1 N    0.947
 ---------------------------------------------------------------------------

molecular dipole:
                 x           y           z       tot (Debye)
 q only:        0.418       0.096      -0.962
   full:        0.373       0.725      -0.999       3.277

           -------------------------------------------------
          | TOTAL ENERGY              -99.409636174488 Eh   |
          | GRADIENT NORM               0.003660524243 Eh/α |
          | HOMO-LUMO GAP               1.709831270681 eV   |
           -------------------------------------------------

 * finished run on 2024/04/06 at 11:13:41.206
