   * xtb version 6.6.1 (8d0f1dd) compiled by 'conda@1efc2f54142f' on 2023-08-01
          program call               : xtb xtbopt.xyz --opt crude --input .xc2 --gfn2

   ID    Z sym.   atoms
    1    7 N      1, 17
    2    6 C      2-6, 8, 9, 11-16, 18-23, 25, 26, 28-33
    3    8 O      7, 10, 24, 27
    4    1 H      34-72
########################################################################
[WARNING] Please study the warnings concerning your input carefully
-1- readin_getIntValue: could not parse ''
########################################################################

          :  Hamiltonian                  GFN2-xTB          :
 * total energy  :   -99.4096494 Eh     change        0.1421085E-12 Eh
 * total energy  :   -99.4097275 Eh     change       -0.7812383E-04 Eh
   *** GEOMETRY OPTIMIZATION CONVERGED AFTER 2 ITERATIONS ***

 final structure:
================
72
 xtb: 6.6.1 (8d0f1dd)
N           -0.73783033497650        1.40393899091676        1.29110643797356
C           -1.56417674494087        2.21358292540514        0.79734593189416
C           -2.83129013806991        1.84204911875196        0.07540754979724
C           -3.32404388635067        0.41558354344703        0.27281751902544
C           -4.35455096203581       -0.05535619225577       -0.54786533899816
C           -4.88879698077158       -1.32357811773595       -0.39673153415807
O           -5.88812336168029       -1.84282577226825       -1.14276365002436
C           -6.53066445906086       -1.03188769690890       -2.09693299776700
C           -4.37799700546487       -2.18285286177848        0.61247829623332
O           -4.93950480336122       -3.40672183828215        0.67628249104804
C           -4.53033778260052       -4.29393361661418        1.69073141217706
C           -3.37208256094405       -1.70543076074109        1.43608974898571
C           -2.85988182184327       -0.42401639644847        1.27384192646511
C           -2.54068483184055        2.11416506320840       -1.42373420115182
C           -1.64874783692861        1.04064176474691       -2.07693052270338
C           -0.26328498741119        1.09522491782384       -1.56806507890555
N            0.39209012563450        0.10209482919373       -1.00715056054756
C            1.73507520014656        0.28448293901461       -0.51377246414779
C            2.78811368589783       -0.32546855624169       -1.45766865771724
C            4.16247514212582       -0.12107314069112       -0.88235372458588
C            4.76387732336944        1.12661216765068       -0.93107327136014
C            6.01188372226155        1.33681812926723       -0.36621714990444
C            6.68824406093757        0.29839550663099        0.25775052196209
O            7.89780601607132        0.38734125770858        0.84202309614880
C            8.56772535956723        1.62678195728426        0.84957253540460
C            6.08554601722563       -0.98889180169955        0.30156101826064
O            6.81736873288657       -1.94325356368204        0.91007924716361
C            6.32368386752647       -3.26044869002570        0.96611714847997
C            4.83129498843201       -1.17165215281407       -0.26034939735588
C           -0.19493085981510       -1.20434027397052       -0.83763208509911
C           -3.97723343606663        2.78019095723541        0.58355333975092
C           -4.10879807144423        2.65748460575407        2.10141356342816
C           -3.83807567464062        4.25151993081578        0.19446226928485
H           -4.76050048665895        0.58491639160881       -1.31335667092839
H           -6.96806205586651       -0.14027479672717       -1.63685614752798
H           -7.32598605842584       -1.64641512740291       -2.51431117140606
H           -5.84785710503026       -0.73379145261761       -2.89934359106473
H           -4.71870318527843       -3.87891710049313        2.68532839067837
H           -5.13103053659334       -5.19113216146939        1.55454294991398
H           -3.47034132807523       -4.55022603829025        1.59660827952714
H           -2.97843674537016       -2.32229685043045        2.22754544407713
H           -2.08658324803291       -0.08684529159273        1.94218996443814
H           -3.48035848981553        2.16286712119236       -1.97238612243218
H           -2.05176271728869        3.08397698654793       -1.52332140492013
H           -2.09438972215373        0.05941106800180       -1.93177165356868
H           -1.62786295013310        1.25488131756829       -3.15186580615335
H            0.25688165336321        2.03814214699452       -1.65038974440906
H           -1.40530966920001        3.29891889569743        0.81584215094872
H            1.81087789412978       -0.18291023021532        0.47088647263327
H            1.93863642549920        1.35038225256808       -0.40177713604575
H            2.71298571034457        0.16465560953501       -2.43037538923791
H            2.59332185062160       -1.38935544883548       -1.59307618645217
H            4.26550090194749        1.94829014173556       -1.42279496613084
H            6.45415772327143        2.31789857132664       -0.42219844884314
H            7.99043919483967        2.39062769836705        1.37952810221331
H            8.78501659998184        1.97125920288813       -0.16586868957617
H            9.50241369547886        1.44999574430367        1.37810079136841
H            7.09238463973395       -3.83859145450125        1.47520654298177
H            5.39189306803662       -3.31649807008665        1.53781108828416
H            6.16524526396948       -3.67208126254131       -0.03547081207295
H            4.36547657309997       -2.14413083833763       -0.22970379518344
H           -0.46867214360171       -1.63768458568430       -1.80096291038592
H           -1.08542863695563       -1.13401973019265       -0.20759434029119
H            0.52156273383723       -1.86038093226517       -0.35184564084691
H           -4.90485043647127        2.41201947130770        0.13389868236581
H           -3.21822084884299        3.03506678742696        2.59958075172177
H           -4.25272043966366        1.62080145172228        2.39566786088564
H           -4.96180253001548        3.23388180172428        2.44953707483945
H           -2.94680673884725        4.70532550162810        0.61955377312185
H           -3.82423117210005        4.38968906101353       -0.88267892110800
H           -4.69545750380495        4.79487950546580        0.58435785719334
H            0.07094871522558        1.82662699282110        1.73963479497169

          :  Hamiltonian                  GFN2-xTB          :
         :: total energy             -99.409727517473 Eh    ::
         :: gradient norm              0.001666951104 Eh/a0 ::
         :: HOMO-LUMO gap              1.709791970286 eV    ::
         :: SCC energy              -100.789419929822 Eh    ::
         :: -> dispersion             -0.076352655878 Eh    ::
         :: repulsion energy           1.378322758998 Eh    ::

    * Orbital Energies and Occupations

         #    Occupation            Energy/Eh            Energy/eV
      -------------------------------------------------------------
         1        2.0000           -0.8052334             -21.9115
       ...           ...                  ...                  ...
        78        1.9989           -0.5323373             -14.4856
        79        1.9987           -0.5299635             -14.4210
        80        1.9983           -0.5262195             -14.3192
        81        1.9979           -0.5224157             -14.2157
        82        1.9978           -0.5218107             -14.1992
        83        1.9972           -0.5181332             -14.0991
        84        1.9968           -0.5162142             -14.0469
        85        1.9960           -0.5125196             -13.9464
        86        1.9794           -0.4864969             -13.2383
        87        1.9782           -0.4855244             -13.2118
        88        1.9599           -0.4757419             -12.9456
        89        1.8594           -0.4550624             -12.3829
        90        1.8471           -0.4536193             -12.3436 (HOMO)
        91        0.3718           -0.3907856             -10.6338 (LUMO)
        92        0.0189           -0.3405412              -9.2666
        93        0.0032           -0.3120151              -8.4904
        94        0.0028           -0.3099903              -8.4353
        95        0.0025           -0.3083152              -8.3897
        96        0.0024           -0.3076415              -8.3714
        97        0.0000           -0.1860806              -5.0635
        98        0.0000           -0.1852556              -5.0411
        99                         -0.1269916              -3.4556
       100                         -0.0739908              -2.0134
       101                         -0.0610307              -1.6607
       ...                                ...                  ...
       171                          0.5791761              15.7602
      -------------------------------------------------------------
                  HL-Gap            0.0628337 Eh            1.7098 eV

     #   Z          covCN         q      C6AA      α(0)
     1   7 N        1.773    -0.318    29.058     7.982
     2   6 C        2.828     0.101    25.759     8.317
     3   6 C        3.906     0.004    20.447     6.427
     4   6 C        2.969     0.003    27.954     8.672
     5   6 C        2.922    -0.083    30.066     8.992
     6   6 C        2.862     0.128    25.186     8.226
     7   8 O        1.706    -0.232    17.842     5.703
     8   6 C        3.644     0.029    20.430     6.497
     9   6 C        2.864     0.129    25.170     8.224
    10   8 O        1.706    -0.229    17.791     5.695
    11   6 C        3.646     0.027    20.457     6.500
    12   6 C        2.914    -0.075    29.868     8.962
    13   6 C        2.922    -0.055    29.374     8.888
    14   6 C        3.814    -0.061    21.660     6.624
    15   6 C        3.803    -0.070    21.845     6.654
    16   6 C        2.848     0.013    27.725     8.630
    17   7 N        2.729     0.045    20.463     6.718
    18   6 C        3.759    -0.023    21.032     6.538
    19   6 C        3.808    -0.071    21.854     6.655
    20   6 C        2.969     0.000    28.021     8.683
    21   6 C        2.922    -0.050    29.237     8.867
    22   6 C        2.914    -0.068    29.690     8.935
    23   6 C        2.865     0.133    25.091     8.211
    24   8 O        1.706    -0.223    17.695     5.680
    25   6 C        3.645     0.025    20.482     6.504
    26   6 C        2.863     0.133    25.088     8.210
    27   8 O        1.706    -0.225    17.730     5.685
    28   6 C        3.645     0.027    20.460     6.501
    29   6 C        2.919    -0.079    29.975     8.978
    30   6 C        3.702    -0.082    22.234     6.742
    31   6 C        3.856    -0.014    20.792     6.485
    32   6 C        3.756    -0.110    22.656     6.787
    33   6 C        3.754    -0.112    22.703     6.794
    34   1 H        0.926     0.048     2.350     2.397
    35   1 H        0.924     0.051     2.305     2.374
    36   1 H        0.925     0.080     1.977     2.199
    37   1 H        0.924     0.046     2.366     2.405
    38   1 H        0.924     0.055     2.264     2.353
    39   1 H        0.925     0.080     1.976     2.199
    40   1 H        0.924     0.049     2.332     2.388
    41   1 H        0.926     0.053     2.288     2.365
    42   1 H        0.926     0.073     2.052     2.240
    43   1 H        0.925     0.060     2.194     2.316
    44   1 H        0.924     0.052     2.289     2.366
    45   1 H        0.925     0.071     2.076     2.253
    46   1 H        0.924     0.079     1.985     2.203
    47   1 H        0.926     0.069     2.102     2.267
    48   1 H        0.924     0.016     2.796     2.615
    49   1 H        0.924     0.079     1.987     2.204
    50   1 H        0.924     0.069     2.095     2.264
    51   1 H        0.924     0.057     2.234     2.337
    52   1 H        0.925     0.056     2.247     2.344
    53   1 H        0.926     0.043     2.411     2.428
    54   1 H        0.926     0.057     2.229     2.335
    55   1 H        0.924     0.053     2.280     2.361
    56   1 H        0.924     0.055     2.253     2.347
    57   1 H        0.925     0.082     1.960     2.189
    58   1 H        0.925     0.082     1.963     2.191
    59   1 H        0.924     0.049     2.327     2.386
    60   1 H        0.924     0.053     2.286     2.365
    61   1 H        0.926     0.049     2.337     2.391
    62   1 H        0.924     0.078     1.997     2.210
    63   1 H        0.924     0.098     1.801     2.099
    64   1 H        0.925     0.084     1.934     2.175
    65   1 H        0.924     0.042     2.421     2.433
    66   1 H        0.925     0.039     2.462     2.454
    67   1 H        0.925     0.042     2.420     2.433
    68   1 H        0.925     0.051     2.304     2.374
    69   1 H        0.925     0.039     2.457     2.451
    70   1 H        0.925     0.040     2.451     2.448
    71   1 H        0.925     0.054     2.267     2.355
    72   1 H        0.860     0.146     1.426     1.870

Wiberg/Mayer (AO) data.
largest (>0.10) Wiberg bond orders for each atom

     #   Z sym  total        # sym  WBO       # sym  WBO       # sym  WBO
 ---------------------------------------------------------------------------
     1   7 N    2.989 --     2 C    1.918    72 H    0.947
     2   6 C    3.931 --     1 N    1.918     3 C    1.001    48 H    0.936
     3   6 C    3.981 --     2 C    1.001     4 C    0.985    14 C    0.953
                            31 C    0.933
     4   6 C    3.944 --    13 C    1.412     5 C    1.367     3 C    0.985
     5   6 C    3.960 --     6 C    1.403     4 C    1.367    34 H    0.957
     6   6 C    3.900 --     5 C    1.403     9 C    1.221     7 O    1.095
     7   8 O    2.247 --     6 C    1.095     8 C    0.980
     8   6 C    3.934 --     7 O    0.980    36 H    0.977    35 H    0.974
                            37 H    0.973
     9   6 C    3.898 --    12 C    1.392     6 C    1.221    10 O    1.101
    10   8 O    2.250 --     9 C    1.101    11 C    0.978
    11   6 C    3.932 --    10 O    0.978    39 H    0.977    40 H    0.973
                            38 H    0.973
    12   6 C    3.960 --    13 C    1.401     9 C    1.392    41 H    0.964
    13   6 C    3.946 --     4 C    1.412    12 C    1.401    42 H    0.952
    14   6 C    3.968 --    15 C    0.972    44 H    0.972    43 H    0.965
                             3 C    0.953
    15   6 C    3.988 --    16 C    1.061    14 C    0.972    45 H    0.963
                            46 H    0.936
    16   6 C    3.611 --    17 N    1.462    15 C    1.061    47 H    0.958
    17   7 N    3.519 --    16 C    1.462    30 C    0.996    18 C    0.988
    18   6 C    3.954 --    17 N    0.988    19 C    0.968    50 H    0.967
                            49 H    0.960
    19   6 C    3.978 --    20 C    1.008    52 H    0.973    51 H    0.969
                            18 C    0.968
    20   6 C    3.946 --    21 C    1.407    29 C    1.384    19 C    1.008
    21   6 C    3.951 --    22 C    1.419    20 C    1.407    53 H    0.968
    22   6 C    3.961 --    21 C    1.419    23 C    1.383    54 H    0.963
    23   6 C    3.896 --    22 C    1.383    26 C    1.222    24 O    1.109
    24   8 O    2.254 --    23 C    1.109    25 C    0.976
    25   6 C    3.929 --    57 H    0.977    24 O    0.976    55 H    0.973
                            56 H    0.973
    26   6 C    3.899 --    29 C    1.392    23 C    1.222    27 O    1.104
    27   8 O    2.255 --    26 C    1.104    28 C    0.978
    28   6 C    3.932 --    27 O    0.978    58 H    0.977    60 H    0.973
                            59 H    0.973
    29   6 C    3.960 --    26 C    1.392    20 C    1.384    61 H    0.962
    30   6 C    3.950 --    17 N    0.996    64 H    0.977    62 H    0.967
                            63 H    0.949
    31   6 C    3.981 --    33 C    1.009    32 C    1.009    65 H    0.963
                             3 C    0.933
    32   6 C    3.990 --    31 C    1.009    68 H    0.983    66 H    0.982
                            67 H    0.982
    33   6 C    3.990 --    31 C    1.009    70 H    0.983    71 H    0.980
                            69 H    0.980
    34   1 H    0.996 --     5 C    0.957
    35   1 H    0.993 --     8 C    0.974
    36   1 H    0.993 --     8 C    0.977
    37   1 H    0.994 --     8 C    0.973
    38   1 H    0.993 --    11 C    0.973
    39   1 H    0.993 --    11 C    0.977
    40   1 H    0.993 --    11 C    0.973
    41   1 H    0.995 --    12 C    0.964
    42   1 H    0.993 --    13 C    0.952
    43   1 H    0.994 --    14 C    0.965
    44   1 H    0.996 --    14 C    0.972
    45   1 H    0.995 --    15 C    0.963
    46   1 H    0.976 --    15 C    0.936
    47   1 H    0.995 --    16 C    0.958
    48   1 H    0.990 --     2 C    0.936
    49   1 H    0.988 --    18 C    0.960
    50   1 H    0.994 --    18 C    0.967
    51   1 H    0.995 --    19 C    0.969
    52   1 H    0.996 --    19 C    0.973
    53   1 H    0.998 --    21 C    0.968
    54   1 H    0.995 --    22 C    0.963
    55   1 H    0.992 --    25 C    0.973
    56   1 H    0.992 --    25 C    0.973
    57   1 H    0.993 --    25 C    0.977
    58   1 H    0.993 --    28 C    0.977
    59   1 H    0.993 --    28 C    0.973
    60   1 H    0.993 --    28 C    0.973
    61   1 H    0.996 --    29 C    0.962
    62   1 H    0.986 --    30 C    0.967
    63   1 H    0.982 --    30 C    0.949
    64   1 H    0.993 --    30 C    0.977
    65   1 H    0.996 --    31 C    0.963
    66   1 H    0.997 --    32 C    0.982
    67   1 H    0.997 --    32 C    0.982
    68   1 H    0.996 --    32 C    0.983
    69   1 H    0.997 --    33 C    0.980
    70   1 H    0.998 --    33 C    0.983
    71   1 H    0.995 --    33 C    0.980
    72   1 H    0.975 --     1 N    0.947
 ---------------------------------------------------------------------------

molecular dipole:
                 x           y           z       tot (Debye)
 q only:        0.418       0.095      -0.966
   full:        0.370       0.724      -0.999       3.273

           -------------------------------------------------
          | TOTAL ENERGY              -99.409727517473 Eh   |
          | GRADIENT NORM               0.001666951104 Eh/α |
          | HOMO-LUMO GAP               1.709791970286 eV   |
           -------------------------------------------------

 * finished run on 2024/04/06 at 11:13:41.841
