   * xtb version 6.6.1 (8d0f1dd) compiled by 'conda@1efc2f54142f' on 2023-08-01
          program call               : xtb struc.xyz --opt loose --input .xc1 --gfn2

   ID    Z sym.   atoms
    1    6 C      1, 3, 5-7, 10, 11, 14
    2    7 N      2, 4, 9, 13
    3    8 O      8, 12
    4    1 H      15-25
constraining bond 9 20 to    4.0600000 Å, actual value:    2.0954220 Å

          :  Hamiltonian                  GFN2-xTB          :
 * total energy  :   -35.3564785 Eh     change       -0.6650680E-10 Eh
 * total energy  :   -38.3858273 Eh     change       -0.3029349E+01 Eh
 * total energy  :   -40.5791609 Eh     change       -0.2193334E+01 Eh
 * total energy  :   -41.5991063 Eh     change       -0.1019945E+01 Eh
 * total energy  :   -41.8635252 Eh     change       -0.2644188E+00 Eh
 * total energy  :   -41.8951437 Eh     change       -0.3161850E-01 Eh
 * total energy  :   -41.9106325 Eh     change       -0.1548883E-01 Eh
 * total energy  :   -41.9530063 Eh     change       -0.4237379E-01 Eh
 * total energy  :   -41.9696488 Eh     change       -0.1664254E-01 Eh
 * total energy  :   -41.9762330 Eh     change       -0.6584134E-02 Eh
 * total energy  :   -42.1036873 Eh     change       -0.4621569E-03 Eh
 * total energy  :   -42.1040591 Eh     change       -0.3718302E-03 Eh
 * total energy  :   -42.1042370 Eh     change       -0.1778480E-03 Eh
 * total energy  :   -42.1043664 Eh     change       -0.1293860E-03 Eh
 * total energy  :   -42.1044525 Eh     change       -0.8612840E-04 Eh
 * total energy  :   -42.1045085 Eh     change       -0.5604336E-04 Eh
 * total energy  :   -42.1045464 Eh     change       -0.3787115E-04 Eh
 * total energy  :   -42.1045716 Eh     change       -0.2520567E-04 Eh
 * total energy  :   -42.1045872 Eh     change       -0.1558372E-04 Eh
   *** GEOMETRY OPTIMIZATION CONVERGED AFTER 34 ITERATIONS ***

 final structure:
================
25
 xtb: 6.6.1 (8d0f1dd)
C            3.29466634004981        1.08714564564309       -0.00529798773562
N            2.33828778163411        0.01276578940706       -0.01012609815568
C            2.60197308253467       -1.29030373562963       -0.04702894024287
N            1.44581295445452       -1.99361515298686       -0.02264002382221
C            0.41278469059889       -1.10650087254204        0.03278029397449
C            0.96941909454441        0.16659367123065        0.04310878915366
C            0.17204201814520        1.35490372698195        0.08906349050722
O            0.55224854360075        2.50424587560249        0.08098512758221
N           -1.22954115245679        1.03898129001334        0.15193975961115
C           -2.08580882735024        2.06816234679289        0.24144988899657
C           -1.79947971247830       -0.26473604308328        0.12173243565982
O           -2.98865807180076       -0.42425376156767        0.14666346520642
N           -0.91516152749293       -1.33920818241058        0.06375493961452
C           -1.45345300978724       -2.68788223748569        0.03710328070337
H            3.79453736430985        1.14540436762047        0.96300471096385
H            4.04366309524835        0.92814479257892       -0.77923414432642
H            2.76997761850076        2.02489878883156       -0.18361902056381
H            3.58028270964536       -1.72510375767020       -0.09275969100598
H           -1.67249934859004        3.05834053063611        0.26614455597699
H           -4.09707231257241        3.45555596706085       -1.40203829021719
H           -3.13748458377863        1.86111587959992        0.28720008114484
H           -1.13231004858809       -3.24308664802814        0.91849429051085
H           -1.13986220148801       -3.20291193616613       -0.87041221891947
H           -2.53985297284270       -2.60957062122764        0.04423098011793
H            1.37591999005950       -3.00084718160133       -0.04332805683459

          :  Hamiltonian                  GFN2-xTB          :
         :: total energy             -42.104587210572 Eh    ::
         :: gradient norm              0.002113207062 Eh/a0 ::
         :: HOMO-LUMO gap              0.293054790476 eV    ::
         :: SCC energy               -42.625501748806 Eh    ::
         :: -> dispersion             -0.022719128719 Eh    ::
         :: repulsion energy           0.520826613931 Eh    ::

    * Orbital Energies and Occupations

         #    Occupation            Energy/Eh            Energy/eV
      -------------------------------------------------------------
         1        2.0000           -0.9115544             -24.8047
       ...           ...                  ...                  ...
        25        2.0000           -0.6712426             -18.2654
        26        2.0000           -0.6692600             -18.2115
        27        2.0000           -0.6630846             -18.0435
        28        1.9999           -0.6333767             -17.2351
        29        1.9999           -0.6299788             -17.1426
        30        1.9999           -0.6279753             -17.0881
        31        1.9998           -0.6190778             -16.8460
        32        1.9997           -0.6145060             -16.7216
        33        1.9997           -0.6133412             -16.6899
        34        1.9982           -0.5854118             -15.9299
        35        1.9940           -0.5668487             -15.4247
        36        1.9901           -0.5588124             -15.2061
        37        1.1092           -0.4782663             -13.0143 (HOMO)
        38        0.7736           -0.4674968             -12.7212 (LUMO)
        39        0.1157           -0.4306152             -11.7176
        40        0.0173           -0.3997345             -10.8773
        41        0.0031           -0.3721702             -10.1273
        42        0.0000           -0.2877513              -7.8301
        43                         -0.2080675              -5.6618
        44                         -0.1971538              -5.3648
        45                         -0.1508557              -4.1050
        46                         -0.1452403              -3.9522
        47                         -0.0791568              -2.1540
        48                         -0.0541603              -1.4738
       ...                                ...                  ...
        67                          0.5482554              14.9188
      -------------------------------------------------------------
                  HL-Gap            0.0107696 Eh            0.2931 eV

     #   Z          covCN         q      C6AA      α(0)
     1   6 C        3.691    -0.094    22.484     6.785
     2   7 N        2.830     0.078    19.890     6.624
     3   6 C        3.050     0.047    26.895     8.505
     4   7 N        2.792    -0.058    22.354     7.022
     5   6 C        3.041     0.106    25.623     8.303
     6   6 C        3.110    -0.023    28.436     8.736
     7   6 C        2.775     0.254    22.724     7.808
     8   8 O        0.857    -0.362    20.930     6.134
     9   7 N        2.741    -0.032    21.857     6.944
    10   6 C        2.816    -0.022    28.549     8.754
    11   6 C        2.738     0.309    21.749     7.636
    12   8 O        0.859    -0.351    20.723     6.103
    13   7 N        2.737    -0.050    22.201     6.998
    14   6 C        3.698    -0.074    22.082     6.721
    15   1 H        0.924     0.108     1.711     2.045
    16   1 H        0.925     0.104     1.747     2.067
    17   1 H        0.925     0.134     1.503     1.917
    18   1 H        0.926     0.124     1.583     1.968
    19   1 H        0.926     0.134     1.502     1.916
    20   1 H        0.000     0.009     7.258     4.926
    21   1 H        0.926     0.132     1.519     1.927
    22   1 H        0.925     0.084     1.934     2.175
    23   1 H        0.925     0.084     1.942     2.179
    24   1 H        0.925     0.128     1.554     1.949
    25   1 H        0.860     0.229     0.969     1.542

Wiberg/Mayer (AO) data.
largest (>0.10) Wiberg bond orders for each atom

     #   Z sym  total        # sym  WBO       # sym  WBO       # sym  WBO
 ---------------------------------------------------------------------------
     1   6 C    3.917 --     2 N    0.986    16 H    0.965    17 H    0.961
                            15 H    0.955
     2   7 N    3.650 --     3 C    1.379     6 C    1.146     1 C    0.986
     3   6 C    3.822 --     2 N    1.379     4 N    1.267    18 H    0.953
     4   7 N    3.580 --     3 C    1.267     5 C    1.194    25 H    0.919
     5   6 C    3.900 --     6 C    1.328     4 N    1.194    13 N    1.191
     6   6 C    3.909 --     5 C    1.328     2 N    1.146     7 C    1.116
     7   6 C    3.869 --     8 O    1.676     6 C    1.116     9 N    0.986
     8   8 O    1.960 --     7 C    1.676     9 N    0.108
     9   7 N    3.615 --    10 C    1.341    11 C    1.017     7 C    0.986
                             8 O    0.108
    10   6 C    3.361 --     9 N    1.341    19 H    0.958    21 H    0.956
    11   6 C    3.906 --    12 O    1.707    13 N    1.087     9 N    1.017
    12   8 O    2.021 --    11 C    1.707    13 N    0.134
    13   7 N    3.565 --     5 C    1.191    11 C    1.087    14 C    0.970
                            12 O    0.134
    14   6 C    3.923 --    23 H    0.972    22 H    0.971    13 N    0.970
                            24 H    0.965
    15   1 H    0.983 --     1 C    0.955
    16   1 H    0.986 --     1 C    0.965
    17   1 H    0.982 --     1 C    0.961
    18   1 H    0.984 --     3 C    0.953
    19   1 H    0.981 --    10 C    0.958
    20   1 H    0.032
    21   1 H    0.982 --    10 C    0.956
    22   1 H    0.991 --    14 C    0.971
    23   1 H    0.991 --    14 C    0.972
    24   1 H    0.983 --    14 C    0.965
    25   1 H    0.947 --     4 N    0.919
 ---------------------------------------------------------------------------

molecular dipole:
                 x           y           z       tot (Debye)
 q only:        2.420      -2.027       0.026
   full:        2.648      -2.480       0.012       9.220

           -------------------------------------------------
          | TOTAL ENERGY              -42.104587210572 Eh   |
          | GRADIENT NORM               0.002113207062 Eh/α |
          | HOMO-LUMO GAP               0.293054790476 eV   |
           -------------------------------------------------

 * finished run on 2024/06/05 at 20:00:17.601
