   * xtb version 6.6.1 (8d0f1dd) compiled by 'conda@1efc2f54142f' on 2023-08-01
          program call               : xtb struc.xyz --opt loose --input .xc1 --gfn2

   ID    Z sym.   atoms
    1    7 N      1, 17
    2    6 C      2-6, 8, 9, 11-16, 18-23, 25, 26, 28-33
    3    8 O      7, 10, 24, 27
    4    1 H      34-72
constraining bond 6 34 to    2.7133300 Å, actual value:    2.1266118 Å

          :  Hamiltonian                  GFN2-xTB          :
 * total energy  :   -99.4655958 Eh     change       -0.4035485E-08 Eh
 * total energy  :   -99.5386482 Eh     change       -0.7305247E-01 Eh
 * total energy  :   -99.6242622 Eh     change       -0.8561394E-01 Eh
 * total energy  :   -99.6677961 Eh     change       -0.4353389E-01 Eh
 * total energy  :   -99.6903108 Eh     change       -0.2251479E-01 Eh
 * total energy  :   -99.7123715 Eh     change       -0.2206066E-01 Eh
 * total energy  :   -99.7219528 Eh     change       -0.9581257E-02 Eh
 * total energy  :   -99.7414110 Eh     change       -0.1945822E-01 Eh
 * total energy  :   -99.7504799 Eh     change       -0.9068889E-02 Eh
 * total energy  :   -99.7646254 Eh     change       -0.1414550E-01 Eh
 * total energy  :   -99.8575530 Eh     change       -0.9448740E-04 Eh
 * total energy  :   -99.8576186 Eh     change       -0.6561401E-04 Eh
 * total energy  :   -99.8576842 Eh     change       -0.6554308E-04 Eh
 * total energy  :   -99.8577402 Eh     change       -0.5597636E-04 Eh
 * total energy  :   -99.8578251 Eh     change       -0.8496572E-04 Eh
 * total energy  :   -99.8578935 Eh     change       -0.6841707E-04 Eh
 * total energy  :   -99.8579575 Eh     change       -0.6397645E-04 Eh
 * total energy  :   -99.8580140 Eh     change       -0.5648654E-04 Eh
 * total energy  :   -99.8580615 Eh     change       -0.4753641E-04 Eh
   *** GEOMETRY OPTIMIZATION CONVERGED AFTER 75 ITERATIONS ***

 final structure:
================
72
 xtb: 6.6.1 (8d0f1dd)
N           -1.69708827296698        3.12798912951799        2.29760516168855
C           -1.78714811673266        2.28333564639680        1.38036214046753
C           -2.97459177205378        2.14403785127210        0.47166524521428
C           -3.44506274812406        0.69812292198295        0.48738686823877
C           -4.09565153238941        0.16576622084784       -0.56185622037264
C           -4.52473944948392       -1.23857395791318       -0.71633337406100
O           -3.55438444097617       -1.88224013458701       -1.60076206441593
C           -4.06664660020827       -2.15114846830894       -2.88621835367461
C           -4.41675620155899       -1.96799650165838        0.62775454687709
O           -5.04216122451699       -3.14761828121828        0.58866881577230
C           -5.08743205429646       -3.95219781115519        1.74856715299794
C           -3.73875843395195       -1.41650840785574        1.68375329204285
C           -3.22372254155907       -0.12229970906595        1.62581258419853
C           -2.49427172580742        2.52854151371826       -0.95282563699432
C           -1.64091602267843        1.47290236746655       -1.67712825398572
C           -0.31660458608119        1.25880427504292       -1.06469790477649
N            0.25697901657421        0.08835786624264       -0.84756985904386
C            1.62719616312407        0.02143784410797       -0.39397871812723
C            2.59066398692259       -0.37037970293100       -1.53126443259144
C            4.01298537627898       -0.19617284973135       -1.07641415914714
C            4.65244129692262        1.02355690151086       -1.22923774893559
C            5.95336528887603        1.20446163268409       -0.78669770977513
C            6.64162647504607        0.16701156600158       -0.17412498312493
O            7.90197894768711        0.22934915991543        0.29311594239441
C            8.62771650379385        1.42944063514764        0.15548699540328
C            5.99262553851447       -1.08822311257256       -0.00970917436631
O            6.73329165750254       -2.03992126424792        0.59203753993304
C            6.19062025688539       -3.32548993624233        0.77625626536617
C            4.69101813966820       -1.24518738080479       -0.46054668520877
C           -0.37508417364725       -1.16659885645151       -1.17726536860229
C           -4.18793325481691        3.03755477366501        0.86098845740455
C           -4.70896032937639        2.70975619743549        2.25777817241967
C           -3.89025999543936        4.53176863962279        0.76841377063022
H           -5.30380147338333       -1.33156578004845       -1.03013857890737
H           -4.90087531126548       -2.85863170302821       -2.84346275397223
H           -3.24892729989998       -2.59130641986101       -3.45178528980693
H           -4.39844892093860       -1.23147538201593       -3.37988301471311
H           -5.56695151739660       -3.42274502989012        2.57633020912066
H           -5.67712588810784       -4.82616301349671        1.48069936369095
H           -4.08393932743707       -4.26769760143727        2.04853865773606
H           -3.60853059061736       -1.97749421942181        2.59828862130858
H           -2.67100129700725        0.26868187815840        2.46689021025606
H           -3.38139742712687        2.69755840293674       -1.56277360936339
H           -1.93573438236741        3.46285492657547       -0.88950831857100
H           -2.21192269070498        0.54778544539353       -1.75903018575888
H           -1.47767963846629        1.85137779683175       -2.69447827155726
H           -0.98350213568310        1.57095646241204        1.11794641412041
H            0.27415458027188        2.13625820233025       -0.84065556551958
H            1.70287259460250       -0.70986337316534        0.41572820987225
H            1.92512538503279        0.99653655095201       -0.00281768325656
H            2.39810843752786        0.27579266220563       -2.38967032630816
H            2.41223407460943       -1.40412011055727       -1.82796678156744
H            4.14272864562477        1.84497174730589       -1.70974092364931
H            6.42666173695284        2.16207794697332       -0.92869009451351
H            8.14796871512370        2.25192332444797        0.69485610067816
H            8.75120638271338        1.70446680861129       -0.89625620097689
H            9.60404013273011        1.23190321287999        0.59380121473883
H            6.97385246856147       -3.90578522051124        1.26015589669917
H            5.30808844520004       -3.30005225047139        1.42352879257888
H            5.93187483005153       -3.79293882069323       -0.17885408508391
H            4.19412954878013       -2.19604885663660       -0.34752261384870
H           -0.33384083241170       -1.35315626631317       -2.25319701913519
H           -1.42288958789496       -1.18155916743354       -0.87383354329060
H            0.14342559215207       -1.97279244112954       -0.66372514211402
H           -4.97731367079125        2.79315781282679        0.13934625394158
H           -3.95676261487457        2.94906161578793        3.00353300697888
H           -4.97648867299944        1.65904858970953        2.34423511109458
H           -5.59631190970565        3.30264339822943        2.46264567068892
H           -3.07068778256912        4.79020640395383        1.43162258352475
H           -3.64368224747428        4.83591583513262       -0.24465082973411
H           -4.77021400622935        5.08979896643042        1.07727469420081
H           -0.83626191868616        3.15291842069163        2.83546235917722

          :  Hamiltonian                  GFN2-xTB          :
         :: total energy             -99.858061538947 Eh    ::
         :: gradient norm              0.003478236863 Eh/a0 ::
         :: HOMO-LUMO gap              0.422735700383 eV    ::
         :: SCC energy              -100.671323931928 Eh    ::
         :: -> dispersion             -0.075073504716 Eh    ::
         :: repulsion energy           1.435155777509 Eh    ::

    * Orbital Energies and Occupations

         #    Occupation            Energy/Eh            Energy/eV
      -------------------------------------------------------------
         1        2.0000           -0.8246203             -22.4391
       ...           ...                  ...                  ...
        78        1.9984           -0.5291498             -14.3989
        79        1.9983           -0.5278976             -14.3648
        80        1.9980           -0.5255841             -14.3019
        81        1.9970           -0.5195927             -14.1388
        82        1.9959           -0.5143716             -13.9968
        83        1.9942           -0.5087364             -13.8434
        84        1.9939           -0.5080686             -13.8252
        85        1.9884           -0.4979166             -13.5490
        86        1.9786           -0.4880658             -13.2809
        87        1.9678           -0.4815162             -13.1027
        88        1.9282           -0.4684948             -12.7484
        89        1.8437           -0.4554744             -12.3941
        90        1.2167           -0.4233723             -11.5205 (HOMO)
        91        0.7360           -0.4078370             -11.0978 (LUMO)
        92        0.3546           -0.3920972             -10.6695
        93        0.0124           -0.3359704              -9.1422
        94        0.0027           -0.3119436              -8.4884
        95        0.0024           -0.3097339              -8.4283
        96        0.0015           -0.3027738              -8.2389
        97        0.0000           -0.2406047              -6.5472
        98        0.0000           -0.1871202              -5.0918
        99                         -0.1315948              -3.5809
       100                         -0.0795080              -2.1635
       101                         -0.0666328              -1.8132
       ...                                ...                  ...
       171                          0.8156879              22.1960
      -------------------------------------------------------------
                  HL-Gap            0.0155353 Eh            0.4227 eV

     #   Z          covCN         q      C6AA      α(0)
     1   7 N        1.774    -0.273    27.900     7.822
     2   6 C        2.826     0.103    25.719     8.310
     3   6 C        3.909     0.009    20.374     6.416
     4   6 C        2.963     0.012    27.751     8.641
     5   6 C        1.994    -0.124    34.501     9.486
     6   6 C        3.749     0.104    18.925     6.205
     7   8 O        1.695    -0.332    19.558     5.971
     8   6 C        3.640     0.037    20.304     6.480
     9   6 C        2.853     0.135    25.046     8.202
    10   8 O        1.705    -0.215    17.568     5.659
    11   6 C        3.645     0.022    20.533     6.512
    12   6 C        2.898    -0.074    29.841     8.957
    13   6 C        2.925    -0.037    28.923     8.820
    14   6 C        3.812    -0.066    21.753     6.639
    15   6 C        3.802    -0.075    21.941     6.669
    16   6 C        2.845     0.015    27.674     8.621
    17   7 N        2.729     0.023    20.853     6.782
    18   6 C        3.758    -0.017    20.936     6.523
    19   6 C        3.808    -0.071    21.845     6.653
    20   6 C        2.969    -0.000    28.031     8.684
    21   6 C        2.922    -0.049    29.221     8.865
    22   6 C        2.914    -0.068    29.685     8.934
    23   6 C        2.865     0.133    25.081     8.209
    24   8 O        1.706    -0.222    17.681     5.677
    25   6 C        3.645     0.025    20.488     6.505
    26   6 C        2.863     0.133    25.088     8.210
    27   8 O        1.706    -0.225    17.726     5.684
    28   6 C        3.644     0.027    20.456     6.501
    29   6 C        2.919    -0.079    29.984     8.979
    30   6 C        3.700    -0.078    22.159     6.732
    31   6 C        3.854    -0.008    20.684     6.468
    32   6 C        3.756    -0.115    22.764     6.803
    33   6 C        3.756    -0.121    22.876     6.820
    34   1 H        0.930     0.098     1.803     2.100
    35   1 H        0.924     0.046     2.365     2.405
    36   1 H        0.925     0.063     2.167     2.302
    37   1 H        0.924     0.042     2.421     2.433
    38   1 H        0.924     0.062     2.181     2.309
    39   1 H        0.925     0.085     1.925     2.170
    40   1 H        0.924     0.059     2.205     2.322
    41   1 H        0.926     0.056     2.251     2.346
    42   1 H        0.926     0.049     2.332     2.388
    43   1 H        0.925     0.072     2.060     2.245
    44   1 H        0.924     0.055     2.258     2.350
    45   1 H        0.924     0.088     1.898     2.154
    46   1 H        0.924     0.086     1.920     2.167
    47   1 H        0.922    -0.000     3.063     2.737
    48   1 H        0.925     0.071     2.072     2.251
    49   1 H        0.924     0.068     2.107     2.270
    50   1 H        0.924     0.067     2.117     2.275
    51   1 H        0.924     0.056     2.252     2.347
    52   1 H        0.925     0.057     2.229     2.335
    53   1 H        0.926     0.045     2.384     2.414
    54   1 H        0.926     0.058     2.218     2.329
    55   1 H        0.924     0.054     2.270     2.356
    56   1 H        0.924     0.056     2.246     2.344
    57   1 H        0.925     0.082     1.955     2.186
    58   1 H        0.925     0.082     1.960     2.189
    59   1 H        0.924     0.049     2.335     2.390
    60   1 H        0.924     0.053     2.285     2.364
    61   1 H        0.926     0.048     2.346     2.395
    62   1 H        0.924     0.081     1.965     2.192
    63   1 H        0.924     0.102     1.770     2.081
    64   1 H        0.925     0.078     1.996     2.210
    65   1 H        0.924     0.042     2.424     2.435
    66   1 H        0.925     0.062     2.171     2.304
    67   1 H        0.925     0.033     2.540     2.492
    68   1 H        0.925     0.052     2.300     2.371
    69   1 H        0.925     0.066     2.125     2.279
    70   1 H        0.925     0.038     2.481     2.463
    71   1 H        0.925     0.054     2.267     2.354
    72   1 H        0.860     0.154     1.372     1.835

Wiberg/Mayer (AO) data.
largest (>0.10) Wiberg bond orders for each atom

     #   Z sym  total        # sym  WBO       # sym  WBO       # sym  WBO
 ---------------------------------------------------------------------------
     1   7 N    3.024 --     2 C    1.950    72 H    0.943
     2   6 C    3.935 --     1 N    1.950     3 C    0.996    47 H    0.915
     3   6 C    3.961 --     2 C    0.996     4 C    0.958    14 C    0.954
                            31 C    0.943
     4   6 C    3.934 --     5 C    1.614    13 C    1.220     3 C    0.958
     5   6 C    2.830 --     4 C    1.614     6 C    1.027
     6   6 C    3.909 --     5 C    1.027    34 H    0.953     9 C    0.930
                             7 O    0.911
     7   8 O    2.009 --     8 C    0.993     6 C    0.911
     8   6 C    3.939 --     7 O    0.993    37 H    0.977    35 H    0.977
                            36 H    0.975
     9   6 C    3.652 --    12 C    1.466    10 O    1.147     6 C    0.930
    10   8 O    2.257 --     9 C    1.147    11 C    0.964
    11   6 C    3.920 --    39 H    0.977    38 H    0.973    40 H    0.972
                            10 O    0.964
    12   6 C    3.959 --     9 C    1.466    13 C    1.371    41 H    0.953
    13   6 C    3.626 --    12 C    1.371     4 C    1.220    42 H    0.957
    14   6 C    3.971 --    15 C    0.980    44 H    0.973    43 H    0.966
                             3 C    0.954
    15   6 C    3.973 --    16 C    1.067    14 C    0.980    45 H    0.943
                            46 H    0.921
    16   6 C    3.620 --    17 N    1.437    15 C    1.067    48 H    0.955
    17   7 N    3.508 --    16 C    1.437    30 C    0.996    18 C    0.987
    18   6 C    3.955 --    17 N    0.987    50 H    0.968    19 C    0.967
                            49 H    0.963
    19   6 C    3.978 --    20 C    1.008    52 H    0.972    51 H    0.972
                            18 C    0.967
    20   6 C    3.945 --    21 C    1.408    29 C    1.381    19 C    1.008
    21   6 C    3.950 --    22 C    1.417    20 C    1.408    53 H    0.968
    22   6 C    3.960 --    21 C    1.417    23 C    1.383    54 H    0.963
    23   6 C    3.895 --    22 C    1.383    26 C    1.220    24 O    1.110
    24   8 O    2.255 --    23 C    1.110    25 C    0.976
    25   6 C    3.928 --    57 H    0.977    24 O    0.976    55 H    0.973
                            56 H    0.973
    26   6 C    3.898 --    29 C    1.394    23 C    1.220    27 O    1.104
    27   8 O    2.255 --    26 C    1.104    28 C    0.978
    28   6 C    3.932 --    27 O    0.978    58 H    0.977    59 H    0.973
                            60 H    0.973
    29   6 C    3.959 --    26 C    1.394    20 C    1.381    61 H    0.962
    30   6 C    3.949 --    17 N    0.996    64 H    0.977    62 H    0.962
                            63 H    0.957
    31   6 C    3.971 --    32 C    1.009    33 C    1.007    65 H    0.961
                             3 C    0.943
    32   6 C    3.979 --    31 C    1.009    68 H    0.981    67 H    0.979
                            66 H    0.976
    33   6 C    3.977 --    31 C    1.007    70 H    0.982    71 H    0.980
                            69 H    0.974
    34   1 H    0.976 --     6 C    0.953
    35   1 H    0.995 --     8 C    0.977
    36   1 H    0.993 --     8 C    0.975
    37   1 H    0.995 --     8 C    0.977
    38   1 H    0.991 --    11 C    0.973
    39   1 H    0.992 --    11 C    0.977
    40   1 H    0.991 --    11 C    0.972
    41   1 H    0.986 --    12 C    0.953
    42   1 H    0.986 --    13 C    0.957
    43   1 H    0.993 --    14 C    0.966
    44   1 H    0.996 --    14 C    0.973
    45   1 H    0.991 --    15 C    0.943
    46   1 H    0.970 --    15 C    0.921
    47   1 H    0.985 --     2 C    0.915
    48   1 H    0.994 --    16 C    0.955
    49   1 H    0.990 --    18 C    0.963
    50   1 H    0.995 --    18 C    0.968
    51   1 H    0.996 --    19 C    0.972
    52   1 H    0.996 --    19 C    0.972
    53   1 H    0.997 --    21 C    0.968
    54   1 H    0.995 --    22 C    0.963
    55   1 H    0.992 --    25 C    0.973
    56   1 H    0.992 --    25 C    0.973
    57   1 H    0.992 --    25 C    0.977
    58   1 H    0.993 --    28 C    0.977
    59   1 H    0.993 --    28 C    0.973
    60   1 H    0.993 --    28 C    0.973
    61   1 H    0.996 --    29 C    0.962
    62   1 H    0.983 --    30 C    0.962
    63   1 H    0.985 --    30 C    0.957
    64   1 H    0.993 --    30 C    0.977
    65   1 H    0.991 --    31 C    0.961
    66   1 H    0.992 --    32 C    0.976
    67   1 H    0.997 --    32 C    0.979
    68   1 H    0.994 --    32 C    0.981
    69   1 H    0.991 --    33 C    0.974
    70   1 H    0.996 --    33 C    0.982
    71   1 H    0.993 --    33 C    0.980
    72   1 H    0.971 --     1 N    0.943
 ---------------------------------------------------------------------------

molecular dipole:
                 x           y           z       tot (Debye)
 q only:        0.285      -0.381      -0.607
   full:        0.394      -0.784      -0.553       2.636

           -------------------------------------------------
          | TOTAL ENERGY              -99.858061538947 Eh   |
          | GRADIENT NORM               0.003478236863 Eh/α |
          | HOMO-LUMO GAP               0.422735700383 eV   |
           -------------------------------------------------

 * finished run on 2024/04/06 at 11:16:05.271
