   * xtb version 6.6.1 (8d0f1dd) compiled by 'conda@1efc2f54142f' on 2023-08-01
          program call               : xtb xtbopt.xyz --opt crude --input .xc2 --gfn2

   ID    Z sym.   atoms
    1    7 N      1, 17
    2    6 C      2-6, 8, 9, 11-16, 18-23, 25, 26, 28-33
    3    8 O      7, 10, 24, 27
    4    1 H      34-72
########################################################################
[WARNING] Please study the warnings concerning your input carefully
-1- readin_getIntValue: could not parse ''
########################################################################

          :  Hamiltonian                  GFN2-xTB          :
 * total energy  :   -99.2348069 Eh     change       -0.4938272E-10 Eh
 * total energy  :   -99.2954307 Eh     change       -0.6062377E-01 Eh
 * total energy  :   -99.2968701 Eh     change       -0.1439371E-02 Eh
 * total energy  :   -99.2975511 Eh     change       -0.6810330E-03 Eh
 * total energy  :   -99.2976008 Eh     change       -0.4971940E-04 Eh
   *** GEOMETRY OPTIMIZATION CONVERGED AFTER 5 ITERATIONS ***

 final structure:
================
72
 xtb: 6.6.1 (8d0f1dd)
N           -1.69675683746808        3.13397642539272        2.30025478534861
C           -1.78475110374322        2.28894583499293        1.38317056703701
C           -2.97167041837206        2.14666221619917        0.47438946300462
C           -3.43816931482467        0.69966143291083        0.48932958723550
C           -4.06835595307391        0.15855339195471       -0.57057815951606
C           -4.46634298318705       -1.24737161202432       -0.70624800475103
O           -3.54846533437520       -1.90719800439099       -1.60048302445048
C           -4.05811445047790       -2.16660408047388       -2.88645270224866
C           -4.40444089191304       -1.97181022624943        0.62892082199192
O           -5.03167844567325       -3.14978098114256        0.59016904051551
C           -5.08317404678635       -3.95214483920196        1.75306222954369
C           -3.74225211511993       -1.41178127976362        1.69248829343859
C           -3.22862933266181       -0.11711961103792        1.63227265407982
C           -2.49296269716864        2.53168465323047       -0.95060776588128
C           -1.63958731614524        1.47735593514463       -1.67682094333492
C           -0.31570778127197        1.26054022355436       -1.06416679884717
N            0.25825834210514        0.09019427271516       -0.84923097119687
C            1.62785773269257        0.02199156963260       -0.39428096473324
C            2.59214711183063       -0.36495824346295       -1.53271990298982
C            4.01413379384001       -0.19255543628814       -1.07655986988123
C            4.65461229973775        1.02668226261701       -1.22805328091158
C            5.95550122620421        1.20601565580521       -0.78480767068736
C            6.64207716261370        0.16680534645450       -0.17358446649780
O            7.90283296696404        0.22674138300601        0.29336366408924
C            8.63002087286373        1.42588013711128        0.15550180563047
C            5.99193661433353       -1.08795052664864       -0.01024612081254
O            6.73211765857758       -2.04097425070560        0.59006462268019
C            6.18755509344132       -3.32605516229675        0.77219443774853
C            4.69025025754061       -1.24311868932975       -0.46104243637391
C           -0.37220498448185       -1.16461546870004       -1.18209572002298
C           -4.18585858346388        3.03922412680850        0.86412049518390
C           -4.70659784646955        2.71137573202806        2.26120909861616
C           -3.88948763937762        4.53392405214899        0.77128701613911
H           -5.48418431156626       -1.35494179908986       -1.10850013818385
H           -4.90700907987463       -2.85628648452510       -2.84504013863676
H           -3.24555371540572       -2.62833936258437       -3.44518509494114
H           -4.36660316454202       -1.24259183529502       -3.38750521217358
H           -5.56559873116481       -3.41919370480997        2.57656892814476
H           -5.67584680923247       -4.82417738444136        1.48415338180860
H           -4.08247951289443       -4.26970289625808        2.05751869830462
H           -3.62388194229403       -1.96671566098883        2.61108761359482
H           -2.68598043776368        0.27892875504252        2.47670270997425
H           -3.38160582896237        2.69842537653357       -1.55905243011857
H           -1.93627125582014        3.46726325648118       -0.88898315831543
H           -2.21275963887059        0.55343485545727       -1.76036131611722
H           -1.47573482242411        1.85751935692380       -2.69322114449765
H           -0.97991767408565        1.57638381152508        1.12603668637176
H            0.27503615973041        2.13684425586384       -0.83684765039354
H            1.70270011939087       -0.71290451813854        0.41212810818794
H            1.92558206577862        0.99535542154036        0.00125369204109
H            2.39987237413426        0.28479010318022       -2.38845536768895
H            2.41395254754836       -1.39742460630813       -1.83389206840858
H            4.14502244060500        1.84833606740442       -1.70822781781945
H            6.42970940300459        2.16332877466555       -0.92531303560208
H            8.15163854272070        2.24881567765452        0.69532232586805
H            8.75299642016595        1.70079074961084       -0.89632502090925
H            9.60638730985810        1.22710881932193        0.59301895159245
H            6.97000967643273       -3.90874684850534        1.25444911268584
H            5.30545345108620       -3.30030506850660        1.42006532101961
H            5.92740760228917       -3.79104853683959       -0.18373018362806
H            4.19123813585379       -2.19294149872550       -0.34900262582427
H           -0.32643433436256       -1.35022659776493       -2.25740158629203
H           -1.42006357112130       -1.17954370415698       -0.88266867947466
H            0.14457332042466       -1.97156076737087       -0.66822533725938
H           -4.97539441291266        2.79429280094082        0.14288822508348
H           -3.95599916199352        2.95474579445552        3.00721209495428
H           -4.97004046183584        1.65963839096222        2.34848839003569
H           -5.59668304389137        3.30077590546576        2.46453082710233
H           -3.06630421112191        4.79254259592170        1.43003464324548
H           -3.64917637269370        4.83919763270493       -0.24306007716077
H           -4.76800876627292        5.09106639150761        1.08606664345163
H           -0.83762576757975        3.15902976365564        2.84091679343699

          :  Hamiltonian                  GFN2-xTB          :
         :: total energy             -99.297600834505 Eh    ::
         :: gradient norm              0.001723035254 Eh/a0 ::
         :: HOMO-LUMO gap              0.439706015273 eV    ::
         :: SCC energy              -100.650074062828 Eh    ::
         :: -> dispersion             -0.075052725984 Eh    ::
         :: repulsion energy           1.351114676870 Eh    ::

    * Orbital Energies and Occupations

         #    Occupation            Energy/Eh            Energy/eV
      -------------------------------------------------------------
         1        2.0000           -0.8240561             -22.4237
       ...           ...                  ...                  ...
        78        1.9984           -0.5290852             -14.3971
        79        1.9983           -0.5278880             -14.3646
        80        1.9980           -0.5255565             -14.3011
        81        1.9971           -0.5196205             -14.1396
        82        1.9959           -0.5143647             -13.9966
        83        1.9941           -0.5086721             -13.8417
        84        1.9939           -0.5079842             -13.8230
        85        1.9878           -0.4969707             -13.5233
        86        1.9787           -0.4880837             -13.2814
        87        1.9676           -0.4813958             -13.0994
        88        1.9280           -0.4684116             -12.7461
        89        1.8442           -0.4554920             -12.3946
        90        1.2254           -0.4236209             -11.5273 (HOMO)
        91        0.7262           -0.4074620             -11.0876 (LUMO)
        92        0.3561           -0.3921393             -10.6707
        93        0.0124           -0.3360231              -9.1437
        94        0.0027           -0.3119566              -8.4888
        95        0.0024           -0.3097204              -8.4279
        96        0.0016           -0.3030883              -8.2475
        97        0.0000           -0.2404891              -6.5440
        98        0.0000           -0.1870993              -5.0912
        99                         -0.1315883              -3.5807
       100                         -0.0784368              -2.1344
       101                         -0.0655971              -1.7850
       ...                                ...                  ...
       171                          0.5766238              15.6907
      -------------------------------------------------------------
                  HL-Gap            0.0161589 Eh            0.4397 eV

     #   Z          covCN         q      C6AA      α(0)
     1   7 N        1.774    -0.273    27.904     7.822
     2   6 C        2.826     0.103    25.717     8.310
     3   6 C        3.909     0.009    20.372     6.415
     4   6 C        2.963     0.011    27.760     8.642
     5   6 C        1.994    -0.123    34.478     9.483
     6   6 C        3.748     0.119    18.692     6.166
     7   8 O        1.698    -0.320    19.348     5.939
     8   6 C        3.639     0.037    20.316     6.483
     9   6 C        2.853     0.138    24.988     8.193
    10   8 O        1.705    -0.214    17.562     5.658
    11   6 C        3.645     0.022    20.538     6.513
    12   6 C        2.898    -0.074    29.848     8.958
    13   6 C        2.924    -0.037    28.919     8.819
    14   6 C        3.811    -0.066    21.754     6.639
    15   6 C        3.802    -0.075    21.937     6.668
    16   6 C        2.845     0.015    27.677     8.622
    17   7 N        2.729     0.023    20.858     6.783
    18   6 C        3.758    -0.017    20.935     6.523
    19   6 C        3.808    -0.071    21.845     6.653
    20   6 C        2.969    -0.000    28.033     8.685
    21   6 C        2.922    -0.049    29.222     8.865
    22   6 C        2.914    -0.068    29.684     8.934
    23   6 C        2.865     0.133    25.081     8.209
    24   8 O        1.706    -0.222    17.682     5.677
    25   6 C        3.645     0.025    20.488     6.505
    26   6 C        2.863     0.133    25.087     8.210
    27   8 O        1.706    -0.225    17.726     5.684
    28   6 C        3.645     0.027    20.455     6.501
    29   6 C        2.919    -0.079    29.985     8.980
    30   6 C        3.700    -0.078    22.149     6.730
    31   6 C        3.854    -0.008    20.683     6.468
    32   6 C        3.756    -0.115    22.763     6.803
    33   6 C        3.755    -0.121    22.876     6.820
    34   1 H        0.923     0.066     2.128     2.281
    35   1 H        0.924     0.048     2.351     2.398
    36   1 H        0.925     0.063     2.159     2.298
    37   1 H        0.924     0.043     2.411     2.428
    38   1 H        0.924     0.062     2.176     2.307
    39   1 H        0.925     0.086     1.921     2.168
    40   1 H        0.924     0.060     2.200     2.319
    41   1 H        0.926     0.056     2.250     2.346
    42   1 H        0.926     0.049     2.331     2.388
    43   1 H        0.925     0.072     2.059     2.244
    44   1 H        0.924     0.055     2.257     2.350
    45   1 H        0.924     0.088     1.901     2.156
    46   1 H        0.924     0.086     1.920     2.167
    47   1 H        0.922    -0.001     3.071     2.740
    48   1 H        0.926     0.071     2.073     2.251
    49   1 H        0.924     0.068     2.108     2.270
    50   1 H        0.924     0.067     2.117     2.276
    51   1 H        0.924     0.055     2.253     2.347
    52   1 H        0.925     0.057     2.230     2.335
    53   1 H        0.926     0.045     2.384     2.414
    54   1 H        0.926     0.058     2.217     2.329
    55   1 H        0.924     0.054     2.270     2.356
    56   1 H        0.924     0.056     2.247     2.344
    57   1 H        0.925     0.082     1.955     2.187
    58   1 H        0.925     0.082     1.960     2.189
    59   1 H        0.924     0.049     2.336     2.390
    60   1 H        0.924     0.053     2.286     2.364
    61   1 H        0.926     0.048     2.347     2.396
    62   1 H        0.924     0.081     1.967     2.193
    63   1 H        0.925     0.101     1.777     2.084
    64   1 H        0.925     0.078     1.998     2.210
    65   1 H        0.924     0.042     2.425     2.435
    66   1 H        0.925     0.062     2.171     2.304
    67   1 H        0.925     0.033     2.540     2.492
    68   1 H        0.925     0.052     2.300     2.372
    69   1 H        0.925     0.066     2.125     2.279
    70   1 H        0.925     0.038     2.481     2.463
    71   1 H        0.925     0.054     2.266     2.354
    72   1 H        0.860     0.154     1.372     1.835

Wiberg/Mayer (AO) data.
largest (>0.10) Wiberg bond orders for each atom

     #   Z sym  total        # sym  WBO       # sym  WBO       # sym  WBO
 ---------------------------------------------------------------------------
     1   7 N    3.024 --     2 C    1.950    72 H    0.943
     2   6 C    3.935 --     1 N    1.950     3 C    0.996    47 H    0.915
     3   6 C    3.961 --     2 C    0.996     4 C    0.959    14 C    0.954
                            31 C    0.943
     4   6 C    3.933 --     5 C    1.607    13 C    1.222     3 C    0.959
     5   6 C    2.830 --     4 C    1.607     6 C    1.031
     6   6 C    3.913 --     5 C    1.031     9 C    0.938     7 O    0.929
                            34 H    0.928
     7   8 O    2.029 --     8 C    0.990     6 C    0.929
     8   6 C    3.937 --     7 O    0.990    37 H    0.977    36 H    0.975
                            35 H    0.975
     9   6 C    3.657 --    12 C    1.461    10 O    1.148     6 C    0.938
    10   8 O    2.258 --     9 C    1.148    11 C    0.963
    11   6 C    3.919 --    39 H    0.977    38 H    0.973    40 H    0.973
                            10 O    0.963
    12   6 C    3.958 --     9 C    1.461    13 C    1.372    41 H    0.953
    13   6 C    3.631 --    12 C    1.372     4 C    1.222    42 H    0.957
    14   6 C    3.971 --    15 C    0.980    44 H    0.973    43 H    0.966
                             3 C    0.954
    15   6 C    3.972 --    16 C    1.067    14 C    0.980    45 H    0.941
                            46 H    0.921
    16   6 C    3.619 --    17 N    1.437    15 C    1.067    48 H    0.955
    17   7 N    3.507 --    16 C    1.437    30 C    0.996    18 C    0.987
    18   6 C    3.955 --    17 N    0.987    50 H    0.968    19 C    0.967
                            49 H    0.963
    19   6 C    3.978 --    20 C    1.008    52 H    0.972    51 H    0.972
                            18 C    0.967
    20   6 C    3.945 --    21 C    1.409    29 C    1.381    19 C    1.008
    21   6 C    3.950 --    22 C    1.417    20 C    1.409    53 H    0.968
    22   6 C    3.960 --    21 C    1.417    23 C    1.383    54 H    0.963
    23   6 C    3.895 --    22 C    1.383    26 C    1.220    24 O    1.110
    24   8 O    2.255 --    23 C    1.110    25 C    0.976
    25   6 C    3.928 --    57 H    0.977    24 O    0.976    55 H    0.973
                            56 H    0.973
    26   6 C    3.899 --    29 C    1.395    23 C    1.220    27 O    1.104
    27   8 O    2.255 --    26 C    1.104    28 C    0.978
    28   6 C    3.932 --    27 O    0.978    58 H    0.977    59 H    0.973
                            60 H    0.973
    29   6 C    3.959 --    26 C    1.395    20 C    1.381    61 H    0.963
    30   6 C    3.950 --    17 N    0.996    64 H    0.977    62 H    0.962
                            63 H    0.957
    31   6 C    3.971 --    32 C    1.009    33 C    1.007    65 H    0.961
                             3 C    0.943
    32   6 C    3.979 --    31 C    1.009    68 H    0.981    67 H    0.979
                            66 H    0.976
    33   6 C    3.977 --    31 C    1.007    70 H    0.982    71 H    0.980
                            69 H    0.974
    34   1 H    0.967 --     6 C    0.928
    35   1 H    0.994 --     8 C    0.975
    36   1 H    0.993 --     8 C    0.975
    37   1 H    0.995 --     8 C    0.977
    38   1 H    0.991 --    11 C    0.973
    39   1 H    0.992 --    11 C    0.977
    40   1 H    0.991 --    11 C    0.973
    41   1 H    0.986 --    12 C    0.953
    42   1 H    0.986 --    13 C    0.957
    43   1 H    0.993 --    14 C    0.966
    44   1 H    0.996 --    14 C    0.973
    45   1 H    0.991 --    15 C    0.941
    46   1 H    0.969 --    15 C    0.921
    47   1 H    0.985 --     2 C    0.915
    48   1 H    0.994 --    16 C    0.955
    49   1 H    0.990 --    18 C    0.963
    50   1 H    0.995 --    18 C    0.968
    51   1 H    0.996 --    19 C    0.972
    52   1 H    0.996 --    19 C    0.972
    53   1 H    0.997 --    21 C    0.968
    54   1 H    0.995 --    22 C    0.963
    55   1 H    0.992 --    25 C    0.973
    56   1 H    0.992 --    25 C    0.973
    57   1 H    0.992 --    25 C    0.977
    58   1 H    0.993 --    28 C    0.977
    59   1 H    0.993 --    28 C    0.973
    60   1 H    0.993 --    28 C    0.973
    61   1 H    0.996 --    29 C    0.963
    62   1 H    0.983 --    30 C    0.962
    63   1 H    0.985 --    30 C    0.957
    64   1 H    0.993 --    30 C    0.977
    65   1 H    0.991 --    31 C    0.961
    66   1 H    0.992 --    32 C    0.976
    67   1 H    0.997 --    32 C    0.979
    68   1 H    0.994 --    32 C    0.981
    69   1 H    0.991 --    33 C    0.974
    70   1 H    0.996 --    33 C    0.982
    71   1 H    0.993 --    33 C    0.980
    72   1 H    0.971 --     1 N    0.943
 ---------------------------------------------------------------------------

molecular dipole:
                 x           y           z       tot (Debye)
 q only:        0.315      -0.395      -0.609
   full:        0.411      -0.791      -0.551       2.663

           -------------------------------------------------
          | TOTAL ENERGY              -99.297600834505 Eh   |
          | GRADIENT NORM               0.001723035254 Eh/α |
          | HOMO-LUMO GAP               0.439706015273 eV   |
           -------------------------------------------------

 * finished run on 2024/04/06 at 11:16:06.399
