   * xtb version 6.6.1 (8d0f1dd) compiled by 'conda@1efc2f54142f' on 2023-08-01
          program call               : xtb struc.xyz --opt loose --input .xc1 --gfn2

   ID    Z sym.   atoms
    1    6 C      1, 3, 5-7, 10, 11, 14
    2    7 N      2, 4, 9, 13
    3    8 O      8, 12
    4    1 H      15-25
constraining bond 2 17 to    4.0600000 Å, actual value:    2.0658315 Å

          :  Hamiltonian                  GFN2-xTB          :
 * total energy  :   -35.1447434 Eh     change       -0.6633627E-10 Eh
 * total energy  :   -38.1431299 Eh     change       -0.2998386E+01 Eh
 * total energy  :   -40.2348645 Eh     change       -0.2091735E+01 Eh
 * total energy  :   -41.3290039 Eh     change       -0.1094139E+01 Eh
 * total energy  :   -41.6971351 Eh     change       -0.3681313E+00 Eh
 * total energy  :   -41.8061938 Eh     change       -0.1090587E+00 Eh
 * total energy  :   -41.8725056 Eh     change       -0.6631178E-01 Eh
 * total energy  :   -41.9488016 Eh     change       -0.7629598E-01 Eh
 * total energy  :   -41.9805860 Eh     change       -0.3178438E-01 Eh
 * total energy  :   -41.9941562 Eh     change       -0.1357023E-01 Eh
 * total energy  :   -42.1866161 Eh     change       -0.3846855E-03 Eh
 * total energy  :   -42.1869121 Eh     change       -0.2960145E-03 Eh
 * total energy  :   -42.1871415 Eh     change       -0.2294742E-03 Eh
 * total energy  :   -42.1873488 Eh     change       -0.2073064E-03 Eh
 * total energy  :   -42.1875262 Eh     change       -0.1773075E-03 Eh
 * total energy  :   -42.1876652 Eh     change       -0.1390307E-03 Eh
 * total energy  :   -42.1876836 Eh     change       -0.1839774E-04 Eh
 * total energy  :   -42.1878289 Eh     change       -0.1452936E-03 Eh
 * total energy  :   -42.1878756 Eh     change       -0.4672317E-04 Eh
   *** GEOMETRY OPTIMIZATION CONVERGED AFTER 81 ITERATIONS ***

 final structure:
================
25
 xtb: 6.6.1 (8d0f1dd)
C            3.41429324894217        0.71085720373577       -0.06222250404118
N            2.46121532056107       -0.19577335634296       -0.03233706467656
C            2.57946317890911       -1.54485136354584       -0.00314606219432
N            1.33396957037067       -2.12584042534728        0.02791439423480
C            0.40743548427540       -1.17255596320555        0.01918247455999
C            1.07520020958551        0.07797541056097       -0.01911086224713
C            0.32330424368945        1.24077669729221       -0.03772074310615
O            0.85548969637893        2.44837677207847       -0.09880342996519
N           -1.04093602885269        1.09674333480053        0.01084561708500
C           -1.87892385148582        2.29000594431288        0.04307129205557
C           -1.72932333919554       -0.13328304714085        0.04801877479203
O           -2.92595688893500       -0.17712102321483        0.09031940538724
N           -0.94829536771802       -1.27489284408028        0.02998954176542
C           -1.59484574348171       -2.57397469971267        0.02029643684981
H            3.15658565269680        1.74815951853413       -0.08909927076742
H            4.43690936287818        0.39367418004073       -0.06191570997142
H            0.19941481121148        3.17109491187392       -0.12724904442760
H            3.50023784839525       -2.08209788092871        0.00373744926441
H           -1.61742033018553        2.92535874598037        0.89109222980315
H           -1.81584606659292        2.84038562211437       -0.89855151687289
H           -2.90818637139274        1.95608666591899        0.17308305269836
H           -1.34036401010487       -3.13357902427991        0.92069752563230
H           -1.29635383203631       -3.13413561192881       -0.86627589752586
H           -2.67071487176380       -2.41059379883109       -0.00415815935596
H            1.18407958795505       -3.12255742709112        0.05351368891934

          :  Hamiltonian                  GFN2-xTB          :
         :: total energy             -42.187875601244 Eh    ::
         :: gradient norm              0.001666226206 Eh/a0 ::
         :: HOMO-LUMO gap              1.287425884960 eV    ::
         :: SCC energy               -42.713324795276 Eh    ::
         :: -> dispersion             -0.023024424610 Eh    ::
         :: repulsion energy           0.525317220487 Eh    ::

    * Orbital Energies and Occupations

         #    Occupation            Energy/Eh            Energy/eV
      -------------------------------------------------------------
         1        2.0000           -0.9042734             -24.6065
       ...           ...                  ...                  ...
        25        2.0000           -0.6625897             -18.0300
        26        2.0000           -0.6578297             -17.9005
        27        2.0000           -0.6560570             -17.8522
        28        2.0000           -0.6488262             -17.6555
        29        2.0000           -0.6470083             -17.6060
        30        2.0000           -0.6251285             -17.0106
        31        2.0000           -0.6199914             -16.8708
        32        2.0000           -0.6093345             -16.5808
        33        2.0000           -0.5990790             -16.3018
        34        2.0000           -0.5923879             -16.1197
        35        2.0000           -0.5778258             -15.7234
        36        2.0000           -0.5560464             -15.1308
        37        1.9039           -0.4744013             -12.9091 (HOMO)
        38        0.0957           -0.4270893             -11.6217 (LUMO)
        39        0.0004           -0.3831155             -10.4251
        40        0.0000           -0.3465599              -9.4304
        41                         -0.2899021              -7.8886
        42                         -0.2107755              -5.7355
        43                         -0.1646029              -4.4791
        44                         -0.1373056              -3.7363
        45                         -0.1244511              -3.3865
        46                         -0.1173154              -3.1923
        47                         -0.0651764              -1.7735
        48                         -0.0454087              -1.2356
       ...                                ...                  ...
        67                          0.5337732              14.5247
      -------------------------------------------------------------
                  HL-Gap            0.0473120 Eh            1.2874 eV

     #   Z          covCN         q      C6AA      α(0)
     1   6 C        2.791    -0.108    30.723     9.080
     2   7 N        2.790     0.119    19.201     6.508
     3   6 C        3.026    -0.028    28.660     8.781
     4   7 N        2.771    -0.054    22.280     7.010
     5   6 C        3.016     0.097    25.822     8.335
     6   6 C        3.088    -0.021    28.423     8.739
     7   6 C        2.774     0.214    23.475     7.935
     8   8 O        1.659    -0.322    19.389     5.944
     9   7 N        2.744    -0.086    22.922     7.111
    10   6 C        3.701    -0.073    22.057     6.716
    11   6 C        2.723     0.318    21.601     7.609
    12   8 O        0.859    -0.369    21.077     6.155
    13   7 N        2.737    -0.057    22.339     7.020
    14   6 C        3.699    -0.071    22.037     6.714
    15   1 H        0.927     0.093     1.846     2.125
    16   1 H        0.926     0.086     1.922     2.168
    17   1 H        0.803     0.356     0.575     1.191
    18   1 H        0.927     0.100     1.787     2.090
    19   1 H        0.924     0.083     1.952     2.185
    20   1 H        0.924     0.084     1.940     2.178
    21   1 H        0.925     0.132     1.523     1.930
    22   1 H        0.924     0.084     1.935     2.175
    23   1 H        0.924     0.083     1.945     2.181
    24   1 H        0.925     0.123     1.587     1.970
    25   1 H        0.860     0.217     1.023     1.584

Wiberg/Mayer (AO) data.
largest (>0.10) Wiberg bond orders for each atom

     #   Z sym  total        # sym  WBO       # sym  WBO       # sym  WBO
 ---------------------------------------------------------------------------
     1   6 C    3.803 --     2 N    1.386    16 H    0.970    15 H    0.969
                             3 C    0.231
     2   7 N    3.750 --     1 C    1.386     3 C    1.225     6 C    1.056
     3   6 C    3.777 --     2 N    1.225     4 N    1.162    18 H    0.961
                             1 C    0.231     5 C    0.130
     4   7 N    3.598 --     5 C    1.308     3 C    1.162    25 H    0.924
     5   6 C    3.922 --     4 N    1.308     6 C    1.199    13 N    1.153
                             3 C    0.130
     6   6 C    3.923 --     7 C    1.354     5 C    1.199     2 N    1.056
     7   6 C    3.882 --     6 C    1.354     9 N    1.177     8 O    1.176
     8   8 O    2.222 --     7 C    1.176    17 H    0.833
     9   7 N    3.538 --     7 C    1.177    11 C    1.052    10 C    0.975
                            12 O    0.125
    10   6 C    3.927 --     9 N    0.975    19 H    0.968    20 H    0.967
                            21 H    0.958
    11   6 C    3.960 --    12 O    1.704    13 N    1.109     9 N    1.052
    12   8 O    2.072 --    11 C    1.704    13 N    0.141     9 N    0.125
    13   7 N    3.552 --     5 C    1.153    11 C    1.109    14 C    0.973
                            12 O    0.141
    14   6 C    3.927 --    13 N    0.973    23 H    0.971    22 H    0.971
                            24 H    0.966
    15   1 H    0.991 --     1 C    0.969
    16   1 H    0.992 --     1 C    0.970
    17   1 H    0.873 --     8 O    0.833
    18   1 H    0.989 --     3 C    0.961
    19   1 H    0.990 --    10 C    0.968
    20   1 H    0.989 --    10 C    0.967
    21   1 H    0.982 --    10 C    0.958
    22   1 H    0.990 --    14 C    0.971
    23   1 H    0.991 --    14 C    0.971
    24   1 H    0.984 --    14 C    0.966
    25   1 H    0.952 --     4 N    0.924
 ---------------------------------------------------------------------------

molecular dipole:
                 x           y           z       tot (Debye)
 q only:        1.229      -0.395      -0.035
   full:        1.291      -0.459      -0.040       3.485

           -------------------------------------------------
          | TOTAL ENERGY              -42.187875601244 Eh   |
          | GRADIENT NORM               0.001666226206 Eh/α |
          | HOMO-LUMO GAP               1.287425884960 eV   |
           -------------------------------------------------

 * finished run on 2024/06/05 at 19:57:56.292
