   * xtb version 6.6.1 (8d0f1dd) compiled by 'conda@1efc2f54142f' on 2023-08-01
          program call               : xtb xtbopt.xyz --opt crude --input .xc2 --gfn2

   ID    Z sym.   atoms
    1    6 C      1, 3, 5-7, 10, 11, 14
    2    7 N      2, 4, 9, 13
    3    8 O      8, 12
    4    1 H      15-25
########################################################################
[WARNING] Please study the warnings concerning your input carefully
-1- readin_getIntValue: could not parse ''
########################################################################

          :  Hamiltonian                  GFN2-xTB          :
 * total energy  :   -42.0617474 Eh     change       -0.1314504E-10 Eh
 * total energy  :   -42.0713406 Eh     change       -0.9593200E-02 Eh
 * total energy  :   -42.0805361 Eh     change       -0.9195430E-02 Eh
 * total energy  :   -42.0860245 Eh     change       -0.5488400E-02 Eh
 * total energy  :   -42.0897750 Eh     change       -0.3750555E-02 Eh
 * total energy  :   -42.0926808 Eh     change       -0.2905748E-02 Eh
 * total energy  :   -42.0936486 Eh     change       -0.9678750E-03 Eh
 * total energy  :   -42.0940068 Eh     change       -0.3581563E-03 Eh
 * total energy  :   -42.0942863 Eh     change       -0.2795466E-03 Eh
   *** GEOMETRY OPTIMIZATION CONVERGED AFTER 9 ITERATIONS ***

 final structure:
================
25
 xtb: 6.6.1 (8d0f1dd)
C            3.16360368008022        1.39970253111034        0.01449399126881
N            2.33830170128054        0.26815142939789       -0.02499354887920
C            2.56970659513461       -2.28416281968932       -0.02078557610865
N            1.29377106059902       -2.22754170130789       -0.01095506348049
C            0.45752395050744       -1.11009845186376       -0.00793513662722
C            1.05387434677934        0.17164654125089       -0.00566242929664
C            0.13481940854611        1.35947666282013        0.00001251178536
O            0.55015689944958        2.49324667273605       -0.00104713352846
N           -1.20250112503246        1.05794344270819       -0.00057018672570
C           -2.15702307326855        2.16190445863028        0.00117828872933
C           -1.77464270130907       -0.20042428842106        0.00300377439415
O           -2.96282155524244       -0.36532982268241        0.00979951523684
N           -0.88681658558324       -1.28861912787965       -0.00125669883250
C           -1.47998666359367       -2.61313460555824       -0.00029311995422
H            3.63433324415410        1.46195324188970        1.00155203891879
H            3.95948053897571        1.27601831495486       -0.72324413869656
H            2.60660847956425        2.32413691598765       -0.17436305811263
H            3.22322139361182       -1.41961406427041       -0.03225825749237
H           -1.60529826678899        3.09834698020731        0.01149379271914
H           -2.78525201165191        2.10233949785722       -0.88737465618323
H           -2.79710843106776        2.08912545659854        0.88012087729927
H           -1.20568547699471       -3.16553300811310        0.90017467721591
H           -1.20236457093953       -3.16732922824708       -0.89851684625023
H           -2.56275824492753       -2.48136423727078       -0.00173167969517
H            0.79728892181724       -3.12260224924544        0.00032968019571

          :  Hamiltonian                  GFN2-xTB          :
         :: total energy             -42.094286348224 Eh    ::
         :: gradient norm              0.009545627135 Eh/a0 ::
         :: HOMO-LUMO gap              0.151442717642 eV    ::
         :: SCC energy               -42.610944686279 Eh    ::
         :: -> dispersion             -0.022357753785 Eh    ::
         :: repulsion energy           0.516527999322 Eh    ::

    * Orbital Energies and Occupations

         #    Occupation            Energy/Eh            Energy/eV
      -------------------------------------------------------------
         1        2.0000           -0.8947679             -24.3479
       ...           ...                  ...                  ...
        25        1.9999           -0.6779038             -18.4467
        26        1.9999           -0.6764944             -18.4084
        27        1.9995           -0.6462330             -17.5849
        28        1.9993           -0.6421591             -17.4740
        29        1.9991           -0.6388879             -17.3850
        30        1.9987           -0.6325813             -17.2134
        31        1.9969           -0.6186492             -16.8343
        32        1.9943           -0.6089586             -16.5706
        33        1.9921           -0.6037060             -16.4277
        34        1.9856           -0.5941322             -16.1672
        35        1.9663           -0.5805140             -15.7966
        36        1.8674           -0.5580185             -15.1845
        37        1.1646           -0.5214002             -14.1880 (HOMO)
        38        0.9903           -0.5158348             -14.0366 (LUMO)
        39        0.0441           -0.4560779             -12.4105
        40        0.0017           -0.4039768             -10.9928
        41        0.0005           -0.3853203             -10.4851
        42        0.0000           -0.3000467              -8.1647
        43                         -0.2085786              -5.6757
        44                         -0.1691170              -4.6019
        45                         -0.1483452              -4.0367
        46                         -0.1006546              -2.7390
        47                         -0.0799205              -2.1747
        48                         -0.0440566              -1.1988
       ...                                ...                  ...
        67                          0.5432692              14.7831
      -------------------------------------------------------------
                  HL-Gap            0.0055654 Eh            0.1514 eV

     #   Z          covCN         q      C6AA      α(0)
     1   6 C        3.691    -0.055    21.751     6.674
     2   7 N        1.839    -0.122    24.420     7.323
     3   6 C        1.849    -0.066    32.947     9.272
     4   7 N        2.688     0.016    20.980     6.803
     5   6 C        2.856     0.085    26.106     8.375
     6   6 C        2.891     0.050    26.880     8.500
     7   6 C        2.767     0.270    22.434     7.757
     8   8 O        0.858    -0.325    20.236     6.031
     9   7 N        2.738    -0.068    22.565     7.055
    10   6 C        3.710    -0.063    21.843     6.679
    11   6 C        2.724     0.318    21.596     7.608
    12   8 O        0.859    -0.345    20.612     6.087
    13   7 N        2.739    -0.041    22.043     6.973
    14   6 C        3.700    -0.080    22.190     6.737
    15   1 H        0.924     0.120     1.615     1.988
    16   1 H        0.924     0.115     1.654     2.011
    17   1 H        0.924     0.134     1.507     1.920
    18   1 H        0.925     0.159     1.330     1.804
    19   1 H        0.925     0.115     1.655     2.012
    20   1 H        0.925     0.106     1.728     2.056
    21   1 H        0.925     0.107     1.725     2.054
    22   1 H        0.924     0.092     1.859     2.132
    23   1 H        0.924     0.092     1.859     2.132
    24   1 H        0.924     0.137     1.485     1.906
    25   1 H        0.859     0.249     0.888     1.476

Wiberg/Mayer (AO) data.
largest (>0.10) Wiberg bond orders for each atom

     #   Z sym  total        # sym  WBO       # sym  WBO       # sym  WBO
 ---------------------------------------------------------------------------
     1   6 C    3.879 --     2 N    1.088    16 H    0.929    15 H    0.911
                            17 H    0.891
     2   7 N    2.909 --     6 C    1.542     1 C    1.088     3 C    0.117
     3   6 C    2.755 --     4 N    1.627    18 H    0.860     2 N    0.117
     4   7 N    3.672 --     3 C    1.627     5 C    1.083    25 H    0.874
     5   6 C    3.692 --     6 C    1.217    13 N    1.216     4 N    1.083
     6   6 C    3.918 --     2 N    1.542     5 C    1.217     7 C    0.939
     7   6 C    3.899 --     8 O    1.702     9 N    1.159     6 C    0.939
     8   8 O    2.039 --     7 C    1.702     9 N    0.141
     9   7 N    3.550 --     7 C    1.159    11 C    1.104    10 C    0.961
                             8 O    0.141    12 O    0.121
    10   6 C    3.892 --    19 H    0.967     9 N    0.961    21 H    0.959
                            20 H    0.959
    11   6 C    3.940 --    12 O    1.700     9 N    1.104    13 N    1.050
    12   8 O    2.014 --    11 C    1.700     9 N    0.121    13 N    0.110
    13   7 N    3.480 --     5 C    1.216    11 C    1.050    14 C    0.978
                            12 O    0.110
    14   6 C    3.915 --    13 N    0.978    23 H    0.961    22 H    0.961
                            24 H    0.956
    15   1 H    0.948 --     1 C    0.911
    16   1 H    0.956 --     1 C    0.929
    17   1 H    0.931 --     1 C    0.891
    18   1 H    0.937 --     3 C    0.860
    19   1 H    0.984 --    10 C    0.967
    20   1 H    0.979 --    10 C    0.959
    21   1 H    0.979 --    10 C    0.959
    22   1 H    0.981 --    14 C    0.961
    23   1 H    0.981 --    14 C    0.961
    24   1 H    0.980 --    14 C    0.956
    25   1 H    0.916 --     4 N    0.874
 ---------------------------------------------------------------------------

molecular dipole:
                 x           y           z       tot (Debye)
 q only:        1.457      -1.694       0.018
   full:        1.315      -1.582       0.034       5.230

           -------------------------------------------------
          | TOTAL ENERGY              -42.094286348224 Eh   |
          | GRADIENT NORM               0.009545627135 Eh/α |
          | HOMO-LUMO GAP               0.151442717642 eV   |
           -------------------------------------------------

 * finished run on 2024/06/05 at 20:00:06.968
