   * xtb version 6.6.1 (8d0f1dd) compiled by 'conda@1efc2f54142f' on 2023-08-01
          program call               : xtb struc.xyz --opt loose --input .xc1 --gfn2

   ID    Z sym.   atoms
    1    6 C      1, 3, 5-7, 10, 11, 14
    2    7 N      2, 4, 9, 13
    3    8 O      8, 12
    4    1 H      15-25
constraining bond 11 22 to    5.1400000 Å, actual value:    3.1884051 Å

          :  Hamiltonian                  GFN2-xTB          :
 * total energy  :   -35.4446869 Eh     change       -0.6633627E-10 Eh
 * total energy  :   -38.5866665 Eh     change       -0.3141980E+01 Eh
 * total energy  :   -40.6930779 Eh     change       -0.2106411E+01 Eh
 * total energy  :   -41.6842775 Eh     change       -0.9911996E+00 Eh
 * total energy  :   -41.9404615 Eh     change       -0.2561840E+00 Eh
 * total energy  :   -41.9661569 Eh     change       -0.2569539E-01 Eh
 * total energy  :   -41.9777362 Eh     change       -0.1157931E-01 Eh
 * total energy  :   -42.0055794 Eh     change       -0.2784314E-01 Eh
 * total energy  :   -42.0160823 Eh     change       -0.1050292E-01 Eh
 * total energy  :   -42.0227643 Eh     change       -0.6682063E-02 Eh
 * total energy  :   -42.1490856 Eh     change       -0.3411915E-04 Eh
 * total energy  :   -42.1492533 Eh     change       -0.1676966E-03 Eh
 * total energy  :   -42.1493627 Eh     change       -0.1094415E-03 Eh
 * total energy  :   -42.1494625 Eh     change       -0.9978641E-04 Eh
 * total energy  :   -42.1495572 Eh     change       -0.9470913E-04 Eh
 * total energy  :   -42.1496740 Eh     change       -0.1167870E-03 Eh
 * total energy  :   -42.1497569 Eh     change       -0.8289899E-04 Eh
 * total energy  :   -42.1498328 Eh     change       -0.7592888E-04 Eh
 * total energy  :   -42.1498771 Eh     change       -0.4427576E-04 Eh
   *** GEOMETRY OPTIMIZATION CONVERGED AFTER 69 ITERATIONS ***

 final structure:
================
25
 xtb: 6.6.1 (8d0f1dd)
C            3.08155567384065        1.14641308792749       -0.27192169310307
N            2.14023040975822        0.07751280076959       -0.09119807929385
C            2.42373421940884       -1.17966001735500        0.13661132967735
N            1.31533570975320       -1.91373028272277        0.23818362896862
C            0.17247177704369       -1.08714258380622        0.06483356645086
C            0.74494674811286        0.22174572633309       -0.17114958814530
C            0.16151915837273        1.45058883263422       -0.37923062983929
O            0.54515693709139        2.57372378575476       -0.49867196132247
N           -1.45365100895928        1.30463590461430       -0.44987345654942
C           -2.13214923290598        1.70133124248526        0.76844184499438
C           -1.91651318141753        0.99316018067163       -1.54473968741121
O           -2.22892671806086        0.68909473798804       -2.59626413214394
N           -1.04935212931052       -1.39533604975066        0.13012503927495
C           -1.50262174118349       -2.73111072391610        0.40620199972547
H            2.86290806563415        1.95864223613767        0.42167155485185
H            4.08976007667414        0.77939784105236       -0.09707750372037
H            3.01006247796538        1.54394872772444       -1.28480595076556
H            3.42205738897278       -1.56929989990485        0.22801211325170
H           -1.71336522914081        2.65317473391157        1.09771508609273
H           -3.20085966359281        1.81026581598407        0.59584177143240
H           -1.95614947214129        0.93444701717290        1.52361313812837
H           -0.91289843184633       -3.25503852545071        1.16706650889974
H           -1.49437631713613       -3.32552644839398       -0.51052409873125
H           -2.53229076782838       -2.65515286068897        0.74907826442011
H            1.28384676499449       -2.90784673757067        0.39923255275758

          :  Hamiltonian                  GFN2-xTB          :
         :: total energy             -42.149877115179 Eh    ::
         :: gradient norm              0.002290447619 Eh/a0 ::
         :: HOMO-LUMO gap              1.886066674906 eV    ::
         :: SCC energy               -42.734706186783 Eh    ::
         :: -> dispersion             -0.022191947126 Eh    ::
         :: repulsion energy           0.584580729673 Eh    ::

    * Orbital Energies and Occupations

         #    Occupation            Energy/Eh            Energy/eV
      -------------------------------------------------------------
         1        2.0000           -0.9424946             -25.6466
       ...           ...                  ...                  ...
        25        2.0000           -0.6693872             -18.2150
        26        2.0000           -0.6679034             -18.1746
        27        2.0000           -0.6451310             -17.5549
        28        2.0000           -0.6370496             -17.3350
        29        2.0000           -0.6336191             -17.2417
        30        2.0000           -0.6302890             -17.1510
        31        2.0000           -0.6013015             -16.3622
        32        2.0000           -0.6002664             -16.3341
        33        2.0000           -0.5975434             -16.2600
        34        2.0000           -0.5867346             -15.9659
        35        2.0000           -0.5864149             -15.9572
        36        1.9905           -0.5168962             -14.0655
        37        1.9785           -0.5103818             -13.8882 (HOMO)
        38        0.0287           -0.4410701             -12.0021 (LUMO)
        39        0.0023           -0.4208690             -11.4524
        40        0.0000           -0.3714868             -10.1087
        41        0.0000           -0.3662664              -9.9666
        42                         -0.2889121              -7.8617
        43                         -0.2678133              -7.2876
        44                         -0.1725833              -4.6962
        45                         -0.1267369              -3.4487
        46                         -0.0979928              -2.6665
        47                         -0.0803273              -2.1858
        48                         -0.0350679              -0.9542
       ...                                ...                  ...
        67                          1.0777268              29.3264
      -------------------------------------------------------------
                  HL-Gap            0.0693117 Eh            1.8861 eV

     #   Z          covCN         q      C6AA      α(0)
     1   6 C        3.693    -0.085    22.302     6.757
     2   7 N        2.812     0.065    20.110     6.660
     3   6 C        2.974     0.085    26.104     8.381
     4   7 N        2.779    -0.102    23.241     7.160
     5   6 C        2.937     0.143    24.885     8.181
     6   6 C        3.056    -0.051    29.213     8.864
     7   6 C        2.729     0.258    22.660     7.793
     8   8 O        0.857    -0.312    19.997     5.996
     9   7 N        2.695    -0.024    21.708     6.920
    10   6 C        3.693    -0.064    21.923     6.699
    11   6 C        1.789     0.348    23.514     7.838
    12   8 O        0.856    -0.092    16.398     5.429
    13   7 N        1.823    -0.283    28.177     7.865
    14   6 C        3.705    -0.030    21.258     6.592
    15   1 H        0.924     0.113     1.668     2.020
    16   1 H        0.925     0.096     1.818     2.109
    17   1 H        0.924     0.108     1.715     2.048
    18   1 H        0.926     0.109     1.703     2.041
    19   1 H        0.924     0.119     1.620     1.991
    20   1 H        0.925     0.105     1.739     2.062
    21   1 H        0.924     0.114     1.666     2.019
    22   1 H        0.924     0.034     2.529     2.487
    23   1 H        0.924     0.060     2.199     2.319
    24   1 H        0.925     0.071     2.076     2.253
    25   1 H        0.860     0.214     1.036     1.594

Wiberg/Mayer (AO) data.
largest (>0.10) Wiberg bond orders for each atom

     #   Z sym  total        # sym  WBO       # sym  WBO       # sym  WBO
 ---------------------------------------------------------------------------
     1   6 C    3.932 --     2 N    0.992    16 H    0.974    15 H    0.960
                            17 H    0.959
     2   7 N    3.701 --     3 C    1.450     6 C    1.063     1 C    0.992
                             4 N    0.126
     3   6 C    3.950 --     2 N    1.450     4 N    1.331    18 H    0.950
     4   7 N    3.568 --     3 C    1.331     5 C    1.018    25 H    0.925
                             2 N    0.126    13 N    0.107
     5   6 C    3.956 --    13 N    1.696     6 C    1.116     4 N    1.018
     6   6 C    3.886 --     7 C    1.340     5 C    1.116     2 N    1.063
                             8 O    0.143
     7   6 C    3.922 --     8 O    1.767     6 C    1.340     9 N    0.620
     8   8 O    2.222 --     7 C    1.767     6 C    0.143
     9   7 N    3.586 --    11 C    1.661    10 C    0.936     7 C    0.620
                            12 O    0.266
    10   6 C    3.901 --    20 H    0.973    19 H    0.964    21 H    0.963
                             9 N    0.936
    11   6 C    3.915 --    12 O    2.118     9 N    1.661
    12   8 O    2.505 --    11 C    2.118     9 N    0.266
    13   7 N    3.057 --     5 C    1.696    14 C    1.025     4 N    0.107
    14   6 C    3.973 --    13 N    1.025    24 H    0.977    22 H    0.971
                            23 H    0.958
    15   1 H    0.987 --     1 C    0.960
    16   1 H    0.990 --     1 C    0.974
    17   1 H    0.988 --     1 C    0.959
    18   1 H    0.987 --     3 C    0.950
    19   1 H    0.986 --    10 C    0.964
    20   1 H    0.988 --    10 C    0.973
    21   1 H    0.987 --    10 C    0.963
    22   1 H    0.995 --    14 C    0.971
    23   1 H    0.990 --    14 C    0.958
    24   1 H    0.993 --    14 C    0.977
    25   1 H    0.954 --     4 N    0.925
 ---------------------------------------------------------------------------

molecular dipole:
                 x           y           z       tot (Debye)
 q only:        0.923      -0.362       0.251
   full:        1.238      -0.953       0.308       4.046

           -------------------------------------------------
          | TOTAL ENERGY              -42.149877115179 Eh   |
          | GRADIENT NORM               0.002290447619 Eh/α |
          | HOMO-LUMO GAP               1.886066674906 eV   |
           -------------------------------------------------

 * finished run on 2024/06/05 at 19:58:07.169
