   * xtb version 6.6.1 (8d0f1dd) compiled by 'conda@1efc2f54142f' on 2023-08-01
          program call               : xtb xtbopt.xyz --opt crude --input .xc2 --gfn2

   ID    Z sym.   atoms
    1    6 C      1, 3, 5-7, 10, 11, 14
    2    7 N      2, 4, 9, 13
    3    8 O      8, 12
    4    1 H      15-25
########################################################################
[WARNING] Please study the warnings concerning your input carefully
-1- readin_getIntValue: could not parse ''
########################################################################

          :  Hamiltonian                  GFN2-xTB          :
 * total energy  :   -42.1498793 Eh     change        0.1421085E-13 Eh
 * total energy  :   -42.1499344 Eh     change       -0.5513167E-04 Eh
   *** GEOMETRY OPTIMIZATION CONVERGED AFTER 2 ITERATIONS ***

 final structure:
================
25
 xtb: 6.6.1 (8d0f1dd)
C            3.08380854181053        1.14695754621803       -0.27099883140937
N            2.14163736657678        0.07873628942064       -0.09061232070069
C            2.42326273224354       -1.17875144672132        0.13861696530363
N            1.31356236337385       -1.91143036363225        0.23939049645885
C            0.17214351545012       -1.08309254492237        0.06292826653293
C            0.74674690475072        0.22431219693726       -0.17107669351116
C            0.16217248077754        1.45137786078556       -0.38263994819610
O            0.54279756532947        2.57479159829533       -0.50872100876539
N           -1.45239786057401        1.29396778430012       -0.44477509071802
C           -2.12887791373104        1.69611088842246        0.77250110364951
C           -1.91688223602049        0.95860561653907       -1.53223740760893
O           -2.22802230569778        0.68631633943398       -2.59397226067864
N           -1.05082332800050       -1.38776413661522        0.12357554955291
C           -1.50759742331818       -2.72155027694353        0.39915143086539
H            2.86605998641911        1.95906299219898        0.42294251659175
H            4.09213230782159        0.77851281751446       -0.09761426412980
H            3.01109416906797        1.54541678852063       -1.28378707799260
H            3.42091426078931       -1.56971469319648        0.23112092197715
H           -1.71578552418278        2.65231708908087        1.09516741383094
H           -3.19785363446567        1.79732285370563        0.60141015822794
H           -1.94770378219451        0.93564498868933        1.53169179992930
H           -0.91739794470392       -3.23872925897364        1.16208823150382
H           -1.49544534459160       -3.31899272270948       -0.51550342829204
H           -2.53791718446724       -2.64583606567272        0.74077358281869
H            1.28080380163634       -2.90535359907394        0.40175151266033

          :  Hamiltonian                  GFN2-xTB          :
         :: total energy             -42.149934392393 Eh    ::
         :: gradient norm              0.004270323331 Eh/a0 ::
         :: HOMO-LUMO gap              1.887825509184 eV    ::
         :: SCC energy               -42.734707175409 Eh    ::
         :: -> dispersion             -0.022234667924 Eh    ::
         :: repulsion energy           0.584526700522 Eh    ::

    * Orbital Energies and Occupations

         #    Occupation            Energy/Eh            Energy/eV
      -------------------------------------------------------------
         1        2.0000           -0.9421067             -25.6360
       ...           ...                  ...                  ...
        25        2.0000           -0.6696846             -18.2230
        26        2.0000           -0.6681375             -18.1809
        27        2.0000           -0.6454122             -17.5626
        28        2.0000           -0.6371951             -17.3390
        29        2.0000           -0.6340999             -17.2547
        30        2.0000           -0.6305621             -17.1585
        31        2.0000           -0.6014877             -16.3673
        32        2.0000           -0.6006442             -16.3444
        33        2.0000           -0.5976519             -16.2629
        34        2.0000           -0.5869922             -15.9729
        35        2.0000           -0.5868493             -15.9690
        36        1.9907           -0.5173740             -14.0785
        37        1.9786           -0.5107131             -13.8972 (HOMO)
        38        0.0285           -0.4413368             -12.0094 (LUMO)
        39        0.0023           -0.4211618             -11.4604
        40        0.0000           -0.3722149             -10.1285
        41        0.0000           -0.3665779              -9.9751
        42                         -0.2890189              -7.8646
        43                         -0.2674869              -7.2787
        44                         -0.1728754              -4.7042
        45                         -0.1269866              -3.4555
        46                         -0.0981214              -2.6700
        47                         -0.0800533              -2.1784
        48                         -0.0346719              -0.9435
       ...                                ...                  ...
        67                          1.0711637              29.1478
      -------------------------------------------------------------
                  HL-Gap            0.0693763 Eh            1.8878 eV

     #   Z          covCN         q      C6AA      α(0)
     1   6 C        3.693    -0.085    22.303     6.757
     2   7 N        2.812     0.065    20.110     6.660
     3   6 C        2.974     0.085    26.104     8.381
     4   7 N        2.779    -0.102    23.245     7.161
     5   6 C        2.938     0.143    24.885     8.181
     6   6 C        3.057    -0.051    29.215     8.864
     7   6 C        2.729     0.258    22.658     7.793
     8   8 O        0.857    -0.311    19.973     5.992
     9   7 N        2.696    -0.023    21.702     6.919
    10   6 C        3.694    -0.065    21.925     6.699
    11   6 C        1.789     0.348    23.514     7.838
    12   8 O        0.856    -0.092    16.403     5.430
    13   7 N        1.824    -0.284    28.213     7.870
    14   6 C        3.705    -0.029    21.250     6.590
    15   1 H        0.925     0.113     1.668     2.020
    16   1 H        0.925     0.096     1.817     2.108
    17   1 H        0.924     0.108     1.713     2.047
    18   1 H        0.926     0.109     1.703     2.040
    19   1 H        0.924     0.120     1.615     1.987
    20   1 H        0.925     0.105     1.739     2.062
    21   1 H        0.925     0.113     1.672     2.022
    22   1 H        0.924     0.034     2.528     2.487
    23   1 H        0.924     0.060     2.202     2.320
    24   1 H        0.925     0.071     2.078     2.254
    25   1 H        0.860     0.214     1.036     1.594

Wiberg/Mayer (AO) data.
largest (>0.10) Wiberg bond orders for each atom

     #   Z sym  total        # sym  WBO       # sym  WBO       # sym  WBO
 ---------------------------------------------------------------------------
     1   6 C    3.932 --     2 N    0.992    16 H    0.974    15 H    0.960
                            17 H    0.959
     2   7 N    3.701 --     3 C    1.450     6 C    1.063     1 C    0.992
                             4 N    0.126
     3   6 C    3.950 --     2 N    1.450     4 N    1.330    18 H    0.950
     4   7 N    3.567 --     3 C    1.330     5 C    1.018    25 H    0.925
                             2 N    0.126    13 N    0.107
     5   6 C    3.956 --    13 N    1.695     6 C    1.117     4 N    1.018
     6   6 C    3.886 --     7 C    1.340     5 C    1.117     2 N    1.063
                             8 O    0.142
     7   6 C    3.922 --     8 O    1.769     6 C    1.340     9 N    0.619
     8   8 O    2.224 --     7 C    1.769     6 C    0.142
     9   7 N    3.586 --    11 C    1.661    10 C    0.936     7 C    0.619
                            12 O    0.266
    10   6 C    3.901 --    20 H    0.973    19 H    0.963    21 H    0.963
                             9 N    0.936
    11   6 C    3.915 --    12 O    2.118     9 N    1.661
    12   8 O    2.504 --    11 C    2.118     9 N    0.266
    13   7 N    3.057 --     5 C    1.695    14 C    1.025     4 N    0.107
    14   6 C    3.973 --    13 N    1.025    24 H    0.977    22 H    0.971
                            23 H    0.958
    15   1 H    0.987 --     1 C    0.960
    16   1 H    0.990 --     1 C    0.974
    17   1 H    0.988 --     1 C    0.959
    18   1 H    0.987 --     3 C    0.950
    19   1 H    0.986 --    10 C    0.963
    20   1 H    0.988 --    10 C    0.973
    21   1 H    0.987 --    10 C    0.963
    22   1 H    0.995 --    14 C    0.971
    23   1 H    0.990 --    14 C    0.958
    24   1 H    0.993 --    14 C    0.977
    25   1 H    0.954 --     4 N    0.925
 ---------------------------------------------------------------------------

molecular dipole:
                 x           y           z       tot (Debye)
 q only:        0.933      -0.373       0.266
   full:        1.246      -0.982       0.332       4.119

           -------------------------------------------------
          | TOTAL ENERGY              -42.149934392393 Eh   |
          | GRADIENT NORM               0.004270323331 Eh/α |
          | HOMO-LUMO GAP               1.887825509184 eV   |
           -------------------------------------------------

 * finished run on 2024/06/05 at 19:58:07.340
