   * xtb version 6.6.1 (8d0f1dd) compiled by 'conda@1efc2f54142f' on 2023-08-01
          program call               : xtb struc.xyz --opt loose --input .xc1 --gfn2

   ID    Z sym.   atoms
    1    7 N      1, 17
    2    6 C      2-6, 8, 9, 11-16, 18-23, 25, 26, 28-33
    3    8 O      7, 10, 24, 27
    4    1 H      34-72
constraining bond 5 8 to    6.0000000 Å, actual value:    2.8383858 Å

          :  Hamiltonian                  GFN2-xTB          :
 * total energy  :   -97.6193479 Eh     change       -0.4035485E-08 Eh
 * total energy  :   -98.0182900 Eh     change       -0.3989421E+00 Eh
 * total energy  :   -98.2744008 Eh     change       -0.2561107E+00 Eh
 * total energy  :   -98.4625184 Eh     change       -0.1881176E+00 Eh
 * total energy  :   -98.6224524 Eh     change       -0.1599340E+00 Eh
 * total energy  :   -98.7814255 Eh     change       -0.1589731E+00 Eh
 * total energy  :   -98.9250220 Eh     change       -0.1435965E+00 Eh
 * total energy  :   -99.0304161 Eh     change       -0.1053940E+00 Eh
 * total energy  :   -99.1029021 Eh     change       -0.7248599E-01 Eh
 * total energy  :   -99.1579740 Eh     change       -0.5507189E-01 Eh
 * total energy  :   -99.2932111 Eh     change       -0.1002683E-02 Eh
 * total energy  :   -99.2937832 Eh     change       -0.5720658E-03 Eh
 * total energy  :   -99.2941303 Eh     change       -0.3471131E-03 Eh
 * total energy  :   -99.2943041 Eh     change       -0.1737633E-03 Eh
 * total energy  :   -99.2943789 Eh     change       -0.7479596E-04 Eh
 * total energy  :   -99.2944453 Eh     change       -0.6643591E-04 Eh
 * total energy  :   -99.2944960 Eh     change       -0.5067610E-04 Eh
 * total energy  :   -99.2945806 Eh     change       -0.8463473E-04 Eh
 * total energy  :   -99.2946160 Eh     change       -0.3541753E-04 Eh
   *** GEOMETRY OPTIMIZATION CONVERGED AFTER 31 ITERATIONS ***

 final structure:
================
72
 xtb: 6.6.1 (8d0f1dd)
N           -1.67312327005415        2.93809578022787        2.36298023425407
C           -1.65628675130871        2.22688993549366        1.33702898685841
C           -2.81323907156424        2.04568277266832        0.39752876397256
C           -3.28282501270171        0.59683737528963        0.44248032698586
C           -4.12269122713386        0.11362249624809       -0.53542995742620
C           -4.61585276851856       -1.23001724208858       -0.55414971315015
O           -5.35114836993952       -1.65735300041894       -1.45640931878816
C           -8.59033888444406       -1.96661601499998       -3.95305223213329
C           -4.18834821144219       -2.07860621198625        0.56390610693694
O           -4.67882805193187       -3.32269507995505        0.51900644150730
C           -4.40238074956866       -4.22688968109827        1.56192223722606
C           -3.35120800569392       -1.56754098078497        1.53995703126843
C           -2.89884430367273       -0.25559343117848        1.48488927916119
C           -2.27056081532851        2.39033970935334       -1.01424732200940
C           -1.35944540894433        1.31404129683607       -1.63193529535553
C           -0.03584248179401        1.20676206817241       -0.98304279058845
N            0.56894092820623        0.07729738442257       -0.65100794567890
C            1.94709391857563        0.08516242715009       -0.21872680388789
C            2.90003163555279       -0.35950150712647       -1.34551655577210
C            4.32570392306400       -0.16665227897976       -0.91000496027213
C            4.96799020642827        1.04195958100022       -1.12847015083523
C            6.27091836623190        1.24210139098214       -0.70060869066843
C            6.95827981527501        0.23469712045135       -0.03835727480236
O            8.21895505591392        0.31513465853107        0.42171748438669
C            8.94744706599041        1.50665599736825        0.23240756484632
C            6.30700490109774       -1.01018122536750        0.19126940369719
O            7.04884410258399       -1.93110951152978        0.83489579421639
C            6.50607219324794       -3.20570708515521        1.08504155386497
C            5.00257293058557       -1.18563923696618       -0.24449081430170
C           -0.08629556976426       -1.20570677037161       -0.75686047656032
C           -4.03236454159641        2.95566773783150        0.73180800211059
C           -4.65213063979611        2.58698925423356        2.07744211208732
C           -3.69400157013827        4.44324819849162        0.71075458753967
H           -4.46654852113044        0.73802770195971       -1.34508052308199
H           -9.18314518994759       -1.22716485103300       -3.45841251444344
H           -8.64521239175944       -2.98839158703073       -3.64378021217589
H           -7.92179489986173       -1.68305482952576       -4.73725815287112
H           -4.75410282182095       -3.84700339072278        2.52664694517026
H           -4.94417316078761       -5.13785671328881        1.31193584139742
H           -3.33134092346676       -4.44751967779023        1.62759362515851
H           -3.04582669207351       -2.18586410425435        2.37082344652163
H           -2.26821731696755        0.11279550675622        2.27955573918760
H           -3.11596917863825        2.53500775788708       -1.68523424026413
H           -1.72550518027680        3.33369897134969       -0.95988569645786
H           -1.88264058769929        0.35974918101604       -1.64874183967153
H           -1.18305437781958        1.61589338627064       -2.67245255213727
H           -0.75804961197821        1.68029685155054        0.98271581200754
H            0.55174900929927        2.11060052143916       -0.90128853613569
H            2.06023522276344       -0.58052466381683        0.64106580773077
H            2.22137460874954        1.09526125835376        0.09313041123942
H            2.69933298531311        0.24618758099130       -2.23101571652466
H            2.71671535040333       -1.40537554737120       -1.59341521568396
H            4.45765276747807        1.83800158213441       -1.64914456503093
H            6.74646092577125        2.18973640977737       -0.89280523300692
H            8.46572883634563        2.35368825970134        0.73013370309253
H            9.07713708148379        1.73190497361860       -0.83026967174456
H            9.92088490712200        1.32824598469779        0.68495796052484
H            7.29050569220166       -3.76181566400734        1.59453494216392
H            5.62588806418575       -3.14705098532836        1.73321851382771
H            6.24383700922003       -3.71941612255398        0.15506940711532
H            4.50257184271618       -2.12747341683897       -0.08130675583683
H           -0.28379120066374       -1.46416724776192       -1.79912756133023
H           -1.03425369663362       -1.19572879537148       -0.21309266941084
H            0.55312261549529       -1.97138610426479       -0.32543145766298
H           -4.77989979896333        2.76214132833529       -0.04583448293760
H           -3.94235777722453        2.76904196986586        2.87876297500436
H           -4.95233537511591        1.54214793065571        2.09867656555045
H           -5.53431587339953        3.19729457954468        2.25150305217751
H           -2.92204615170404        4.66491801977488        1.44162502868085
H           -3.36424291890923        4.77213614223634       -0.27126630785306
H           -4.58124915633488        5.01388281283913        0.97208337229448
H           -0.82070785579474        3.01189858594959        2.90934998933028

          :  Hamiltonian                  GFN2-xTB          :
         :: total energy             -99.294616036507 Eh    ::
         :: gradient norm              0.002312496111 Eh/a0 ::
         :: HOMO-LUMO gap              0.429172051645 eV    ::
         :: SCC energy              -100.679284605665 Eh    ::
         :: -> dispersion             -0.072471713286 Eh    ::
         :: repulsion energy           1.383536583694 Eh    ::

    * Orbital Energies and Occupations

         #    Occupation            Energy/Eh            Energy/eV
      -------------------------------------------------------------
         1        2.0000           -0.8111467             -22.0724
       ...           ...                  ...                  ...
        78        1.9978           -0.5310391             -14.4503
        79        1.9973           -0.5281597             -14.3720
        80        1.9966           -0.5244250             -14.2703
        81        1.9959           -0.5212860             -14.1849
        82        1.9942           -0.5158494             -14.0370
        83        1.9927           -0.5121546             -13.9364
        84        1.9921           -0.5109622             -13.9040
        85        1.9760           -0.4931373             -13.4189
        86        1.9565           -0.4835732             -13.1587
        87        1.9201           -0.4736645             -12.8891
        88        1.8358           -0.4615439             -12.5592
        89        1.8238           -0.4603273             -12.5261
        90        1.3247           -0.4339884             -11.8094 (HOMO)
        91        0.8403           -0.4182166             -11.3803 (LUMO)
        92        0.3505           -0.3987959             -10.8518
        93        0.0116           -0.3418916              -9.3033
        94        0.0024           -0.3170888              -8.6284
        95        0.0021           -0.3149055              -8.5690
        96        0.0015           -0.3094483              -8.4205
        97        0.0007           -0.2973536              -8.0914
        98        0.0000           -0.1924331              -5.2364
        99        0.0000           -0.1845711              -5.0224
       100                         -0.1406064              -3.8261
       101                         -0.0711108              -1.9350
       ...                                ...                  ...
       171                          0.6013864              16.3646
      -------------------------------------------------------------
                  HL-Gap            0.0157718 Eh            0.4292 eV

     #   Z          covCN         q      C6AA      α(0)
     1   7 N        1.774    -0.265    27.694     7.793
     2   6 C        2.827     0.103    25.712     8.309
     3   6 C        3.908     0.007    20.404     6.421
     4   6 C        2.967     0.005    27.900     8.664
     5   6 C        2.917    -0.079    29.963     8.976
     6   6 C        2.827     0.195    23.847     8.002
     7   8 O        0.858    -0.379    21.263     6.182
     8   6 C        2.780    -0.108    30.700     9.075
     9   6 C        2.857     0.122    25.309     8.246
    10   8 O        1.706    -0.202    17.365     5.626
    11   6 C        3.645     0.025    20.489     6.506
    12   6 C        2.904    -0.074    29.848     8.958
    13   6 C        2.920    -0.050    29.236     8.867
    14   6 C        3.812    -0.065    21.743     6.637
    15   6 C        3.802    -0.072    21.871     6.658
    16   6 C        2.844     0.014    27.701     8.626
    17   7 N        2.729     0.017    20.956     6.799
    18   6 C        3.757    -0.017    20.937     6.524
    19   6 C        3.808    -0.071    21.849     6.654
    20   6 C        2.969     0.001    28.005     8.680
    21   6 C        2.922    -0.048    29.196     8.861
    22   6 C        2.913    -0.067    29.665     8.931
    23   6 C        2.865     0.135    25.058     8.205
    24   8 O        1.706    -0.219    17.628     5.669
    25   6 C        3.645     0.024    20.506     6.508
    26   6 C        2.863     0.134    25.065     8.206
    27   8 O        1.706    -0.221    17.674     5.676
    28   6 C        3.645     0.026    20.472     6.503
    29   6 C        2.919    -0.079    29.973     8.978
    30   6 C        3.700    -0.072    22.041     6.714
    31   6 C        3.853    -0.008    20.679     6.468
    32   6 C        3.756    -0.117    22.803     6.809
    33   6 C        3.755    -0.119    22.842     6.815
    34   1 H        0.926     0.061     2.184     2.311
    35   1 H        0.927     0.089     1.893     2.151
    36   1 H        0.927     0.091     1.865     2.136
    37   1 H        0.927     0.089     1.892     2.151
    38   1 H        0.924     0.059     2.206     2.323
    39   1 H        0.925     0.084     1.936     2.176
    40   1 H        0.924     0.052     2.295     2.369
    41   1 H        0.926     0.048     2.347     2.396
    42   1 H        0.926     0.037     2.489     2.467
    43   1 H        0.925     0.068     2.111     2.272
    44   1 H        0.924     0.054     2.270     2.356
    45   1 H        0.925     0.073     2.048     2.238
    46   1 H        0.924     0.086     1.916     2.165
    47   1 H        0.922     0.005     2.966     2.693
    48   1 H        0.926     0.073     2.058     2.243
    49   1 H        0.924     0.069     2.097     2.264
    50   1 H        0.924     0.068     2.106     2.269
    51   1 H        0.924     0.057     2.237     2.339
    52   1 H        0.924     0.058     2.228     2.334
    53   1 H        0.926     0.047     2.362     2.403
    54   1 H        0.926     0.060     2.197     2.318
    55   1 H        0.924     0.056     2.252     2.347
    56   1 H        0.924     0.058     2.227     2.334
    57   1 H        0.925     0.084     1.939     2.178
    58   1 H        0.925     0.083     1.944     2.180
    59   1 H        0.924     0.050     2.320     2.382
    60   1 H        0.924     0.054     2.267     2.355
    61   1 H        0.926     0.049     2.333     2.389
    62   1 H        0.924     0.082     1.963     2.191
    63   1 H        0.924     0.082     1.963     2.191
    64   1 H        0.925     0.082     1.963     2.191
    65   1 H        0.924     0.045     2.387     2.416
    66   1 H        0.925     0.067     2.117     2.275
    67   1 H        0.925     0.038     2.478     2.461
    68   1 H        0.925     0.053     2.278     2.360
    69   1 H        0.925     0.062     2.172     2.305
    70   1 H        0.925     0.036     2.497     2.471
    71   1 H        0.925     0.057     2.239     2.340
    72   1 H        0.860     0.158     1.347     1.818

Wiberg/Mayer (AO) data.
largest (>0.10) Wiberg bond orders for each atom

     #   Z sym  total        # sym  WBO       # sym  WBO       # sym  WBO
 ---------------------------------------------------------------------------
     1   7 N    3.040 --     2 C    1.955    72 H    0.941
     2   6 C    3.930 --     1 N    1.955     3 C    0.996    47 H    0.897
     3   6 C    3.968 --     2 C    0.996     4 C    0.962    14 C    0.957
                            31 C    0.940
     4   6 C    3.937 --     5 C    1.479    13 C    1.327     3 C    0.962
     5   6 C    3.800 --     4 C    1.479     6 C    1.170    34 H    0.960
     6   6 C    3.889 --     7 O    1.566     5 C    1.170     9 C    1.057
     7   8 O    1.709 --     6 C    1.566
     8   6 C    2.969 --    35 H    0.990    37 H    0.990    36 H    0.990
     9   6 C    3.741 --    12 C    1.398    10 O    1.137     6 C    1.057
    10   8 O    2.247 --     9 C    1.137    11 C    0.975
    11   6 C    3.926 --    39 H    0.976    10 O    0.975    40 H    0.971
                            38 H    0.971
    12   6 C    3.945 --    13 C    1.404     9 C    1.398    41 H    0.960
    13   6 C    3.812 --    12 C    1.404     4 C    1.327    42 H    0.963
    14   6 C    3.971 --    15 C    0.979    44 H    0.972    43 H    0.967
                             3 C    0.957
    15   6 C    3.983 --    16 C    1.063    14 C    0.979    45 H    0.959
                            46 H    0.923
    16   6 C    3.626 --    17 N    1.422    15 C    1.063    48 H    0.956
    17   7 N    3.501 --    16 C    1.422    30 C    0.996    18 C    0.987
    18   6 C    3.954 --    17 N    0.987    50 H    0.968    19 C    0.966
                            49 H    0.964
    19   6 C    3.977 --    20 C    1.008    52 H    0.972    51 H    0.971
                            18 C    0.966
    20   6 C    3.940 --    21 C    1.406    29 C    1.382    19 C    1.008
    21   6 C    3.946 --    22 C    1.419    20 C    1.406    53 H    0.968
    22   6 C    3.957 --    21 C    1.419    23 C    1.381    54 H    0.963
    23   6 C    3.891 --    22 C    1.381    26 C    1.215    24 O    1.114
    24   8 O    2.256 --    23 C    1.114    25 C    0.975
    25   6 C    3.926 --    57 H    0.976    24 O    0.975    55 H    0.972
                            56 H    0.972
    26   6 C    3.894 --    29 C    1.392    23 C    1.215    27 O    1.108
    27   8 O    2.255 --    26 C    1.108    28 C    0.977
    28   6 C    3.930 --    27 O    0.977    58 H    0.976    59 H    0.973
                            60 H    0.973
    29   6 C    3.957 --    26 C    1.392    20 C    1.382    61 H    0.962
    30   6 C    3.955 --    17 N    0.996    64 H    0.978    62 H    0.965
                            63 H    0.961
    31   6 C    3.967 --    33 C    1.008    32 C    1.008    65 H    0.958
                             3 C    0.940
    32   6 C    3.974 --    31 C    1.008    67 H    0.980    68 H    0.980
                            66 H    0.973
    33   6 C    3.978 --    31 C    1.008    70 H    0.982    71 H    0.979
                            69 H    0.974
    34   1 H    0.992 --     5 C    0.960
    35   1 H    0.992 --     8 C    0.990
    36   1 H    0.991 --     8 C    0.990
    37   1 H    0.992 --     8 C    0.990
    38   1 H    0.988 --    11 C    0.971
    39   1 H    0.992 --    11 C    0.976
    40   1 H    0.989 --    11 C    0.971
    41   1 H    0.992 --    12 C    0.960
    42   1 H    0.998 --    13 C    0.963
    43   1 H    0.994 --    14 C    0.967
    44   1 H    0.996 --    14 C    0.972
    45   1 H    0.994 --    15 C    0.959
    46   1 H    0.970 --    15 C    0.923
    47   1 H    0.984 --     2 C    0.897
    48   1 H    0.994 --    16 C    0.956
    49   1 H    0.990 --    18 C    0.964
    50   1 H    0.994 --    18 C    0.968
    51   1 H    0.995 --    19 C    0.971
    52   1 H    0.995 --    19 C    0.972
    53   1 H    0.997 --    21 C    0.968
    54   1 H    0.995 --    22 C    0.963
    55   1 H    0.991 --    25 C    0.972
    56   1 H    0.991 --    25 C    0.972
    57   1 H    0.992 --    25 C    0.976
    58   1 H    0.992 --    28 C    0.976
    59   1 H    0.992 --    28 C    0.973
    60   1 H    0.992 --    28 C    0.973
    61   1 H    0.996 --    29 C    0.962
    62   1 H    0.985 --    30 C    0.965
    63   1 H    0.987 --    30 C    0.961
    64   1 H    0.993 --    30 C    0.978
    65   1 H    0.989 --    31 C    0.958
    66   1 H    0.990 --    32 C    0.973
    67   1 H    0.995 --    32 C    0.980
    68   1 H    0.993 --    32 C    0.980
    69   1 H    0.991 --    33 C    0.974
    70   1 H    0.996 --    33 C    0.982
    71   1 H    0.993 --    33 C    0.979
    72   1 H    0.969 --     1 N    0.941
 ---------------------------------------------------------------------------

molecular dipole:
                 x           y           z       tot (Debye)
 q only:        1.343       0.046      -0.540
   full:        1.742      -0.081      -0.467       4.589

           -------------------------------------------------
          | TOTAL ENERGY              -99.294616036507 Eh   |
          | GRADIENT NORM               0.002312496111 Eh/α |
          | HOMO-LUMO GAP               0.429172051645 eV   |
           -------------------------------------------------

 * finished run on 2024/04/06 at 11:12:23.499
