   * xtb version 6.6.1 (8d0f1dd) compiled by 'conda@1efc2f54142f' on 2023-08-01
          program call               : xtb xtbopt.xyz --opt crude --input .xc2 --gfn2

   ID    Z sym.   atoms
    1    7 N      1, 17
    2    6 C      2-6, 8, 9, 11-16, 18-23, 25, 26, 28-33
    3    8 O      7, 10, 24, 27
    4    1 H      34-72
########################################################################
[WARNING] Please study the warnings concerning your input carefully
-1- readin_getIntValue: could not parse ''
########################################################################

          :  Hamiltonian                  GFN2-xTB          :
 * total energy  :   -99.4103482 Eh     change       -0.2842171E-13 Eh
   *** GEOMETRY OPTIMIZATION CONVERGED AFTER 1 ITERATIONS ***

 final structure:
================
72
 xtb: 6.6.1 (8d0f1dd)
N           -0.71896344270802        1.43772831988468        1.18672255510245
C           -1.65191200415861        2.24607374311465        0.94362892954442
C           -2.87348915962337        1.88360140476581        0.14509928292953
C           -3.34010864745695        0.44541108085424        0.31994120905985
C           -4.31668651218356       -0.05323638056518       -0.54755308226779
C           -4.82941430357653       -1.33205147473294       -0.41234494437533
O           -5.77395253668242       -1.87994128665742       -1.20772199255519
C           -6.39956529809769       -1.08301433073348       -2.18552750101570
C           -4.35447094928892       -2.16963853722489        0.63155376329397
O           -4.90160569541051       -3.40045445024171        0.68518610058181
C           -4.51840191064817       -4.27578334833328        1.71967339824954
C           -3.39709843339665       -1.66640085927988        1.49648376972194
C           -2.90315460555557       -0.37646758461466        1.34652627560611
C           -2.50194708514916        2.16447533729763       -1.33642091669528
C           -1.62080259571099        1.07880036851546       -1.98321889571247
C           -0.22452476177192        1.10659114514791       -1.50146221737267
N            0.43928398095989        0.08395918541795       -1.01019933009675
C            1.79660363241349        0.23762562351857       -0.54726352113709
C            2.82815850347632       -0.31520410591625       -1.54995238066432
C            4.20757266756443       -0.13173321077616       -0.98051124726043
C            4.83365202377081        1.10267753684590       -1.04600213823073
C            6.07205607028976        1.30289782004395       -0.45675844125623
C            6.71197682606709        0.26825115180776        0.21038504925891
O            7.90406682792341        0.35348129878110        0.83008539359777
C            8.59710598550931        1.58026691225984        0.81820918086530
C            6.08659086045151       -1.00744536500471        0.26586509521421
O            6.78348266626012       -1.96038304024432        0.91680457216648
C            6.27199799370344       -3.27051728097876        0.97464926677899
C            4.84339913676311       -1.18093080029518       -0.32290693353352
C           -0.17896222596988       -1.20172161515172       -0.80650248947531
C           -4.06625867398269        2.79745143426546        0.57587089918072
C           -4.31796204530662        2.66248248646272        2.07833543073584
C           -3.91366117647481        4.27204220925139        0.20236773628832
H           -4.69455989683557        0.57223081658581       -1.33922698435173
H           -6.86881220354672       -0.19905240096566       -1.74252899197409
H           -7.16845801621127       -1.71342552200315       -2.62836700361114
H           -5.69566833026330       -0.77368232387870       -2.96592690680337
H           -4.75869766345396       -3.86320384195473        2.70429881480435
H           -5.09354530373669       -5.18571708319652        1.56015150397564
H           -3.45009602331141       -4.50957409844386        1.67301195197308
H           -3.03239677618226       -2.26886269699442        2.31227335131552
H           -2.16913122758200       -0.02208760134825        2.05014166676174
H           -3.41932509259242        2.24613979001872       -1.91918799084378
H           -1.98619455744789        3.12411763674361       -1.39867960933449
H           -2.07947515281410        0.10571046664204       -1.82893583357466
H           -1.60687697018286        1.28862706683323       -3.05981239826610
H            0.31002303504939        2.04139966393858       -1.58284246077690
H           -1.60967316311571        3.29760448597295        1.23255657215613
H            1.90103510833888       -0.28605765819914        0.40655525028462
H            2.00637034158992        1.29547326498643       -0.37795587126176
H            2.73316357050645        0.22766534064728       -2.49236979020289
H            2.63396550036713       -1.37139836955725       -1.74005045043495
H            4.36089459743040        1.92166694602260       -1.56628547444348
H            6.53341308880689        2.27438150112169       -0.52349861496064
H            8.02995171076803        2.36432991566330        1.32969058475846
H            8.82721739324491        1.90134426595415       -0.20208603979528
H            9.52507956682702        1.39725270384630        1.35671456689977
H            7.01527612647846       -3.84996827583317        1.51895918352026
H            5.31985140815870       -3.30833331936706        1.51377867179212
H            6.14388008307781       -3.69515270267506       -0.02617702817776
H            4.35968327431095       -2.14424757388293       -0.28271830205011
H           -0.62126489741498       -1.57498536309937       -1.72888455457725
H           -0.95663142730285       -1.11839587933282       -0.04384641991939
H            0.56897167187626       -1.91424162680228       -0.47172849172443
H           -4.95367151260726        2.42094580325361        0.05617958296090
H           -3.49290173574040        3.07636984036808        2.65425354489885
H           -4.44250541973128        1.61872063497536        2.35810618891278
H           -5.22252538054567        3.19903522385216        2.35299971711433
H           -3.02134221904019        4.71618948536312        0.63572282361088
H           -3.88495601005565        4.41635850262673       -0.87411206636165
H           -4.77033369984021        4.82015259033795        0.58588866980759
H            0.06377668739726        1.81791652649808        1.71216160417722

          :  Hamiltonian                  GFN2-xTB          :
         :: total energy             -99.410348208851 Eh    ::
         :: gradient norm              0.003689599995 Eh/a0 ::
         :: HOMO-LUMO gap              1.754394646767 eV    ::
         :: SCC energy              -100.791158108652 Eh    ::
         :: -> dispersion             -0.076061257392 Eh    ::
         :: repulsion energy           1.379436738656 Eh    ::

    * Orbital Energies and Occupations

         #    Occupation            Energy/Eh            Energy/eV
      -------------------------------------------------------------
         1        2.0000           -0.8051446             -21.9091
       ...           ...                  ...                  ...
        78        1.9989           -0.5318267             -14.4717
        79        1.9987           -0.5294480             -14.4070
        80        1.9984           -0.5258050             -14.3079
        81        1.9979           -0.5216378             -14.1945
        82        1.9979           -0.5215687             -14.1926
        83        1.9972           -0.5174957             -14.0818
        84        1.9970           -0.5163729             -14.0512
        85        1.9961           -0.5120466             -13.9335
        86        1.9799           -0.4858912             -13.2218
        87        1.9796           -0.4856889             -13.2163
        88        1.9659           -0.4774687             -12.9926
        89        1.8675           -0.4551445             -12.3851
        90        1.8504           -0.4530745             -12.3288 (HOMO)
        91        0.3483           -0.3886017             -10.5744 (LUMO)
        92        0.0217           -0.3418162              -9.3013
        93        0.0034           -0.3120801              -8.4921
        94        0.0028           -0.3094575              -8.4208
        95        0.0026           -0.3080170              -8.3816
        96        0.0025           -0.3074592              -8.3664
        97        0.0000           -0.1861399              -5.0651
        98        0.0000           -0.1848055              -5.0288
        99                         -0.1248591              -3.3976
       100                         -0.0725216              -1.9734
       101                         -0.0608537              -1.6559
       ...                                ...                  ...
       171                          0.5789968              15.7553
      -------------------------------------------------------------
                  HL-Gap            0.0644728 Eh            1.7544 eV

     #   Z          covCN         q      C6AA      α(0)
     1   7 N        1.774    -0.321    29.149     7.995
     2   6 C        2.828     0.102    25.735     8.313
     3   6 C        3.907     0.005    20.437     6.426
     4   6 C        2.970     0.004    27.921     8.667
     5   6 C        2.922    -0.082    30.063     8.992
     6   6 C        2.862     0.128    25.191     8.227
     7   8 O        1.706    -0.232    17.854     5.705
     8   6 C        3.644     0.029    20.433     6.498
     9   6 C        2.864     0.129    25.173     8.224
    10   8 O        1.706    -0.229    17.796     5.696
    11   6 C        3.645     0.027    20.456     6.500
    12   6 C        2.914    -0.075    29.867     8.962
    13   6 C        2.922    -0.052    29.281     8.874
    14   6 C        3.812    -0.058    21.616     6.618
    15   6 C        3.802    -0.071    21.854     6.656
    16   6 C        2.848     0.018    27.596     8.610
    17   7 N        2.729     0.050    20.363     6.702
    18   6 C        3.760    -0.025    21.063     6.543
    19   6 C        3.807    -0.071    21.850     6.654
    20   6 C        2.970     0.000    28.021     8.683
    21   6 C        2.922    -0.050    29.240     8.867
    22   6 C        2.914    -0.068    29.694     8.936
    23   6 C        2.865     0.133    25.096     8.212
    24   8 O        1.706    -0.223    17.705     5.681
    25   6 C        3.645     0.025    20.480     6.504
    26   6 C        2.863     0.133    25.096     8.211
    27   8 O        1.706    -0.226    17.743     5.687
    28   6 C        3.645     0.027    20.454     6.500
    29   6 C        2.919    -0.079    29.986     8.980
    30   6 C        3.703    -0.083    22.249     6.744
    31   6 C        3.855    -0.016    20.827     6.491
    32   6 C        3.755    -0.110    22.663     6.788
    33   6 C        3.754    -0.112    22.700     6.794
    34   1 H        0.926     0.048     2.341     2.393
    35   1 H        0.924     0.051     2.304     2.374
    36   1 H        0.925     0.080     1.977     2.199
    37   1 H        0.924     0.046     2.369     2.407
    38   1 H        0.924     0.054     2.268     2.355
    39   1 H        0.925     0.080     1.977     2.199
    40   1 H        0.924     0.049     2.336     2.390
    41   1 H        0.926     0.052     2.292     2.367
    42   1 H        0.926     0.059     2.206     2.323
    43   1 H        0.925     0.061     2.188     2.313
    44   1 H        0.924     0.052     2.299     2.371
    45   1 H        0.925     0.074     2.044     2.236
    46   1 H        0.924     0.080     1.977     2.199
    47   1 H        0.926     0.071     2.077     2.254
    48   1 H        0.924     0.020     2.729     2.583
    49   1 H        0.924     0.079     1.988     2.205
    50   1 H        0.924     0.070     2.080     2.255
    51   1 H        0.924     0.057     2.237     2.339
    52   1 H        0.924     0.056     2.250     2.346
    53   1 H        0.926     0.044     2.401     2.423
    54   1 H        0.926     0.057     2.230     2.335
    55   1 H        0.924     0.053     2.281     2.362
    56   1 H        0.924     0.055     2.256     2.349
    57   1 H        0.925     0.082     1.962     2.191
    58   1 H        0.925     0.081     1.966     2.193
    59   1 H        0.924     0.049     2.338     2.391
    60   1 H        0.924     0.053     2.288     2.366
    61   1 H        0.926     0.048     2.344     2.394
    62   1 H        0.925     0.079     1.992     2.207
    63   1 H        0.924     0.100     1.784     2.088
    64   1 H        0.925     0.084     1.935     2.175
    65   1 H        0.924     0.041     2.436     2.441
    66   1 H        0.925     0.040     2.453     2.449
    67   1 H        0.925     0.040     2.447     2.446
    68   1 H        0.925     0.051     2.310     2.377
    69   1 H        0.925     0.038     2.474     2.460
    70   1 H        0.925     0.039     2.460     2.453
    71   1 H        0.925     0.055     2.264     2.353
    72   1 H        0.860     0.146     1.431     1.874

Wiberg/Mayer (AO) data.
largest (>0.10) Wiberg bond orders for each atom

     #   Z sym  total        # sym  WBO       # sym  WBO       # sym  WBO
 ---------------------------------------------------------------------------
     1   7 N    2.992 --     2 C    1.921    72 H    0.948
     2   6 C    3.929 --     1 N    1.921     3 C    1.001    48 H    0.937
     3   6 C    3.981 --     2 C    1.001     4 C    0.981    14 C    0.948
                            31 C    0.942
     4   6 C    3.947 --    13 C    1.415     5 C    1.367     3 C    0.981
     5   6 C    3.962 --     6 C    1.403     4 C    1.367    34 H    0.957
     6   6 C    3.903 --     5 C    1.403     9 C    1.223     7 O    1.094
     7   8 O    2.248 --     6 C    1.094     8 C    0.979
     8   6 C    3.934 --     7 O    0.979    36 H    0.977    35 H    0.974
                            37 H    0.973
     9   6 C    3.901 --    12 C    1.392     6 C    1.223    10 O    1.101
    10   8 O    2.251 --     9 C    1.101    11 C    0.978
    11   6 C    3.932 --    10 O    0.978    39 H    0.977    40 H    0.974
                            38 H    0.973
    12   6 C    3.962 --    13 C    1.402     9 C    1.392    41 H    0.964
    13   6 C    3.952 --     4 C    1.415    12 C    1.402    42 H    0.959
    14   6 C    3.969 --    15 C    0.974    44 H    0.973    43 H    0.966
                             3 C    0.948
    15   6 C    3.987 --    16 C    1.061    14 C    0.974    45 H    0.961
                            46 H    0.933
    16   6 C    3.622 --    17 N    1.468    15 C    1.061    47 H    0.958
    17   7 N    3.528 --    16 C    1.468    30 C    0.996    18 C    0.987
    18   6 C    3.953 --    17 N    0.987    19 C    0.968    50 H    0.967
                            49 H    0.961
    19   6 C    3.979 --    20 C    1.007    52 H    0.972    51 H    0.970
                            18 C    0.968
    20   6 C    3.946 --    21 C    1.408    29 C    1.383    19 C    1.007
    21   6 C    3.951 --    22 C    1.418    20 C    1.408    53 H    0.968
    22   6 C    3.961 --    21 C    1.418    23 C    1.383    54 H    0.963
    23   6 C    3.897 --    22 C    1.383    26 C    1.222    24 O    1.108
    24   8 O    2.254 --    23 C    1.108    25 C    0.976
    25   6 C    3.929 --    57 H    0.977    24 O    0.976    55 H    0.973
                            56 H    0.973
    26   6 C    3.900 --    29 C    1.393    23 C    1.222    27 O    1.103
    27   8 O    2.254 --    26 C    1.103    28 C    0.979
    28   6 C    3.932 --    27 O    0.979    58 H    0.977    60 H    0.973
                            59 H    0.973
    29   6 C    3.960 --    26 C    1.393    20 C    1.383    61 H    0.962
    30   6 C    3.951 --    17 N    0.996    64 H    0.977    62 H    0.969
                            63 H    0.949
    31   6 C    3.982 --    33 C    1.009    32 C    1.009    65 H    0.964
                             3 C    0.942
    32   6 C    3.990 --    31 C    1.009    68 H    0.983    66 H    0.982
                            67 H    0.982
    33   6 C    3.990 --    31 C    1.009    70 H    0.984    71 H    0.981
                            69 H    0.980
    34   1 H    0.996 --     5 C    0.957
    35   1 H    0.994 --     8 C    0.974
    36   1 H    0.993 --     8 C    0.977
    37   1 H    0.994 --     8 C    0.973
    38   1 H    0.993 --    11 C    0.973
    39   1 H    0.993 --    11 C    0.977
    40   1 H    0.993 --    11 C    0.974
    41   1 H    0.996 --    12 C    0.964
    42   1 H    0.995 --    13 C    0.959
    43   1 H    0.994 --    14 C    0.966
    44   1 H    0.997 --    14 C    0.973
    45   1 H    0.994 --    15 C    0.961
    46   1 H    0.975 --    15 C    0.933
    47   1 H    0.995 --    16 C    0.958
    48   1 H    0.991 --     2 C    0.937
    49   1 H    0.988 --    18 C    0.961
    50   1 H    0.994 --    18 C    0.967
    51   1 H    0.995 --    19 C    0.970
    52   1 H    0.996 --    19 C    0.972
    53   1 H    0.997 --    21 C    0.968
    54   1 H    0.995 --    22 C    0.963
    55   1 H    0.992 --    25 C    0.973
    56   1 H    0.992 --    25 C    0.973
    57   1 H    0.993 --    25 C    0.977
    58   1 H    0.993 --    28 C    0.977
    59   1 H    0.993 --    28 C    0.973
    60   1 H    0.993 --    28 C    0.973
    61   1 H    0.996 --    29 C    0.962
    62   1 H    0.988 --    30 C    0.969
    63   1 H    0.981 --    30 C    0.949
    64   1 H    0.993 --    30 C    0.977
    65   1 H    0.996 --    31 C    0.964
    66   1 H    0.997 --    32 C    0.982
    67   1 H    0.998 --    32 C    0.982
    68   1 H    0.996 --    32 C    0.983
    69   1 H    0.998 --    33 C    0.980
    70   1 H    0.998 --    33 C    0.984
    71   1 H    0.995 --    33 C    0.981
    72   1 H    0.975 --     1 N    0.948
 ---------------------------------------------------------------------------

molecular dipole:
                 x           y           z       tot (Debye)
 q only:        0.425       0.112      -0.973
   full:        0.347       0.734      -0.881       3.045

           -------------------------------------------------
          | TOTAL ENERGY              -99.410348208851 Eh   |
          | GRADIENT NORM               0.003689599995 Eh/α |
          | HOMO-LUMO GAP               1.754394646767 eV   |
           -------------------------------------------------

 * finished run on 2024/04/06 at 11:14:54.248
