   * xtb version 6.6.1 (8d0f1dd) compiled by 'conda@1efc2f54142f' on 2023-08-01
          program call               : xtb struc.xyz --opt loose --input .xc1 --gfn2

   ID    Z sym.   atoms
    1    6 C      1, 3, 5-7, 10, 11, 14
    2    7 N      2, 4, 9, 13
    3    8 O      8, 12
    4    1 H      15-25
constraining bond 3 16 to    5.1400000 Å, actual value:    2.7548643 Å

          :  Hamiltonian                  GFN2-xTB          :
 * total energy  :   -32.0901947 Eh     change       -0.6650680E-10 Eh
 * total energy  :   -36.1291867 Eh     change       -0.4038992E+01 Eh
 * total energy  :   -39.1308047 Eh     change       -0.3001618E+01 Eh
 * total energy  :   -40.9403139 Eh     change       -0.1809509E+01 Eh
 * total energy  :   -41.7232966 Eh     change       -0.7829827E+00 Eh
 * total energy  :   -41.8715036 Eh     change       -0.1482070E+00 Eh
 * total energy  :   -41.8873641 Eh     change       -0.1586055E-01 Eh
 * total energy  :   -41.9172374 Eh     change       -0.2987327E-01 Eh
 * total energy  :   -41.9306286 Eh     change       -0.1339118E-01 Eh
 * total energy  :   -41.9405471 Eh     change       -0.9918507E-02 Eh
 * total energy  :   -42.1005455 Eh     change       -0.1854541E-02 Eh
 * total energy  :   -42.1048021 Eh     change       -0.4256516E-02 Eh
 * total energy  :   -42.1059931 Eh     change       -0.1191085E-02 Eh
 * total energy  :   -42.1071540 Eh     change       -0.1160884E-02 Eh
 * total energy  :   -42.1077339 Eh     change       -0.5799147E-03 Eh
 * total energy  :   -42.1079584 Eh     change       -0.2244187E-03 Eh
 * total energy  :   -42.1080678 Eh     change       -0.1094360E-03 Eh
 * total energy  :   -42.1081879 Eh     change       -0.1201129E-03 Eh
 * total energy  :   -42.1082334 Eh     change       -0.4547488E-04 Eh
   *** GEOMETRY OPTIMIZATION CONVERGED AFTER 36 ITERATIONS ***

 final structure:
================
25
 xtb: 6.6.1 (8d0f1dd)
C            3.13669893186661        0.92597329859769        0.26809740407099
N            2.24501185700568       -0.05334908462295        0.18119887694943
C            2.47334525201483       -1.38702859150292        0.17277985506961
N            1.29393293875651       -2.06114601833465        0.09878199977059
C            0.28727790652281       -1.14814966157725        0.05668523206947
C            0.86512434642939        0.11035812723452        0.10096735122778
C            0.07443569499736        1.31944587032706        0.05986450476949
O            0.50601060877596        2.44743244895363        0.07746551971066
N           -1.28937498413145        1.02797086665498       -0.00803850157366
C           -2.21396426019292        2.15168712973801       -0.05726782741657
C           -1.89125962013312       -0.21582746180650       -0.03131410448485
O           -3.08133168507716       -0.35452215332131       -0.07548294988356
N           -1.03979498887405       -1.34380484231937       -0.00371124082942
C           -1.63057017721515       -2.66691422073568       -0.02234913367847
H            4.17907632311652        0.68859691988844        0.35754390319819
H            4.52872483385330        3.04175275760553       -1.43227578356456
H            2.78359425609241        1.94039772622044        0.27601856375353
H            3.44027010173161       -1.84434679596451        0.22452940511346
H           -1.63126832045173        3.06966769926413       -0.06462729800487
H           -2.82881347898991        2.08346612854276       -0.95444958014617
H           -2.87254817158965        2.12877777169344        0.81093016812382
H           -1.35514181790322       -3.22042708091927        0.87572831926988
H           -1.31793844235377       -3.21436673452071       -0.91197238957274
H           -2.71269264576126       -2.54140442769193       -0.04473852795067
H            1.21162705561039       -3.06600112980350        0.07680785190850

          :  Hamiltonian                  GFN2-xTB          :
         :: total energy             -42.108233381949 Eh    ::
         :: gradient norm              0.002907178907 Eh/a0 ::
         :: HOMO-LUMO gap              0.325586330015 eV    ::
         :: SCC energy               -42.632149930467 Eh    ::
         :: -> dispersion             -0.022756220995 Eh    ::
         :: repulsion energy           0.523818166884 Eh    ::

    * Orbital Energies and Occupations

         #    Occupation            Energy/Eh            Energy/eV
      -------------------------------------------------------------
         1        2.0000           -0.9103748             -24.7726
       ...           ...                  ...                  ...
        25        1.9999           -0.6676910             -18.1688
        26        1.9999           -0.6674204             -18.1614
        27        1.9999           -0.6582252             -17.9112
        28        1.9995           -0.6364095             -17.3176
        29        1.9994           -0.6320642             -17.1993
        30        1.9991           -0.6264829             -17.0475
        31        1.9986           -0.6187660             -16.8375
        32        1.9955           -0.6001637             -16.3313
        33        1.9850           -0.5809448             -15.8083
        34        1.9568           -0.5640022             -15.3473
        35        1.9516           -0.5621377             -15.2965
        36        1.9448           -0.5600146             -15.2388
        37        1.2659           -0.5122397             -13.9388 (HOMO)
        38        0.8950           -0.5002746             -13.6132 (LUMO)
        39        0.0056           -0.4104434             -11.1687
        40        0.0031           -0.4011776             -10.9166
        41        0.0004           -0.3679620             -10.0128
        42        0.0000           -0.2862614              -7.7896
        43                         -0.2064306              -5.6173
        44                         -0.1849910              -5.0339
        45                         -0.1431229              -3.8946
        46                         -0.1148295              -3.1247
        47                         -0.0815663              -2.2195
        48                         -0.0499158              -1.3583
       ...                                ...                  ...
        67                          0.5546794              15.0936
      -------------------------------------------------------------
                  HL-Gap            0.0119651 Eh            0.3256 eV

     #   Z          covCN         q      C6AA      α(0)
     1   6 C        2.790    -0.071    29.749     8.935
     2   7 N        2.808     0.130    19.025     6.478
     3   6 C        3.044     0.025    27.403     8.586
     4   7 N        2.779    -0.058    22.359     7.023
     5   6 C        3.024     0.119    25.350     8.259
     6   6 C        3.113    -0.038    28.794     8.790
     7   6 C        2.764     0.275    22.356     7.743
     8   8 O        0.858    -0.359    20.872     6.125
     9   7 N        2.746    -0.081    22.812     7.094
    10   6 C        3.710    -0.062    21.837     6.678
    11   6 C        2.728     0.318    21.594     7.608
    12   8 O        0.860    -0.350    20.709     6.101
    13   7 N        2.738    -0.053    22.273     7.009
    14   6 C        3.696    -0.073    22.072     6.720
    15   1 H        0.926     0.108     1.715     2.048
    16   1 H        0.000     0.061     5.452     4.269
    17   1 H        0.926     0.138     1.475     1.899
    18   1 H        0.926     0.121     1.606     1.981
    19   1 H        0.925     0.116     1.647     2.007
    20   1 H        0.925     0.103     1.757     2.073
    21   1 H        0.925     0.103     1.757     2.073
    22   1 H        0.924     0.085     1.928     2.171
    23   1 H        0.924     0.086     1.919     2.166
    24   1 H        0.925     0.129     1.542     1.942
    25   1 H        0.860     0.228     0.973     1.545

Wiberg/Mayer (AO) data.
largest (>0.10) Wiberg bond orders for each atom

     #   Z sym  total        # sym  WBO       # sym  WBO       # sym  WBO
 ---------------------------------------------------------------------------
     1   6 C    3.408 --     2 N    1.332    15 H    0.967    17 H    0.955
     2   7 N    3.765 --     1 C    1.332     3 C    1.246     6 C    1.090
     3   6 C    3.642 --     2 N    1.246     4 N    1.241    18 H    0.955
     4   7 N    3.527 --     3 C    1.241     5 C    1.194    25 H    0.920
     5   6 C    3.938 --     6 C    1.348    13 N    1.218     4 N    1.194
     6   6 C    3.846 --     5 C    1.348     2 N    1.090     7 C    1.084
     7   6 C    3.959 --     8 O    1.685     9 N    1.094     6 C    1.084
     8   8 O    2.020 --     7 C    1.685     9 N    0.139
     9   7 N    3.532 --    11 C    1.126     7 C    1.094    10 C    0.972
                             8 O    0.139    12 O    0.133
    10   6 C    3.899 --     9 N    0.972    19 H    0.966    20 H    0.959
                            21 H    0.957
    11   6 C    3.958 --    12 O    1.706     9 N    1.126    13 N    1.034
    12   8 O    2.046 --    11 C    1.706     9 N    0.133    13 N    0.118
    13   7 N    3.531 --     5 C    1.218    11 C    1.034    14 C    0.975
                            12 O    0.118
    14   6 C    3.919 --    13 N    0.975    22 H    0.968    23 H    0.968
                            24 H    0.963
    15   1 H    0.987 --     1 C    0.967
    16   1 H    0.017
    17   1 H    0.980 --     1 C    0.955
    18   1 H    0.984 --     3 C    0.955
    19   1 H    0.983 --    10 C    0.966
    20   1 H    0.978 --    10 C    0.959
    21   1 H    0.977 --    10 C    0.957
    22   1 H    0.986 --    14 C    0.968
    23   1 H    0.986 --    14 C    0.968
    24   1 H    0.982 --    14 C    0.963
    25   1 H    0.947 --     4 N    0.920
 ---------------------------------------------------------------------------

molecular dipole:
                 x           y           z       tot (Debye)
 q only:        2.341      -1.934       0.036
   full:        2.614      -2.408       0.048       9.034

           -------------------------------------------------
          | TOTAL ENERGY              -42.108233381949 Eh   |
          | GRADIENT NORM               0.002907178907 Eh/α |
          | HOMO-LUMO GAP               0.325586330015 eV   |
           -------------------------------------------------

 * finished run on 2024/06/05 at 19:57:51.311
