   * xtb version 6.6.1 (8d0f1dd) compiled by 'conda@1efc2f54142f' on 2023-08-01
          program call               : xtb struc.xyz --opt loose --input .xc1 --gfn2

   ID    Z sym.   atoms
    1    6 C      1, 3, 5-7, 10, 11, 14
    2    7 N      2, 4, 9, 13
    3    8 O      8, 12
    4    1 H      15-25
constraining bond 11 12 to    3.7600000 Å, actual value:    1.1960413 Å

          :  Hamiltonian                  GFN2-xTB          :
 * total energy  :   -30.5074023 Eh     change       -0.6633627E-10 Eh
 * total energy  :   -34.6559358 Eh     change       -0.4148534E+01 Eh
 * total energy  :   -38.1404997 Eh     change       -0.3484564E+01 Eh
 * total energy  :   -40.3694159 Eh     change       -0.2228916E+01 Eh
 * total energy  :   -41.3883905 Eh     change       -0.1018975E+01 Eh
 * total energy  :   -41.6100643 Eh     change       -0.2216738E+00 Eh
 * total energy  :   -41.6226671 Eh     change       -0.1260275E-01 Eh
 * total energy  :   -41.6401955 Eh     change       -0.1752841E-01 Eh
 * total energy  :   -41.6710129 Eh     change       -0.3081746E-01 Eh
 * total energy  :   -41.7016862 Eh     change       -0.3067330E-01 Eh
 * total energy  :   -42.1632273 Eh     change       -0.1500178E-03 Eh
 * total energy  :   -42.1633468 Eh     change       -0.1195063E-03 Eh
 * total energy  :   -42.1634263 Eh     change       -0.7955970E-04 Eh
 * total energy  :   -42.1634764 Eh     change       -0.5009723E-04 Eh
 * total energy  :   -42.1635217 Eh     change       -0.4523232E-04 Eh
 * total energy  :   -42.1635788 Eh     change       -0.5710851E-04 Eh
 * total energy  :   -42.1636246 Eh     change       -0.4581757E-04 Eh
 * total energy  :   -42.1636740 Eh     change       -0.4945454E-04 Eh
 * total energy  :   -42.1637129 Eh     change       -0.3889073E-04 Eh
   *** GEOMETRY OPTIMIZATION CONVERGED AFTER 89 ITERATIONS ***

 final structure:
================
25
 xtb: 6.6.1 (8d0f1dd)
C            3.22621758021954        0.97080782423142        0.36023873903931
N            2.16724149377118       -0.00184855421467        0.29618287142531
C            2.27810085959760       -1.31479774416201        0.41397279053989
N            1.07243307560314       -1.89394565790672        0.28071297925284
C            0.15125713144911       -0.90696310426143        0.06947463908508
C            0.84343446445163        0.29356993361488        0.07789654161189
C            0.15886767739662        1.55381970140574       -0.13579613236884
O            0.65043945334638        2.65420732728893       -0.11455207789968
N           -1.20796760860850        1.32583554176951       -0.39077329103917
C           -1.97420916476122        2.53442208562065       -0.65827804228183
C           -1.89049060743729        0.18583593108489       -0.41297327918906
O           -1.15956658075991       -3.36829704974004        0.51993904921801
N           -1.18134334387502       -0.98486291460338       -0.12274891656635
C           -1.80746438246899       -2.33973543266338       -0.21529806507848
H            3.90746324972371        0.73365952636453        1.17532193029365
H            3.78650894682693        0.98186032848621       -0.57618240511639
H            2.78921649623534        1.95683751978972        0.51310103850418
H            3.19359091804067       -1.84673557794349        0.58943423006416
H           -1.43595311543206        3.15459535059990       -1.37436331220540
H           -2.94832196482563        2.24979058334006       -1.04309365411053
H           -2.09367771313084        3.10455271095649        0.26470925070724
H           -1.76262050989068       -2.64171863252462       -1.26836507747453
H           -2.85441039917880       -2.21263691684655        0.07017734700065
H           -1.58681999807501       -3.48755443257726        1.37629592093171
H            0.83850555588281       -2.88245980550954        0.33613854355669

          :  Hamiltonian                  GFN2-xTB          :
         :: total energy             -42.163712923435 Eh    ::
         :: gradient norm              0.003313720269 Eh/a0 ::
         :: HOMO-LUMO gap              2.095455894957 eV    ::
         :: SCC energy               -42.662721125343 Eh    ::
         :: -> dispersion             -0.022384109127 Eh    ::
         :: repulsion energy           0.498576858184 Eh    ::

    * Orbital Energies and Occupations

         #    Occupation            Energy/Eh            Energy/eV
      -------------------------------------------------------------
         1        2.0000           -0.9095458             -24.7500
       ...           ...                  ...                  ...
        25        2.0000           -0.6623357             -18.0231
        26        2.0000           -0.6531918             -17.7743
        27        2.0000           -0.6406655             -17.4334
        28        2.0000           -0.6362450             -17.3131
        29        2.0000           -0.6338620             -17.2483
        30        2.0000           -0.6155497             -16.7500
        31        2.0000           -0.6120647             -16.6551
        32        2.0000           -0.5986625             -16.2904
        33        2.0000           -0.5898567             -16.0508
        34        2.0000           -0.5752357             -15.6530
        35        2.0000           -0.5659352             -15.3999
        36        1.9999           -0.5507303             -14.9861
        37        1.9846           -0.5087165             -13.8429 (HOMO)
        38        0.0152           -0.4317099             -11.7474 (LUMO)
        39        0.0002           -0.3981862             -10.8352
        40        0.0000           -0.3843329             -10.4582
        41                         -0.2824785              -7.6866
        42                         -0.2084833              -5.6731
        43                         -0.1913218              -5.2061
        44                         -0.1518458              -4.1319
        45                         -0.1264172              -3.4400
        46                         -0.1059021              -2.8817
        47                         -0.0720967              -1.9618
        48                         -0.0293562              -0.7988
       ...                                ...                  ...
        67                          0.5480747              14.9139
      -------------------------------------------------------------
                  HL-Gap            0.0770066 Eh            2.0955 eV

     #   Z          covCN         q      C6AA      α(0)
     1   6 C        3.692    -0.090    22.418     6.775
     2   7 N        2.839     0.080    19.858     6.618
     3   6 C        3.068     0.063    26.516     8.444
     4   7 N        2.800    -0.064    22.470     7.040
     5   6 C        3.053     0.121    25.303     8.250
     6   6 C        3.129    -0.016    28.207     8.695
     7   6 C        2.771     0.265    22.531     7.774
     8   8 O        0.857    -0.372    21.123     6.162
     9   7 N        2.749     0.008    21.112     6.824
    10   6 C        3.723    -0.070    21.953     6.691
    11   6 C        1.879    -0.108    34.127     9.435
    12   8 O        1.654    -0.424    21.322     6.233
    13   7 N        2.737    -0.032    21.855     6.943
    14   6 C        3.612     0.114    19.182     6.322
    15   1 H        0.925     0.102     1.763     2.076
    16   1 H        0.924     0.109     1.703     2.041
    17   1 H        0.925     0.134     1.504     1.918
    18   1 H        0.926     0.124     1.582     1.967
    19   1 H        0.925     0.097     1.808     2.103
    20   1 H        0.925     0.102     1.769     2.080
    21   1 H        0.924     0.093     1.849     2.126
    22   1 H        0.924     0.093     1.848     2.126
    23   1 H        0.924     0.094     1.844     2.124
    24   1 H        0.805     0.322     0.658     1.274
    25   1 H        0.860     0.254     0.869     1.461

Wiberg/Mayer (AO) data.
largest (>0.10) Wiberg bond orders for each atom

     #   Z sym  total        # sym  WBO       # sym  WBO       # sym  WBO
 ---------------------------------------------------------------------------
     1   6 C    3.918 --     2 N    0.985    15 H    0.967    17 H    0.962
                            16 H    0.955
     2   7 N    3.720 --     3 C    1.416     6 C    1.161     1 C    0.985
     3   6 C    3.933 --     2 N    1.416     4 N    1.311    18 H    0.952
     4   7 N    3.615 --     3 C    1.311     5 C    1.185    25 H    0.892
     5   6 C    3.964 --     6 C    1.361    13 N    1.215     4 N    1.185
     6   6 C    3.936 --     5 C    1.361     2 N    1.161     7 C    1.074
     7   6 C    3.963 --     8 O    1.714     6 C    1.074     9 N    1.060
     8   8 O    2.067 --     7 C    1.714     9 N    0.131
     9   7 N    3.680 --    11 C    1.422     7 C    1.060    10 C    0.978
                             8 O    0.131
    10   6 C    3.935 --     9 N    0.978    20 H    0.976    19 H    0.968
                            21 H    0.964
    11   6 C    2.847 --     9 N    1.422    13 N    1.196
    12   8 O    2.008 --    14 C    1.026    24 H    0.884
    13   7 N    3.603 --     5 C    1.215    11 C    1.196    14 C    0.939
    14   6 C    3.925 --    12 O    1.026    23 H    0.965    22 H    0.956
                            13 N    0.939
    15   1 H    0.989 --     1 C    0.967
    16   1 H    0.987 --     1 C    0.955
    17   1 H    0.982 --     1 C    0.962
    18   1 H    0.984 --     3 C    0.952
    19   1 H    0.990 --    10 C    0.968
    20   1 H    0.989 --    10 C    0.976
    21   1 H    0.991 --    10 C    0.964
    22   1 H    0.989 --    14 C    0.956
    23   1 H    0.991 --    14 C    0.965
    24   1 H    0.896 --    12 O    0.884
    25   1 H    0.935 --     4 N    0.892
 ---------------------------------------------------------------------------

molecular dipole:
                 x           y           z       tot (Debye)
 q only:        1.203      -1.887       0.492
   full:        1.653      -2.323       0.764       7.503

           -------------------------------------------------
          | TOTAL ENERGY              -42.163712923435 Eh   |
          | GRADIENT NORM               0.003313720269 Eh/α |
          | HOMO-LUMO GAP               2.095455894957 eV   |
           -------------------------------------------------

 * finished run on 2024/06/05 at 19:58:06.977
