   * xtb version 6.6.1 (8d0f1dd) compiled by 'conda@1efc2f54142f' on 2023-08-01
          program call               : xtb xtbopt.xyz --opt crude --input .xc2 --gfn2

   ID    Z sym.   atoms
    1    6 C      1, 3, 5-7, 10, 11, 14
    2    7 N      2, 4, 9, 13
    3    8 O      8, 12
    4    1 H      15-25
########################################################################
[WARNING] Please study the warnings concerning your input carefully
-1- readin_getIntValue: could not parse ''
########################################################################

          :  Hamiltonian                  GFN2-xTB          :
 * total energy  :   -42.1640372 Eh     change       -0.2273737E-12 Eh
 * total energy  :   -42.1676534 Eh     change       -0.3616230E-02 Eh
 * total energy  :   -42.1685301 Eh     change       -0.8766411E-03 Eh
 * total energy  :   -42.1688329 Eh     change       -0.3027878E-03 Eh
   *** GEOMETRY OPTIMIZATION CONVERGED AFTER 4 ITERATIONS ***

 final structure:
================
25
 xtb: 6.6.1 (8d0f1dd)
C            3.23287858238028        0.97720478443346        0.36084788150001
N            2.18381031295972       -0.00598444461963        0.29562626559734
C            2.30825641639301       -1.31896714732381        0.40977228508089
N            1.11007375435618       -1.91034916814861        0.26712208760297
C            0.18328925688743       -0.93185086892528        0.05277971705801
C            0.85844667490530        0.27614491371907        0.07152643941131
C            0.15526704407528        1.52974788579092       -0.13524864891301
O            0.63490929761277        2.63625162276112       -0.11695905492537
N           -1.21312329343259        1.28631068027382       -0.36917505420944
C           -1.99211649014410        2.48639802670503       -0.63055631508071
C           -1.87204661342996        0.12517455767201       -0.37491971651989
O           -1.21265327875659       -3.23832410767079        0.56639146440899
N           -1.14950894985287       -1.00400182472893       -0.14516187496571
C           -1.82624939842443       -2.29911586581578       -0.25575590249203
H            3.91420623519271        0.75055506311672        1.17909412734629
H            3.79484061615097        0.98965268869227       -0.57455138206127
H            2.78476508386729        1.95968708717021        0.50763517283530
H            3.22769448124225       -1.84085934883746        0.59218942660301
H           -1.47319490556023        3.09647798591809       -1.36955267686069
H           -2.97235878051459        2.19458527099671       -0.99359820160785
H           -2.09063408590186        3.07188952701598        0.28361193955814
H           -1.73712440953447       -2.64728033582512       -1.29410511661271
H           -2.88210157338033       -2.12964597403505       -0.02729692725760
H           -1.68350820402409       -3.33843995005752        1.40252936591815
H            0.87661374103359       -2.89702251667758        0.32892631648625

          :  Hamiltonian                  GFN2-xTB          :
         :: total energy             -42.168832858824 Eh    ::
         :: gradient norm              0.004544106836 Eh/a0 ::
         :: HOMO-LUMO gap              2.039088194685 eV    ::
         :: SCC energy               -42.675645862386 Eh    ::
         :: -> dispersion             -0.022494098216 Eh    ::
         :: repulsion energy           0.506699185601 Eh    ::

    * Orbital Energies and Occupations

         #    Occupation            Energy/Eh            Energy/eV
      -------------------------------------------------------------
         1        2.0000           -0.9103270             -24.7713
       ...           ...                  ...                  ...
        25        2.0000           -0.6610663             -17.9885
        26        2.0000           -0.6515281             -17.7290
        27        2.0000           -0.6394971             -17.4016
        28        2.0000           -0.6345066             -17.2658
        29        2.0000           -0.6331129             -17.2279
        30        2.0000           -0.6156256             -16.7520
        31        2.0000           -0.6104506             -16.6112
        32        2.0000           -0.5968401             -16.2408
        33        2.0000           -0.5875804             -15.9889
        34        2.0000           -0.5751580             -15.6508
        35        2.0000           -0.5644414             -15.3592
        36        1.9999           -0.5499153             -14.9640
        37        1.9824           -0.5063330             -13.7780 (HOMO)
        38        0.0173           -0.4313979             -11.7389 (LUMO)
        39        0.0003           -0.3992184             -10.8633
        40        0.0000           -0.3797545             -10.3336
        41                         -0.2804085              -7.6303
        42                         -0.1927062              -5.2438
        43                         -0.1773820              -4.8268
        44                         -0.1332792              -3.6267
        45                         -0.1237556              -3.3676
        46                         -0.0930180              -2.5311
        47                         -0.0650496              -1.7701
        48                         -0.0284146              -0.7732
       ...                                ...                  ...
        67                          0.5472869              14.8924
      -------------------------------------------------------------
                  HL-Gap            0.0749351 Eh            2.0391 eV

     #   Z          covCN         q      C6AA      α(0)
     1   6 C        3.692    -0.091    22.421     6.776
     2   7 N        2.841     0.080    19.852     6.617
     3   6 C        3.071     0.063    26.521     8.444
     4   7 N        2.799    -0.059    22.372     7.025
     5   6 C        3.064     0.118    25.342     8.255
     6   6 C        3.128    -0.014    28.161     8.689
     7   6 C        2.772     0.264    22.542     7.776
     8   8 O        0.857    -0.373    21.152     6.166
     9   7 N        2.751     0.001    21.254     6.847
    10   6 C        3.719    -0.070    21.954     6.692
    11   6 C        1.890    -0.113    34.261     9.454
    12   8 O        1.657    -0.427    21.371     6.241
    13   7 N        2.745    -0.016    21.561     6.896
    14   6 C        3.625     0.121    19.001     6.281
    15   1 H        0.925     0.103     1.760     2.075
    16   1 H        0.924     0.109     1.701     2.040
    17   1 H        0.925     0.135     1.500     1.916
    18   1 H        0.926     0.125     1.577     1.964
    19   1 H        0.925     0.096     1.822     2.111
    20   1 H        0.925     0.100     1.785     2.089
    21   1 H        0.925     0.093     1.854     2.129
    22   1 H        0.923     0.086     1.921     2.168
    23   1 H        0.924     0.091     1.865     2.135
    24   1 H        0.805     0.324     0.652     1.268
    25   1 H        0.860     0.253     0.873     1.464

Wiberg/Mayer (AO) data.
largest (>0.10) Wiberg bond orders for each atom

     #   Z sym  total        # sym  WBO       # sym  WBO       # sym  WBO
 ---------------------------------------------------------------------------
     1   6 C    3.918 --     2 N    0.985    15 H    0.967    17 H    0.962
                            16 H    0.954
     2   7 N    3.719 --     3 C    1.414     6 C    1.163     1 C    0.985
     3   6 C    3.931 --     2 N    1.414     4 N    1.311    18 H    0.952
     4   7 N    3.618 --     3 C    1.311     5 C    1.188    25 H    0.897
     5   6 C    3.963 --     6 C    1.368    13 N    1.197     4 N    1.188
     6   6 C    3.937 --     5 C    1.368     2 N    1.163     7 C    1.070
     7   6 C    3.963 --     8 O    1.712     6 C    1.070     9 N    1.067
     8   8 O    2.065 --     7 C    1.712     9 N    0.136
     9   7 N    3.672 --    11 C    1.393     7 C    1.067    10 C    0.981
                             8 O    0.136
    10   6 C    3.937 --     9 N    0.981    20 H    0.976    19 H    0.968
                            21 H    0.964
    11   6 C    2.862 --     9 N    1.393    13 N    1.238
    12   8 O    2.001 --    14 C    1.029    24 H    0.881
    13   7 N    3.622 --    11 C    1.238     5 C    1.197    14 C    0.945
    14   6 C    3.927 --    12 O    1.029    23 H    0.962    22 H    0.953
                            13 N    0.945
    15   1 H    0.989 --     1 C    0.967
    16   1 H    0.987 --     1 C    0.954
    17   1 H    0.982 --     1 C    0.962
    18   1 H    0.983 --     3 C    0.952
    19   1 H    0.990 --    10 C    0.968
    20   1 H    0.989 --    10 C    0.976
    21   1 H    0.991 --    10 C    0.964
    22   1 H    0.990 --    14 C    0.953
    23   1 H    0.991 --    14 C    0.962
    24   1 H    0.895 --    12 O    0.881
    25   1 H    0.936 --     4 N    0.897
 ---------------------------------------------------------------------------

molecular dipole:
                 x           y           z       tot (Debye)
 q only:        1.254      -1.959       0.473
   full:        1.682      -2.395       0.701       7.650

           -------------------------------------------------
          | TOTAL ENERGY              -42.168832858824 Eh   |
          | GRADIENT NORM               0.004544106836 Eh/α |
          | HOMO-LUMO GAP               2.039088194685 eV   |
           -------------------------------------------------

 * finished run on 2024/06/05 at 19:58:07.395
