   * xtb version 6.6.1 (8d0f1dd) compiled by 'conda@1efc2f54142f' on 2023-08-01
          program call               : xtb xtbopt.xyz --opt crude --input .xc2 --gfn2

   ID    Z sym.   atoms
    1    7 N      1, 17
    2    6 C      2-6, 8, 9, 11-16, 18-23, 25, 26, 28-33
    3    8 O      7, 10, 24, 27
    4    1 H      34-72

          :  Hamiltonian                  GFN2-xTB          :
 * total energy  :   -99.3734682 Eh     change       -0.6394885E-12 Eh
   *** GEOMETRY OPTIMIZATION CONVERGED AFTER 1 ITERATIONS ***

 final structure:
================
72
 xtb: 6.6.1 (8d0f1dd)
N           -0.70228436259101        2.01593571573018        1.49182478030198
C           -1.68492050618253        1.88796207119171        0.91713869165668
C           -2.90766609987868        1.75398410409413        0.15290274521715
C           -3.45530346598438        0.33986458857930        0.27716106166737
C           -4.51215623349890       -0.06734317117757       -0.53832838872234
C           -5.03599011543819       -1.34628106457362       -0.44728576606958
O           -6.04720056141046       -1.83218796378243       -1.19474537749612
C           -6.68270091146333       -0.99416354214213       -2.13095110473931
C           -4.49232156698396       -2.26205159703960        0.49526912945346
O           -5.05854615798259       -3.48414125384276        0.50446422709539
C           -4.60609541928815       -4.44216679826283        1.43297541258368
C           -3.45283413524810       -1.84325563425400        1.30958723112541
C           -2.93972975192732       -0.55635551076143        1.20019312417566
C           -2.54594475053277        2.08174753089639       -1.31536949943264
C           -1.63491826085698        1.01411952657657       -1.94807543900942
C           -0.30917545561066        0.98940656730253       -1.29591202541957
N            0.28795865601138       -0.06571234029006       -0.78414065678222
C            1.61334264686000        0.06037548161071       -0.22269550143999
C            2.68439438180026       -0.35003902334252       -1.25099023888153
C            4.06704296586782       -0.10691630081610       -0.71520097825996
C            4.63667788859396        1.15481703514100       -0.79289164950043
C            5.91579222168868        1.38767819845394       -0.31422090594817
C            6.65316626852360        0.35982422570314        0.25745429025300
O            7.90384889090650        0.46315869136265        0.73959817360173
C            8.57407353666663        1.70027761667428        0.66003387491915
C            6.07159719029672       -0.93561396362649        0.35439818595210
O            6.85622463554758       -1.87202387043892        0.92051137708500
C            6.38176810777517       -3.19188793614230        1.04089540700357
C            4.78878113901951       -1.14305098250400       -0.12939458632755
C           -0.28302508449114       -1.38836867757871       -0.84515683664003
C           -3.95260938206320        2.76646249141828        0.71793837289860
C           -4.30683719589891        2.40811862970128        2.16049434490349
C           -3.45784497280231        4.20991251035422        0.64976268570501
H           -4.93791548156684        0.62684880138754       -1.24410440113069
H           -7.14178042295989       -0.12661047641237       -1.64733014590122
H           -7.46029834572200       -1.60407725204934       -2.58647885951568
H           -5.98766900784607       -0.65815090219324       -2.90739912088652
H           -4.73957291611267       -4.09766128503869        2.46258672054532
H           -5.22110315346299       -5.32404468941607        1.26526194411467
H           -3.55462159623493       -4.69665134911655        1.26555680376287
H           -3.03244819042882       -2.50902518188162        2.04538503427421
H           -2.14063354350283       -0.25685978864182        1.86130985549490
H           -3.46014997365945        2.16300184952556       -1.90286419618910
H           -2.03579005640941        3.04478467249196       -1.35145986048091
H           -2.12435125932055        0.04147852478118       -1.91604807617908
H           -1.49699817668828        1.29152506869630       -2.99959331767712
H            0.22145925853628        1.92672874846282       -1.22441198063381
H            0.81598502064131        4.24383913492471       -1.09007840938569
H            1.68609425762604       -0.57111427869746        0.66481898948447
H            1.77627282422913        1.09423251093176        0.08430188179079
H            2.53526846439157        0.24099337226811       -2.15690323603749
H            2.56324129933674       -1.40398395576413       -1.50440981075774
H            4.08755752285568        1.96732479060973       -1.24376851226021
H            6.33545829405986        2.37656930488228       -0.39873236419481
H            8.05051106616511        2.47707887986587        1.22512925033715
H            8.69611439086437        2.02229408776198       -0.37847594875516
H            9.55351540382815        1.52987008283477        1.10272234348508
H            7.19331093775127       -3.75268305892063        1.50042482536507
H            5.49750635341804       -3.24280124575920        1.68401697260478
H            6.15042904340562       -3.62615349926973        0.06326367874299
H            4.34337830722709       -2.12365502877655       -0.06863863667239
H           -0.41625070875886       -1.71254223895155       -1.87864318307336
H           -1.25289610990590       -1.40987348242588       -0.34196088280063
H            0.37939344526982       -2.08909731803389       -0.34458076033914
H           -4.85454713131046        2.67366150637923        0.10377643955635
H           -3.42225306702671        2.45001050155685        2.79288255152294
H           -4.73334410846028        1.40967039984874        2.22608755448545
H           -5.03561899381634        3.11532967304975        2.54733508945874
H           -2.50830322047102        4.31809029017836        1.17009980933978
H           -3.33959554623266        4.55294006614802       -0.37487571167527
H           -4.18227315406179        4.86060128094014        1.13294630846624
H            0.73286973194621        4.13016565205850       -0.32312795663634

          :  Hamiltonian                  GFN2-xTB          :
         :: total energy             -99.373468176573 Eh    ::
         :: gradient norm              0.002105905256 Eh/a0 ::
         :: HOMO-LUMO gap              1.638691023710 eV    ::
         :: SCC energy              -100.814048789200 Eh    ::
         :: -> dispersion             -0.075387845933 Eh    ::
         :: repulsion energy           1.439288599579 Eh    ::

    * Orbital Energies and Occupations

         #    Occupation            Energy/Eh            Energy/eV
      -------------------------------------------------------------
         1        2.0000           -0.8123789             -22.1060
       ...           ...                  ...                  ...
        78        1.9989           -0.5382792             -14.6473
        79        1.9985           -0.5334315             -14.5154
        80        1.9982           -0.5311611             -14.4536
        81        1.9980           -0.5289114             -14.3924
        82        1.9978           -0.5279821             -14.3671
        83        1.9975           -0.5257089             -14.3053
        84        1.9967           -0.5210824             -14.1794
        85        1.9965           -0.5201484             -14.1540
        86        1.9943           -0.5125338             -13.9468
        87        1.9829           -0.4951170             -13.4728
        88        1.9750           -0.4890013             -13.3064
        89        1.8799           -0.4633822             -12.6093
        90        1.8169           -0.4561625             -12.4128 (HOMO)
        91        0.3623           -0.3959417             -10.7741 (LUMO)
        92        0.0040           -0.3212986              -8.7430
        93        0.0033           -0.3183658              -8.6632
        94        0.0023           -0.3126551              -8.5078
        95        0.0020           -0.3107082              -8.4548
        96        0.0014           -0.3051367              -8.3032
        97        0.0013           -0.3034164              -8.2564
        98        0.0000           -0.1951666              -5.3108
        99        0.0000           -0.1879901              -5.1155
       100                         -0.1338142              -3.6413
       101                         -0.0710962              -1.9346
       ...                                ...                  ...
       171                          1.0329080              28.1069
      -------------------------------------------------------------
                  HL-Gap            0.0602208 Eh            1.6387 eV

     #   Z          covCN         q      C6AA      α(0)
     1   7 N        0.911    -0.254    26.602     7.460
     2   6 C        1.926     0.123    28.075     8.557
     3   6 C        3.909     0.016    20.244     6.395
     4   6 C        2.977     0.000    28.013     8.682
     5   6 C        2.919    -0.081    30.020     8.985
     6   6 C        2.862     0.130    25.151     8.220
     7   8 O        1.706    -0.229    17.797     5.696
     8   6 C        3.644     0.028    20.439     6.499
     9   6 C        2.864     0.129    25.162     8.222
    10   8 O        1.706    -0.227    17.770     5.692
    11   6 C        3.645     0.026    20.462     6.501
    12   6 C        2.914    -0.075    29.868     8.962
    13   6 C        2.920    -0.055    29.369     8.887
    14   6 C        3.820    -0.058    21.598     6.614
    15   6 C        3.803    -0.068    21.795     6.646
    16   6 C        2.850     0.010    27.778     8.638
    17   7 N        2.729     0.037    20.602     6.741
    18   6 C        3.759    -0.025    21.063     6.543
    19   6 C        3.808    -0.071    21.848     6.654
    20   6 C        2.968     0.003    27.963     8.674
    21   6 C        2.922    -0.047    29.163     8.856
    22   6 C        2.913    -0.066    29.641     8.928
    23   6 C        2.865     0.135    25.050     8.204
    24   8 O        1.706    -0.218    17.621     5.668
    25   6 C        3.645     0.024    20.509     6.509
    26   6 C        2.863     0.135    25.058     8.205
    27   8 O        1.706    -0.221    17.668     5.675
    28   6 C        3.645     0.026    20.475     6.504
    29   6 C        2.919    -0.078    29.947     8.974
    30   6 C        3.701    -0.076    22.124     6.726
    31   6 C        3.859    -0.004    20.616     6.457
    32   6 C        3.756    -0.109    22.639     6.784
    33   6 C        3.755    -0.112    22.694     6.793
    34   1 H        0.926     0.049     2.328     2.386
    35   1 H        0.924     0.053     2.280     2.362
    36   1 H        0.925     0.082     1.960     2.190
    37   1 H        0.924     0.047     2.354     2.399
    38   1 H        0.924     0.056     2.251     2.347
    39   1 H        0.925     0.082     1.958     2.188
    40   1 H        0.924     0.049     2.335     2.390
    41   1 H        0.926     0.053     2.278     2.360
    42   1 H        0.926     0.046     2.374     2.409
    43   1 H        0.925     0.059     2.206     2.323
    44   1 H        0.924     0.058     2.223     2.332
    45   1 H        0.925     0.064     2.149     2.292
    46   1 H        0.924     0.081     1.964     2.192
    47   1 H        0.926     0.082     1.956     2.187
    48   1 H        0.804    -0.006     3.223     2.820
    49   1 H        0.924     0.078     2.000     2.212
    50   1 H        0.924     0.084     1.935     2.175
    51   1 H        0.924     0.056     2.245     2.343
    52   1 H        0.924     0.056     2.250     2.346
    53   1 H        0.926     0.048     2.349     2.397
    54   1 H        0.926     0.061     2.192     2.315
    55   1 H        0.924     0.057     2.238     2.340
    56   1 H        0.924     0.057     2.235     2.338
    57   1 H        0.925     0.084     1.943     2.180
    58   1 H        0.925     0.083     1.948     2.183
    59   1 H        0.924     0.051     2.302     2.373
    60   1 H        0.924     0.053     2.280     2.361
    61   1 H        0.926     0.049     2.326     2.385
    62   1 H        0.924     0.079     1.987     2.204
    63   1 H        0.924     0.084     1.941     2.179
    64   1 H        0.925     0.084     1.935     2.175
    65   1 H        0.924     0.039     2.456     2.451
    66   1 H        0.925     0.046     2.367     2.406
    67   1 H        0.925     0.039     2.458     2.452
    68   1 H        0.925     0.053     2.282     2.363
    69   1 H        0.925     0.046     2.375     2.410
    70   1 H        0.925     0.039     2.466     2.455
    71   1 H        0.925     0.056     2.246     2.344
    72   1 H        0.804     0.011     2.921     2.685

Wiberg/Mayer (AO) data.
largest (>0.10) Wiberg bond orders for each atom

     #   Z sym  total        # sym  WBO       # sym  WBO       # sym  WBO
 ---------------------------------------------------------------------------
     1   7 N    2.985 --     2 C    2.820
     2   6 C    3.931 --     1 N    2.820     3 C    1.026
     3   6 C    3.985 --     2 C    1.026     4 C    0.964    14 C    0.951
                            31 C    0.921
     4   6 C    3.952 --    13 C    1.415     5 C    1.370     3 C    0.964
     5   6 C    3.964 --     6 C    1.400     4 C    1.370    34 H    0.959
     6   6 C    3.906 --     5 C    1.400     9 C    1.221     7 O    1.102
     7   8 O    2.258 --     6 C    1.102     8 C    0.978
     8   6 C    3.932 --     7 O    0.978    36 H    0.977    37 H    0.974
                            35 H    0.973
     9   6 C    3.905 --    12 C    1.393     6 C    1.221    10 O    1.104
    10   8 O    2.257 --     9 C    1.104    11 C    0.977
    11   6 C    3.930 --    10 O    0.977    39 H    0.977    40 H    0.974
                            38 H    0.973
    12   6 C    3.963 --    13 C    1.400     9 C    1.393    41 H    0.964
    13   6 C    3.958 --     4 C    1.415    12 C    1.400    42 H    0.963
    14   6 C    3.970 --    15 C    0.976    44 H    0.971    43 H    0.967
                             3 C    0.951
    15   6 C    3.989 --    16 C    1.060    14 C    0.976    45 H    0.965
                            46 H    0.934
    16   6 C    3.614 --    17 N    1.462    15 C    1.060    47 H    0.951
    17   7 N    3.517 --    16 C    1.462    30 C    0.997    18 C    0.984
    18   6 C    3.948 --    17 N    0.984    19 C    0.966    50 H    0.965
                            49 H    0.962
    19   6 C    3.977 --    20 C    1.008    52 H    0.972    51 H    0.970
                            18 C    0.966
    20   6 C    3.939 --    21 C    1.402    29 C    1.384    19 C    1.008
    21   6 C    3.944 --    22 C    1.421    20 C    1.402    53 H    0.968
    22   6 C    3.956 --    21 C    1.421    23 C    1.379    54 H    0.963
    23   6 C    3.889 --    22 C    1.379    26 C    1.216    24 O    1.115
    24   8 O    2.254 --    23 C    1.115    25 C    0.975
    25   6 C    3.926 --    57 H    0.977    24 O    0.975    56 H    0.972
                            55 H    0.972
    26   6 C    3.892 --    29 C    1.390    23 C    1.216    27 O    1.108
    27   8 O    2.254 --    26 C    1.108    28 C    0.978
    28   6 C    3.930 --    27 O    0.978    58 H    0.977    59 H    0.973
                            60 H    0.973
    29   6 C    3.956 --    26 C    1.390    20 C    1.384    61 H    0.962
    30   6 C    3.954 --    17 N    0.997    64 H    0.977    62 H    0.966
                            63 H    0.954
    31   6 C    3.982 --    33 C    1.009    32 C    1.009    65 H    0.963
                             3 C    0.921
    32   6 C    3.989 --    31 C    1.009    66 H    0.983    67 H    0.983
                            68 H    0.982
    33   6 C    3.990 --    31 C    1.009    69 H    0.983    70 H    0.983
                            71 H    0.981
    34   1 H    0.996 --     5 C    0.959
    35   1 H    0.993 --     8 C    0.973
    36   1 H    0.993 --     8 C    0.977
    37   1 H    0.994 --     8 C    0.974
    38   1 H    0.993 --    11 C    0.973
    39   1 H    0.993 --    11 C    0.977
    40   1 H    0.993 --    11 C    0.974
    41   1 H    0.996 --    12 C    0.964
    42   1 H    0.997 --    13 C    0.963
    43   1 H    0.995 --    14 C    0.967
    44   1 H    0.996 --    14 C    0.971
    45   1 H    0.995 --    15 C    0.965
    46   1 H    0.974 --    15 C    0.934
    47   1 H    0.993 --    16 C    0.951
    48   1 H    0.999 --    72 H    0.994
    49   1 H    0.989 --    18 C    0.962
    50   1 H    0.992 --    18 C    0.965
    51   1 H    0.995 --    19 C    0.970
    52   1 H    0.996 --    19 C    0.972
    53   1 H    0.997 --    21 C    0.968
    54   1 H    0.995 --    22 C    0.963
    55   1 H    0.991 --    25 C    0.972
    56   1 H    0.991 --    25 C    0.972
    57   1 H    0.992 --    25 C    0.977
    58   1 H    0.992 --    28 C    0.977
    59   1 H    0.992 --    28 C    0.973
    60   1 H    0.992 --    28 C    0.973
    61   1 H    0.996 --    29 C    0.962
    62   1 H    0.985 --    30 C    0.966
    63   1 H    0.986 --    30 C    0.954
    64   1 H    0.993 --    30 C    0.977
    65   1 H    0.997 --    31 C    0.963
    66   1 H    0.997 --    32 C    0.983
    67   1 H    0.998 --    32 C    0.983
    68   1 H    0.996 --    32 C    0.982
    69   1 H    0.997 --    33 C    0.983
    70   1 H    0.998 --    33 C    0.983
    71   1 H    0.995 --    33 C    0.981
    72   1 H    0.999 --    48 H    0.994
 ---------------------------------------------------------------------------

molecular dipole:
                 x           y           z       tot (Debye)
 q only:        0.431      -0.458      -1.298
   full:       -0.047      -0.340      -1.534       3.995

           -------------------------------------------------
          | TOTAL ENERGY              -99.373468176573 Eh   |
          | GRADIENT NORM               0.002105905256 Eh/α |
          | HOMO-LUMO GAP               1.638691023710 eV   |
           -------------------------------------------------

 * finished run on 2024/04/06 at 11:13:23.312
