   * xtb version 6.6.1 (8d0f1dd) compiled by 'conda@1efc2f54142f' on 2023-08-01
          program call               : xtb struc.xyz --opt loose --input .xc1 --gfn2

   ID    Z sym.   atoms
    1    7 N      1, 17
    2    6 C      2-6, 8, 9, 11-16, 18-23, 25, 26, 28-33
    3    8 O      7, 10, 24, 27
    4    1 H      34-72
constraining bond 15 18 to    6.0000000 Å, actual value:    3.7880936 Å

          :  Hamiltonian                  GFN2-xTB          :
 * total energy  :   -98.5305540 Eh     change       -0.4035485E-08 Eh
 * total energy  :   -98.7780483 Eh     change       -0.2474943E+00 Eh
 * total energy  :   -98.9275262 Eh     change       -0.1494779E+00 Eh
 * total energy  :   -99.0225113 Eh     change       -0.9498512E-01 Eh
 * total energy  :   -99.1003206 Eh     change       -0.7780932E-01 Eh
 * total energy  :   -99.1546560 Eh     change       -0.5433532E-01 Eh
 * total energy  :   -99.1791386 Eh     change       -0.2448264E-01 Eh
 * total energy  :   -99.2030460 Eh     change       -0.2390737E-01 Eh
 * total energy  :   -99.2168766 Eh     change       -0.1383059E-01 Eh
 * total energy  :   -99.2291279 Eh     change       -0.1225134E-01 Eh
 * total energy  :   -99.3456733 Eh     change       -0.6429088E-03 Eh
 * total energy  :   -99.3460768 Eh     change       -0.4035107E-03 Eh
 * total energy  :   -99.3463398 Eh     change       -0.2629417E-03 Eh
 * total energy  :   -99.3465712 Eh     change       -0.2314049E-03 Eh
 * total energy  :   -99.3467922 Eh     change       -0.2210141E-03 Eh
 * total energy  :   -99.3469593 Eh     change       -0.1671476E-03 Eh
 * total energy  :   -99.3470605 Eh     change       -0.1011544E-03 Eh
 * total energy  :   -99.3471230 Eh     change       -0.6255014E-04 Eh
 * total energy  :   -99.3471618 Eh     change       -0.3873555E-04 Eh
   *** GEOMETRY OPTIMIZATION CONVERGED AFTER 34 ITERATIONS ***

 final structure:
================
72
 xtb: 6.6.1 (8d0f1dd)
N           -1.94807247523246        3.04572288408283        1.87363699455122
C           -2.05842458527517        2.22694575980142        0.93445804385797
C           -3.32619115868612        2.00854075507508        0.15207014895858
C           -3.74207955772904        0.55132267400212        0.25515585692135
C           -4.72304595258600        0.04368860676550       -0.59798409820830
C           -5.14552283107291       -1.27338069746771       -0.51300580624804
O           -6.08224019445161       -1.84400878449835       -1.29673771417833
C           -6.74719188096222       -1.06259547499780       -2.26126124697015
C           -4.57162059429573       -2.13094039879644        0.46607865802318
O           -5.03922138753555       -3.39376959816511        0.47522962011640
C           -4.56690599560793       -4.29378941594526        1.45058139067430
C           -3.60623334000382       -1.61577494169641        1.31804461420717
C           -3.20042283051604       -0.29327478576218        1.21404902917010
C           -2.98440648630080        2.37714096575318       -1.31876502046912
C           -2.14720541857184        1.33859515610985       -2.07405549381762
C           -0.70593183998341        1.30772378683657       -1.65522460824169
N            0.03281822147308        0.33169669077366       -1.36980285166630
C            3.11351505231362       -0.26526624821639        0.31620927810283
C            3.33180518612395       -0.70479751139151       -1.07277896459084
C            4.55327549370671       -0.27293910353135       -0.23487606653127
C            5.17470707702261        0.99887772170617       -0.53658711740247
C            6.51414538608561        1.19385931615960       -0.37391639379431
C            7.35262198983771        0.16582949881151        0.08886358293745
O            8.66610998713135        0.26048192895841        0.27897355833834
C            9.33760209145491        1.47358239652480        0.01391022420955
C            6.78263639483308       -1.12022565833151        0.39013972403584
O            7.67615872312091       -2.03823258469765        0.80983582578171
C            7.23035142443527       -3.35023713175857        1.06880911218583
C            5.44236742988688       -1.32263028400362        0.23763911710136
C           -0.39369646963410       -1.03282538374113       -1.32581115929592
C           -4.51752391056885        2.87860670047388        0.65233050514889
C           -4.89929945172496        2.52717771440962        2.08847399710553
C           -4.26109713263437        4.37899100695836        0.54146701970746
H           -5.16765937596831        0.69074336271656       -1.33604222948837
H           -7.27767485139555       -0.22316641334670       -1.80174496098347
H           -7.46767359922618       -1.72964724747177       -2.73050871771126
H           -6.05470096512734       -0.68744746975866       -3.02162109994219
H           -4.79184457034224       -3.94161419035490        2.46177683180897
H           -5.09584326432943       -5.22709371425497        1.26723151896472
H           -3.48972742456621       -4.46231262288147        1.35320645189429
H           -3.16515145979515       -2.23776770926892        2.07976599617710
H           -2.46373920589381        0.07784558000278        1.90914962667294
H           -3.91904006491036        2.52201875413345       -1.86172603185196
H           -2.45385833697077        3.33100751272486       -1.32210752722029
H           -2.59630054687150        0.34884629333803       -1.99115599896121
H           -2.14348758765380        1.61685055105892       -3.13278306166034
H           -1.22248598714977        1.61841830578511        0.56007911044275
H           -0.21665684338341        2.28023333080449       -1.64305751220417
H            2.89299935275473       -0.99913606760192        1.07539710956129
H            2.66725303126104        0.70100161624890        0.48389256650358
H            3.03605870004107       -0.04687144743272       -1.87384866946662
H            3.26711156040808       -1.75485122250272       -1.31079646152367
H            4.54585071192197        1.79759786028174       -0.89714470838734
H            6.93895035451036        2.15684266417009       -0.60900419374745
H            8.94099251248164        2.29174802957631        0.62161958628980
H            9.27602977345408        1.73806715261730       -1.04597438592698
H           10.37772829567585        1.29433555447446        0.28239795317259
H            8.12585381110307       -3.92039069779441        1.31066068236435
H            6.54005987861790       -3.37845828415018        1.91885026504544
H            6.74787482750433       -3.78567081379656        0.18882814029901
H            4.99480850202666       -2.27618787815675        0.46526113378087
H           -0.24163769952274       -1.48809853031473       -2.30681916306846
H           -1.44137840483223       -1.16485274762889       -1.03528095364940
H            0.24524463759654       -1.54972534747633       -0.60997034806686
H           -5.37068380323315        2.63149230634864        0.00888970796256
H           -4.08419272325945        2.77628391782858        2.76134798265820
H           -5.12969166292109        1.46879252822987        2.18766886536222
H           -5.77631808958786        3.09728621384882        2.38367678497599
H           -3.39164641376420        4.65463493592499        1.13063415230573
H           -4.11118250160757        4.69118715132443       -0.48839963405171
H           -5.12158231304079        4.91678330525923        0.93110800836225
H           -1.03792362101120        3.14131943983251        2.31265826620590

          :  Hamiltonian                  GFN2-xTB          :
         :: total energy             -99.347161775264 Eh    ::
         :: gradient norm              0.002632241455 Eh/a0 ::
         :: HOMO-LUMO gap              1.427651923030 eV    ::
         :: SCC energy              -100.736106809495 Eh    ::
         :: -> dispersion             -0.071564632960 Eh    ::
         :: repulsion energy           1.387630303827 Eh    ::

    * Orbital Energies and Occupations

         #    Occupation            Energy/Eh            Energy/eV
      -------------------------------------------------------------
         1        2.0000           -0.8259122             -22.4742
       ...           ...                  ...                  ...
        78        1.9975           -0.5266171             -14.3300
        79        1.9972           -0.5246755             -14.2771
        80        1.9969           -0.5231643             -14.2360
        81        1.9957           -0.5176236             -14.0853
        82        1.9951           -0.5157955             -14.0355
        83        1.9930           -0.5100427             -13.8790
        84        1.9917           -0.5073448             -13.8056
        85        1.9904           -0.5049859             -13.7414
        86        1.9703           -0.4869471             -13.2505
        87        1.9599           -0.4821204             -13.1192
        88        1.8976           -0.4667679             -12.7014
        89        1.8802           -0.4641295             -12.6296
        90        1.8098           -0.4562131             -12.4142 (HOMO)
        91        0.5145           -0.4037479             -10.9865 (LUMO)
        92        0.0096           -0.3361571              -9.1473
        93        0.0056           -0.3275690              -8.9136
        94        0.0038           -0.3213559              -8.7445
        95        0.0022           -0.3128181              -8.5122
        96        0.0018           -0.3097593              -8.4290
        97        0.0000           -0.2458899              -6.6910
        98        0.0000           -0.1873172              -5.0972
        99                         -0.1360249              -3.7014
       100                         -0.0750880              -2.0432
       101                         -0.0663257              -1.8048
       ...                                ...                  ...
       171                          0.5745057              15.6331
      -------------------------------------------------------------
                  HL-Gap            0.0524652 Eh            1.4277 eV

     #   Z          covCN         q      C6AA      α(0)
     1   7 N        1.774    -0.266    27.737     7.799
     2   6 C        2.827     0.102    25.729     8.312
     3   6 C        3.907     0.009    20.377     6.416
     4   6 C        2.974     0.008    27.834     8.654
     5   6 C        2.920    -0.076    29.902     8.967
     6   6 C        2.862     0.132    25.117     8.215
     7   8 O        1.706    -0.225    17.736     5.686
     8   6 C        3.644     0.027    20.457     6.501
     9   6 C        2.864     0.131    25.121     8.216
    10   8 O        1.706    -0.223    17.703     5.681
    11   6 C        3.645     0.026    20.470     6.502
    12   6 C        2.913    -0.069    29.731     8.941
    13   6 C        2.921    -0.045    29.126     8.850
    14   6 C        3.811    -0.059    21.626     6.619
    15   6 C        3.801    -0.073    21.892     6.662
    16   6 C        2.834     0.072    26.386     8.418
    17   7 N        1.820    -0.210    26.401     7.613
    18   6 C        3.806    -0.054    21.538     6.607
    19   6 C        3.806    -0.055    21.555     6.609
    20   6 C        3.920     0.035    19.927     6.344
    21   6 C        2.909    -0.034    28.841     8.806
    22   6 C        2.903    -0.064    29.580     8.918
    23   6 C        2.863     0.143    24.876     8.175
    24   8 O        1.706    -0.191    17.189     5.598
    25   6 C        3.645     0.018    20.616     6.526
    26   6 C        2.853     0.135    25.044     8.202
    27   8 O        1.706    -0.229    17.799     5.696
    28   6 C        3.646     0.024    20.503     6.507
    29   6 C        2.907    -0.077    29.931     8.971
    30   6 C        3.701    -0.030    21.276     6.596
    31   6 C        3.853    -0.007    20.671     6.466
    32   6 C        3.756    -0.117    22.792     6.807
    33   6 C        3.755    -0.119    22.841     6.815
    34   1 H        0.926     0.055     2.261     2.351
    35   1 H        0.924     0.055     2.260     2.351
    36   1 H        0.925     0.082     1.958     2.188
    37   1 H        0.924     0.051     2.312     2.378
    38   1 H        0.924     0.056     2.242     2.342
    39   1 H        0.925     0.082     1.958     2.188
    40   1 H        0.924     0.051     2.301     2.372
    41   1 H        0.926     0.055     2.260     2.351
    42   1 H        0.926     0.045     2.387     2.416
    43   1 H        0.924     0.054     2.268     2.355
    44   1 H        0.924     0.051     2.312     2.378
    45   1 H        0.925     0.051     2.304     2.374
    46   1 H        0.924     0.066     2.134     2.285
    47   1 H        0.923     0.021     2.723     2.580
    48   1 H        0.925     0.050     2.317     2.380
    49   1 H        0.926     0.064     2.154     2.295
    50   1 H        0.926     0.069     2.099     2.266
    51   1 H        0.926     0.074     2.043     2.235
    52   1 H        0.926     0.066     2.127     2.281
    53   1 H        0.926     0.065     2.140     2.288
    54   1 H        0.926     0.068     2.106     2.269
    55   1 H        0.924     0.064     2.152     2.294
    56   1 H        0.924     0.065     2.140     2.288
    57   1 H        0.925     0.091     1.869     2.138
    58   1 H        0.925     0.085     1.928     2.171
    59   1 H        0.924     0.053     2.279     2.361
    60   1 H        0.924     0.053     2.286     2.364
    61   1 H        0.926     0.063     2.168     2.302
    62   1 H        0.924     0.060     2.194     2.316
    63   1 H        0.924     0.035     2.513     2.479
    64   1 H        0.925     0.056     2.243     2.342
    65   1 H        0.924     0.038     2.477     2.461
    66   1 H        0.925     0.066     2.128     2.281
    67   1 H        0.925     0.035     2.523     2.484
    68   1 H        0.925     0.052     2.300     2.372
    69   1 H        0.925     0.067     2.123     2.278
    70   1 H        0.925     0.038     2.479     2.462
    71   1 H        0.925     0.054     2.268     2.355
    72   1 H        0.860     0.158     1.351     1.821

Wiberg/Mayer (AO) data.
largest (>0.10) Wiberg bond orders for each atom

     #   Z sym  total        # sym  WBO       # sym  WBO       # sym  WBO
 ---------------------------------------------------------------------------
     1   7 N    3.012 --     2 C    1.952    72 H    0.940
     2   6 C    3.938 --     1 N    1.952     3 C    0.992    47 H    0.919
     3   6 C    3.969 --     2 C    0.992     4 C    0.976    14 C    0.950
                            31 C    0.943
     4   6 C    3.935 --    13 C    1.402     5 C    1.373     3 C    0.976
     5   6 C    3.955 --     6 C    1.395     4 C    1.373    34 H    0.957
     6   6 C    3.891 --     5 C    1.395     9 C    1.216     7 O    1.104
     7   8 O    2.249 --     6 C    1.104     8 C    0.977
     8   6 C    3.930 --     7 O    0.977    36 H    0.976    35 H    0.973
                            37 H    0.973
     9   6 C    3.885 --    12 C    1.384     6 C    1.216    10 O    1.107
    10   8 O    2.247 --     9 C    1.107    11 C    0.977
    11   6 C    3.929 --    10 O    0.977    39 H    0.977    40 H    0.973
                            38 H    0.972
    12   6 C    3.955 --    13 C    1.413     9 C    1.384    41 H    0.963
    13   6 C    3.940 --    12 C    1.413     4 C    1.402    42 H    0.962
    14   6 C    3.984 --    15 C    0.993    44 H    0.971    43 H    0.966
                             3 C    0.950
    15   6 C    3.972 --    16 C    1.004    14 C    0.993    45 H    0.962
                            46 H    0.942
    16   6 C    3.951 --    17 N    1.884    15 C    1.004    48 H    0.949
    17   7 N    3.042 --    16 C    1.884    30 C    1.036
    18   6 C    3.861 --    19 C    1.031    49 H    0.975    50 H    0.975
                            20 C    0.821
    19   6 C    3.860 --    18 C    1.031    52 H    0.974    51 H    0.974
                            20 C    0.822
    20   6 C    3.937 --    21 C    1.124    29 C    1.105    19 C    0.822
                            18 C    0.821
    21   6 C    3.793 --    22 C    1.573    20 C    1.124    53 H    0.966
    22   6 C    3.978 --    21 C    1.573    23 C    1.287    54 H    0.960
    23   6 C    3.744 --    22 C    1.287    24 O    1.166    26 C    1.153
    24   8 O    2.284 --    23 C    1.166    25 C    0.967
    25   6 C    3.920 --    57 H    0.976    55 H    0.971    56 H    0.971
                            24 O    0.967
    26   6 C    3.934 --    29 C    1.529    23 C    1.153    27 O    1.101
    27   8 O    2.266 --    26 C    1.101    28 C    0.975
    28   6 C    3.929 --    58 H    0.976    27 O    0.975    60 H    0.974
                            59 H    0.974
    29   6 C    3.831 --    26 C    1.529    20 C    1.105    61 H    0.961
    30   6 C    3.974 --    17 N    1.036    64 H    0.973    63 H    0.962
                            62 H    0.958
    31   6 C    3.968 --    33 C    1.008    32 C    1.008    65 H    0.958
                             3 C    0.943
    32   6 C    3.975 --    31 C    1.008    67 H    0.981    68 H    0.981
                            66 H    0.973
    33   6 C    3.974 --    31 C    1.008    70 H    0.982    71 H    0.979
                            69 H    0.971
    34   1 H    0.995 --     5 C    0.957
    35   1 H    0.992 --     8 C    0.973
    36   1 H    0.992 --     8 C    0.976
    37   1 H    0.992 --     8 C    0.973
    38   1 H    0.991 --    11 C    0.972
    39   1 H    0.993 --    11 C    0.977
    40   1 H    0.991 --    11 C    0.973
    41   1 H    0.995 --    12 C    0.963
    42   1 H    0.997 --    13 C    0.962
    43   1 H    0.994 --    14 C    0.966
    44   1 H    0.996 --    14 C    0.971
    45   1 H    0.996 --    15 C    0.962
    46   1 H    0.994 --    15 C    0.942
    47   1 H    0.975 --     2 C    0.919
    48   1 H    0.990 --    16 C    0.949
    49   1 H    0.994 --    18 C    0.975
    50   1 H    0.993 --    18 C    0.975
    51   1 H    0.992 --    19 C    0.974
    52   1 H    0.993 --    19 C    0.974
    53   1 H    0.995 --    21 C    0.966
    54   1 H    0.994 --    22 C    0.960
    55   1 H    0.990 --    25 C    0.971
    56   1 H    0.989 --    25 C    0.971
    57   1 H    0.991 --    25 C    0.976
    58   1 H    0.992 --    28 C    0.976
    59   1 H    0.994 --    28 C    0.974
    60   1 H    0.995 --    28 C    0.974
    61   1 H    0.995 --    29 C    0.961
    62   1 H    0.994 --    30 C    0.958
    63   1 H    0.989 --    30 C    0.962
    64   1 H    0.992 --    30 C    0.973
    65   1 H    0.989 --    31 C    0.958
    66   1 H    0.990 --    32 C    0.973
    67   1 H    0.996 --    32 C    0.981
    68   1 H    0.993 --    32 C    0.981
    69   1 H    0.990 --    33 C    0.971
    70   1 H    0.996 --    33 C    0.982
    71   1 H    0.992 --    33 C    0.979
    72   1 H    0.967 --     1 N    0.940
 ---------------------------------------------------------------------------

molecular dipole:
                 x           y           z       tot (Debye)
 q only:        2.274      -0.007      -0.424
   full:        2.211      -0.117      -0.667       5.877

           -------------------------------------------------
          | TOTAL ENERGY              -99.347161775264 Eh   |
          | GRADIENT NORM               0.002632241455 Eh/α |
          | HOMO-LUMO GAP               1.427651923030 eV   |
           -------------------------------------------------

 * finished run on 2024/04/06 at 11:13:15.160
