   * xtb version 6.6.1 (8d0f1dd) compiled by 'conda@1efc2f54142f' on 2023-08-01
          program call               : xtb struc.xyz --opt loose --input .xc1 --gfn2

   ID    Z sym.   atoms
    1    6 C      1, 3, 5-7, 10, 11, 14
    2    7 N      2, 4, 9, 13
    3    8 O      8, 12
    4    1 H      15-25
constraining bond 7 11 to    5.0000000 Å, actual value:    2.4967489 Å

          :  Hamiltonian                  GFN2-xTB          :
 * total energy  :   -31.0592392 Eh     change       -0.6650680E-10 Eh
 * total energy  :   -35.0826937 Eh     change       -0.4023455E+01 Eh
 * total energy  :   -38.0708717 Eh     change       -0.2988178E+01 Eh
 * total energy  :   -40.2866302 Eh     change       -0.2215759E+01 Eh
 * total energy  :   -41.4329945 Eh     change       -0.1146364E+01 Eh
 * total energy  :   -41.7038647 Eh     change       -0.2708702E+00 Eh
 * total energy  :   -41.7236348 Eh     change       -0.1977009E-01 Eh
 * total energy  :   -41.7454767 Eh     change       -0.2184196E-01 Eh
 * total energy  :   -41.7556338 Eh     change       -0.1015703E-01 Eh
 * total energy  :   -41.7447322 Eh     change        0.1090153E-01 Eh
 * total energy  :   -42.0447383 Eh     change       -0.2092773E-03 Eh
 * total energy  :   -42.0449171 Eh     change       -0.1788143E-03 Eh
 * total energy  :   -42.0450949 Eh     change       -0.1778243E-03 Eh
 * total energy  :   -42.0452157 Eh     change       -0.1207545E-03 Eh
 * total energy  :   -42.0453077 Eh     change       -0.9203961E-04 Eh
 * total energy  :   -42.0453741 Eh     change       -0.6635913E-04 Eh
 * total energy  :   -42.0454185 Eh     change       -0.4440509E-04 Eh
 * total energy  :   -42.0454371 Eh     change       -0.1858920E-04 Eh
 * total energy  :   -42.0454610 Eh     change       -0.2387869E-04 Eh
   *** GEOMETRY OPTIMIZATION CONVERGED AFTER 53 ITERATIONS ***

 final structure:
================
25
 xtb: 6.6.1 (8d0f1dd)
C            3.29383018772583        1.18633111842368       -0.04360713480562
N            2.34325139150838        0.10472561048509       -0.00580101278417
C            2.66643597875068       -1.18314593842199       -0.02328230854784
N            1.56152700750019       -1.93276484382615        0.05453303400076
C            0.44051917843857       -1.08960191700863        0.12480685712615
C            0.98721985463299        0.22438148635197        0.08306176160820
C            0.22740495825112        1.48374886341634        0.08200601374816
O            0.77388800453484        2.58592137119725       -0.01306114030537
N           -1.07794102635854        1.28078974635966        0.17482834951734
C           -2.06409639694104        2.26291218962121        0.18798670007511
C           -3.79779098771103       -1.18492123308453       -1.21153434600895
O           -4.19310524526043       -0.13969545419593       -1.07622997066568
N           -0.79601717386227       -1.40691093076053        0.20737388865029
C           -1.35648011498842       -2.69616659827954        0.27014965729647
H            3.80399285644373        1.26990865861005        0.91700430738304
H            4.03245892887797        1.00916950935087       -0.82333513749899
H            2.76063320422794        2.11835065980758       -0.23680005537376
H            3.66793552634356       -1.56476070400587       -0.09233604086348
H           -1.64932075844571        3.28031693200895        0.20133988706857
H           -2.70235848586296        2.14897468384926       -0.69609762760592
H           -2.70140426787180        2.11668873491438        1.06749309601429
H           -0.83739588647488       -3.35837914107343        0.97271773576995
H           -1.36273731735084       -3.16581978221546       -0.72033953827109
H           -2.39624806712864       -2.59019560722169        0.58339082052283
H            1.53623016512959       -2.94161887268131        0.04690382182658

          :  Hamiltonian                  GFN2-xTB          :
         :: total energy             -42.045460972840 Eh    ::
         :: gradient norm              0.002822755104 Eh/a0 ::
         :: HOMO-LUMO gap              0.262681368243 eV    ::
         :: SCC energy               -42.583129081763 Eh    ::
         :: -> dispersion             -0.020263648357 Eh    ::
         :: repulsion energy           0.537530343198 Eh    ::

    * Orbital Energies and Occupations

         #    Occupation            Energy/Eh            Energy/eV
      -------------------------------------------------------------
         1        2.0000           -0.8966607             -24.3994
       ...           ...                  ...                  ...
        25        1.9999           -0.6564222             -17.8622
        26        1.9998           -0.6552832             -17.8312
        27        1.9994           -0.6335881             -17.2408
        28        1.9992           -0.6287467             -17.1091
        29        1.9989           -0.6231956             -16.9580
        30        1.9984           -0.6174492             -16.8016
        31        1.9973           -0.6093569             -16.5814
        32        1.9956           -0.6020195             -16.3818
        33        1.9713           -0.5719342             -15.5631
        34        1.9043           -0.5523436             -15.0300
        35        1.7901           -0.5389244             -14.6649
        36        1.6685           -0.5305793             -14.4378
        37        1.4683           -0.5210744             -14.1792 (HOMO)
        38        1.2004           -0.5114210             -13.9165 (LUMO)
        39        0.0072           -0.4158791             -11.3166
        40        0.0007           -0.3792957             -10.3212
        41        0.0007           -0.3791606             -10.3175
        42        0.0003           -0.3664008              -9.9703
        43        0.0000           -0.2871501              -7.8138
        44                         -0.1819266              -4.9505
        45                         -0.1479326              -4.0255
        46                         -0.0759368              -2.0663
        47                         -0.0703616              -1.9146
        48                         -0.0232000              -0.6313
       ...                                ...                  ...
        67                          0.7187845              19.5591
      -------------------------------------------------------------
                  HL-Gap            0.0096534 Eh            0.2627 eV

     #   Z          covCN         q      C6AA      α(0)
     1   6 C        3.693    -0.095    22.506     6.788
     2   7 N        2.824     0.088    19.721     6.596
     3   6 C        3.010     0.067    26.479     8.441
     4   7 N        2.787    -0.080    22.800     7.092
     5   6 C        2.965     0.141    24.927     8.189
     6   6 C        3.100     0.005    27.786     8.638
     7   6 C        2.758     0.283    22.199     7.716
     8   8 O        0.858    -0.380    21.276     6.184
     9   7 N        1.840    -0.162    25.306     7.455
    10   6 C        3.692    -0.035    21.374     6.615
    11   6 C        0.856     0.058    33.391     9.642
    12   8 O        0.856    -0.032    15.541     5.285
    13   7 N        1.825    -0.155    25.140     7.430
    14   6 C        3.695    -0.051    21.662     6.659
    15   1 H        0.924     0.108     1.715     2.048
    16   1 H        0.925     0.102     1.767     2.079
    17   1 H        0.924     0.145     1.423     1.866
    18   1 H        0.926     0.120     1.613     1.986
    19   1 H        0.923     0.118     1.632     1.998
    20   1 H        0.924     0.119     1.624     1.993
    21   1 H        0.924     0.118     1.630     1.997
    22   1 H        0.924     0.079     1.989     2.206
    23   1 H        0.924     0.105     1.744     2.065
    24   1 H        0.924     0.111     1.685     2.030
    25   1 H        0.860     0.222     1.002     1.568

Wiberg/Mayer (AO) data.
largest (>0.10) Wiberg bond orders for each atom

     #   Z sym  total        # sym  WBO       # sym  WBO       # sym  WBO
 ---------------------------------------------------------------------------
     1   6 C    3.899 --     2 N    0.983    16 H    0.965    15 H    0.954
                            17 H    0.945
     2   7 N    3.710 --     3 C    1.364     6 C    1.215     1 C    0.983
     3   6 C    3.818 --     2 N    1.364     4 N    1.328    18 H    0.951
     4   7 N    3.519 --     3 C    1.328     5 C    1.068    25 H    0.923
     5   6 C    3.945 --    13 N    1.531     6 C    1.206     4 N    1.068
     6   6 C    3.687 --     2 N    1.215     5 C    1.206     7 C    1.029
     7   6 C    3.926 --     8 O    1.522     9 N    1.304     6 C    1.029
     8   8 O    1.751 --     7 C    1.522     9 N    0.114
     9   7 N    2.591 --     7 C    1.304    10 C    1.114     8 O    0.114
    10   6 C    3.861 --     9 N    1.114    21 H    0.908    19 H    0.904
                            20 H    0.902
    11   6 C    2.621 --    12 O    2.614
    12   8 O    2.617 --    11 C    2.614
    13   7 N    2.738 --     5 C    1.531    14 C    1.069
    14   6 C    3.906 --    13 N    1.069    24 H    0.944    22 H    0.935
                            23 H    0.918
    15   1 H    0.985 --     1 C    0.954
    16   1 H    0.987 --     1 C    0.965
    17   1 H    0.976 --     1 C    0.945
    18   1 H    0.983 --     3 C    0.951
    19   1 H    0.907 --    10 C    0.904
    20   1 H    0.924 --    10 C    0.902
    21   1 H    0.928 --    10 C    0.908
    22   1 H    0.950 --    14 C    0.935
    23   1 H    0.940 --    14 C    0.918
    24   1 H    0.960 --    14 C    0.944
    25   1 H    0.950 --     4 N    0.923
 ---------------------------------------------------------------------------

molecular dipole:
                 x           y           z       tot (Debye)
 q only:        1.563      -1.935       0.076
   full:        1.755      -2.062       0.091       6.886

           -------------------------------------------------
          | TOTAL ENERGY              -42.045460972840 Eh   |
          | GRADIENT NORM               0.002822755104 Eh/α |
          | HOMO-LUMO GAP               0.262681368243 eV   |
           -------------------------------------------------

 * finished run on 2024/06/05 at 19:57:59.536
