   * xtb version 6.6.1 (8d0f1dd) compiled by 'conda@1efc2f54142f' on 2023-08-01
          program call               : xtb struc.xyz --opt loose --input .xc1 --gfn2

   ID    Z sym.   atoms
    1    6 C      1, 3, 5-7, 10, 11, 14
    2    7 N      2, 4, 9, 13
    3    8 O      8, 12
    4    1 H      15-25
constraining bond 3 15 to    3.7133300 Å, actual value:    2.8727362 Å

          :  Hamiltonian                  GFN2-xTB          :
 * total energy  :   -43.5069367 Eh     change       -0.6633627E-10 Eh
 * total energy  :   -46.5442482 Eh     change       -0.3037311E+01 Eh
 * total energy  :   -51.3574130 Eh     change       -0.4813165E+01 Eh
 * total energy  :   -57.9024685 Eh     change       -0.6545055E+01 Eh
 * total energy  :   -31.7702187 Eh     change        0.2613225E+02 Eh
 * total energy  :   -56.6932483 Eh     change       -0.2492303E+02 Eh
 * total energy  :   -56.8175470 Eh     change       -0.1242987E+00 Eh
 * total energy  :   -57.7131513 Eh     change       -0.8956043E+00 Eh
 * total energy  :   -58.7962371 Eh     change       -0.1083086E+01 Eh
 * total energy  :   -58.7349233 Eh     change        0.6131377E-01 Eh
 * total energy  :   -59.7273027 Eh     change       -0.1059830E-03 Eh
 * total energy  :   -59.7274828 Eh     change       -0.1800535E-03 Eh
 * total energy  :   -59.7276356 Eh     change       -0.1527719E-03 Eh
 * total energy  :   -59.7277558 Eh     change       -0.1202307E-03 Eh
 * total energy  :   -59.7278914 Eh     change       -0.1356284E-03 Eh
 * total energy  :   -59.7279726 Eh     change       -0.8117589E-04 Eh
 * total energy  :   -59.7280128 Eh     change       -0.4015550E-04 Eh
 * total energy  :   -59.7280420 Eh     change       -0.2926948E-04 Eh
 * total energy  :   -59.7280680 Eh     change       -0.2601600E-04 Eh
   *** GEOMETRY OPTIMIZATION CONVERGED AFTER 55 ITERATIONS ***

 final structure:
================
25
 xtb: 6.6.1 (8d0f1dd)
C            3.24589396344339        1.19105675077317        0.05020592229959
N            2.18128120136756        0.28269855575133        0.07695905137575
C            3.49190141624082       -0.31602443595489        0.21331385150822
N            1.19576375498049       -2.19093135685716        0.15276212353527
C            0.35512622072471       -1.24323434587275        0.08940504550970
C            0.92214167455431        0.11021052882786        0.03700001050846
C            0.04737935605573        1.32643724977561       -0.05133006091160
O            0.53743033967314        2.42936924907792       -0.07406514761146
N           -1.28291597513390        1.05009961840627       -0.08509650083747
C           -2.22128911031085        2.16194761862575       -0.16119797628145
C           -1.86866417836696       -0.22261418070252       -0.04918405866839
O           -3.05769923257404       -0.34746060711459       -0.10299461210125
N           -1.01521775426452       -1.31763819509284        0.05184793761920
C           -1.63192364188843       -2.63682039910489        0.09322640253484
H            3.61709024490520       -0.49588223277101        0.57669165575484
H            3.42832012795092        1.70576203101386       -0.88573155668494
H            3.36172935862876        1.83025610735445        0.91896286521859
H            3.76187909282422       -0.77238544477741       -0.77659472931537
H           -1.65416015363911        3.08431625186145       -0.25534012291412
H           -2.87740903441470        2.02668612457248       -1.02000108946439
H           -2.83476908589275        2.18772147098380        0.73913489240816
H           -1.34053359111080       -3.15937071597666        1.00489455655508
H           -1.33773875573401       -3.21944726914740       -0.78107032941278
H           -2.71147480094290       -2.50569732470217        0.08586162649142
H            0.84829007702359       -3.14081650735116        0.18351186078419

          :  Hamiltonian                  GFN2-xTB          :
         :: total energy             -59.728068041064 Eh    ::
         :: gradient norm              0.003931527923 Eh/a0 ::
         :: HOMO-LUMO gap              1.493546166997 eV    ::
         :: SCC energy               -42.688974836298 Eh    ::
         :: -> dispersion             -0.021820986300 Eh    ::
         :: repulsion energy           2.275710329223 Eh    ::

    * Orbital Energies and Occupations

         #    Occupation            Energy/Eh            Energy/eV
      -------------------------------------------------------------
         1        2.0000           -0.9112104             -24.7953
       ...           ...                  ...                  ...
        25        2.0000           -0.6647550             -18.0889
        26        2.0000           -0.6590085             -17.9325
        27        2.0000           -0.6553464             -17.8329
        28        2.0000           -0.6503536             -17.6970
        29        2.0000           -0.6434547             -17.5093
        30        2.0000           -0.6356017             -17.2956
        31        2.0000           -0.6233621             -16.9625
        32        1.9998           -0.6125522             -16.6684
        33        1.9982           -0.5934641             -16.1490
        34        1.9962           -0.5876553             -15.9909
        35        1.9913           -0.5810943             -15.8124
        36        1.9716           -0.5716462             -15.5553
        37        1.9573           -0.5683530             -15.4657 (HOMO)
        38        0.0856           -0.5134662             -13.9721 (LUMO)
        39                         -0.3988293             -10.8527
        40                         -0.3906545             -10.6303
        41                         -0.3168318              -8.6214
        42                         -0.3043838              -8.2827
        43                         -0.2217396              -6.0338
        44                         -0.1791057              -4.8737
        45                         -0.1421229              -3.8674
        46                         -0.1096981              -2.9850
        47                         -0.0778810              -2.1193
        48                         -0.0593674              -1.6155
       ...                                ...                  ...
        67                         10.7084295             291.3912
      -------------------------------------------------------------
                  HL-Gap            0.0548868 Eh            1.4935 eV

     #   Z          covCN         q      C6AA      α(0)
     1   6 C        3.737    -0.023    21.074     6.551
     2   7 N        2.748     0.112    19.322     6.528
     3   6 C        3.732    -0.067    21.888     6.678
     4   7 N        1.793    -0.306    28.750     7.942
     5   6 C        2.828     0.167    24.386     8.092
     6   6 C        2.900     0.058    26.700     8.472
     7   6 C        2.771     0.271    22.422     7.755
     8   8 O        0.858    -0.345    20.615     6.088
     9   7 N        2.739    -0.071    22.612     7.062
    10   6 C        3.708    -0.064    21.871     6.684
    11   6 C        2.714     0.324    21.486     7.588
    12   8 O        0.860    -0.337    20.464     6.065
    13   7 N        2.740    -0.080    22.790     7.090
    14   6 C        3.703    -0.063    21.864     6.685
    15   1 H        0.937     0.199     1.102     1.641
    16   1 H        0.925     0.137     1.485     1.906
    17   1 H        0.925     0.141     1.452     1.884
    18   1 H        0.919     0.133     1.510     1.922
    19   1 H        0.925     0.111     1.684     2.029
    20   1 H        0.925     0.107     1.721     2.052
    21   1 H        0.925     0.104     1.746     2.066
    22   1 H        0.924     0.086     1.915     2.164
    23   1 H        0.924     0.086     1.918     2.166
    24   1 H        0.925     0.119     1.620     1.990
    25   1 H        0.860     0.198     1.116     1.655

Wiberg/Mayer (AO) data.
largest (>0.10) Wiberg bond orders for each atom

     #   Z sym  total        # sym  WBO       # sym  WBO       # sym  WBO
 ---------------------------------------------------------------------------
     1   6 C    3.888 --     2 N    0.980     3 C    0.963    16 H    0.941
                            17 H    0.935
     2   7 N    3.688 --     6 C    1.634     1 C    0.980     3 C    0.937
     3   6 C    3.848 --     1 C    0.963     2 N    0.937    15 H    0.936
                            18 H    0.922
     4   7 N    2.988 --     5 C    1.709    25 H    0.925    13 N    0.159
     5   6 C    3.970 --     4 N    1.709    13 N    1.140     6 C    1.029
     6   6 C    3.896 --     2 N    1.634     5 C    1.029     7 C    0.957
     7   6 C    3.962 --     8 O    1.705     9 N    1.195     6 C    0.957
     8   8 O    2.068 --     7 C    1.705     9 N    0.183
     9   7 N    3.582 --     7 C    1.195    11 C    1.056    10 C    0.966
                             8 O    0.183    12 O    0.102
    10   6 C    3.910 --    19 H    0.971     9 N    0.966    20 H    0.962
                            21 H    0.960
    11   6 C    3.959 --    12 O    1.729    13 N    1.087     9 N    1.056
    12   8 O    2.089 --    11 C    1.729    13 N    0.120     9 N    0.102
    13   7 N    3.547 --     5 C    1.140    11 C    1.087    14 C    0.971
                             4 N    0.159    12 O    0.120
    14   6 C    3.922 --    13 N    0.971    22 H    0.968    23 H    0.967
                            24 H    0.966
    15   1 H    0.959 --     3 C    0.936
    16   1 H    0.978 --     1 C    0.941
    17   1 H    0.976 --     1 C    0.935
    18   1 H    0.977 --     3 C    0.922
    19   1 H    0.987 --    10 C    0.971
    20   1 H    0.983 --    10 C    0.962
    21   1 H    0.983 --    10 C    0.960
    22   1 H    0.989 --    14 C    0.968
    23   1 H    0.989 --    14 C    0.967
    24   1 H    0.985 --    14 C    0.966
    25   1 H    0.957 --     4 N    0.925
 ---------------------------------------------------------------------------

molecular dipole:
                 x           y           z       tot (Debye)
 q only:        2.530      -0.518       0.049
   full:        2.227      -0.726      -0.009       5.954

           -------------------------------------------------
          | TOTAL ENERGY              -59.728068041064 Eh   |
          | GRADIENT NORM               0.003931527923 Eh/α |
          | HOMO-LUMO GAP               1.493546166997 eV   |
           -------------------------------------------------

 * finished run on 2024/06/05 at 19:58:10.459
