   * xtb version 6.6.1 (8d0f1dd) compiled by 'conda@1efc2f54142f' on 2023-08-01
          program call               : xtb xtbopt.xyz --opt crude --input .xc2 --gfn2

   ID    Z sym.   atoms
    1    6 C      1, 3, 5-7, 10, 11, 14
    2    7 N      2, 4, 9, 13
    3    8 O      8, 12
    4    1 H      15-25
########################################################################
[WARNING] Please study the warnings concerning your input carefully
-1- readin_getIntValue: could not parse ''
########################################################################

          :  Hamiltonian                  GFN2-xTB          :
 * total energy  :   -40.4131560 Eh     change       -0.1136868E-12 Eh
 * total energy  :   -42.1188244 Eh     change       -0.1705668E+01 Eh
 * total energy  :   -42.1378438 Eh     change       -0.1901946E-01 Eh
 * total energy  :   -42.1410280 Eh     change       -0.3184164E-02 Eh
 * total energy  :   -42.1422781 Eh     change       -0.1250118E-02 Eh
 * total energy  :   -42.1428331 Eh     change       -0.5550143E-03 Eh
 * total energy  :   -42.1432861 Eh     change       -0.4529722E-03 Eh
 * total energy  :   -42.1435281 Eh     change       -0.2420351E-03 Eh
 * total energy  :   -42.1437279 Eh     change       -0.1997484E-03 Eh
 * total energy  :   -42.1438616 Eh     change       -0.1337201E-03 Eh
   *** GEOMETRY OPTIMIZATION CONVERGED AFTER 10 ITERATIONS ***

 final structure:
================
25
 xtb: 6.6.1 (8d0f1dd)
C            3.23699034219630        1.22318146853225       -0.00677747011328
N            2.17598753866835        0.29811514634210        0.01948466642856
C            3.46746784690986       -0.25018514891980        0.08448432323148
N            1.19165384573217       -2.18827595486348        0.12094775761302
C            0.35292409173373       -1.23915847860996        0.06302232775554
C            0.91741780140939        0.11566269135896        0.00760473546281
C            0.03856418050075        1.32867906831230       -0.06562880513146
O            0.52640663730368        2.43258513404545       -0.09919878093193
N           -1.29228492234952        1.05232010252167       -0.08330008340615
C           -2.23185693406918        2.16374067311243       -0.14580209651206
C           -1.87598003857857       -0.22032612870999       -0.03540710976777
O           -3.06634138490315       -0.34609247653330       -0.05702267111961
N           -1.01845269087488       -1.31492526727070        0.03808414083330
C           -1.63376722189811       -2.63462280147725        0.08397749888371
H            3.76514220501084       -0.69925854906999        1.02009000638750
H            3.41231012912030        1.74203192111696       -0.94379078436426
H            3.34480430821352        1.86443446594543        0.86128484629158
H            3.80025438216778       -0.79845908980178       -0.78946341039214
H           -1.66519481579370        3.08685842293975       -0.23395293318163
H           -2.89105248244575        2.03694078018017       -1.00351307754210
H           -2.84195483912798        2.18051162271739        0.75699433593084
H           -1.35169585317734       -3.15019798342849        1.00265738257178
H           -1.32944566340383       -3.22265377897166       -0.78289268163649
H           -2.71371978678305       -2.50532313737507        0.06481274054697
H            0.84225483853815       -3.13734416049487        0.15447676006180

          :  Hamiltonian                  GFN2-xTB          :
         :: total energy             -42.143861592324 Eh    ::
         :: gradient norm              0.004785622070 Eh/a0 ::
         :: HOMO-LUMO gap              1.496944954962 eV    ::
         :: SCC energy               -42.679672347807 Eh    ::
         :: -> dispersion             -0.021796548055 Eh    ::
         :: repulsion energy           0.535700858794 Eh    ::

    * Orbital Energies and Occupations

         #    Occupation            Energy/Eh            Energy/eV
      -------------------------------------------------------------
         1        2.0000           -0.9021294             -24.5482
       ...           ...                  ...                  ...
        25        2.0000           -0.6617893             -18.0082
        26        2.0000           -0.6573861             -17.8884
        27        2.0000           -0.6524877             -17.7551
        28        2.0000           -0.6462892             -17.5864
        29        2.0000           -0.6419833             -17.4693
        30        2.0000           -0.6339702             -17.2512
        31        2.0000           -0.6222750             -16.9330
        32        1.9999           -0.6113921             -16.6368
        33        1.9982           -0.5918004             -16.1037
        34        1.9963           -0.5860106             -15.9462
        35        1.9919           -0.5797763             -15.7765
        36        1.9734           -0.5702539             -15.5174
        37        1.9568           -0.5663468             -15.4111 (HOMO)
        38        0.0834           -0.5113351             -13.9141 (LUMO)
        39                         -0.3973129             -10.8114
        40                         -0.3890862             -10.5876
        41                         -0.3031011              -8.2478
        42                         -0.2895776              -7.8798
        43                         -0.2132175              -5.8019
        44                         -0.1722027              -4.6859
        45                         -0.1369730              -3.7272
        46                         -0.1040734              -2.8320
        47                         -0.0733054              -1.9947
        48                         -0.0511895              -1.3929
       ...                                ...                  ...
        67                          0.5791058              15.7583
      -------------------------------------------------------------
                  HL-Gap            0.0550117 Eh            1.4969 eV

     #   Z          covCN         q      C6AA      α(0)
     1   6 C        3.738    -0.021    21.022     6.543
     2   7 N        2.745     0.134    18.965     6.468
     3   6 C        3.738    -0.025    21.095     6.554
     4   7 N        1.792    -0.307    28.791     7.948
     5   6 C        2.827     0.168    24.384     8.092
     6   6 C        2.899     0.055    26.763     8.482
     7   6 C        2.772     0.271    22.423     7.755
     8   8 O        0.858    -0.347    20.651     6.093
     9   7 N        2.739    -0.071    22.626     7.065
    10   6 C        3.708    -0.063    21.864     6.683
    11   6 C        2.714     0.324    21.488     7.588
    12   8 O        0.860    -0.338    20.486     6.068
    13   7 N        2.740    -0.081    22.808     7.093
    14   6 C        3.703    -0.063    21.861     6.685
    15   1 H        0.926     0.138     1.473     1.898
    16   1 H        0.925     0.139     1.472     1.897
    17   1 H        0.925     0.139     1.466     1.893
    18   1 H        0.925     0.138     1.473     1.898
    19   1 H        0.925     0.111     1.687     2.031
    20   1 H        0.925     0.106     1.731     2.058
    21   1 H        0.925     0.104     1.749     2.068
    22   1 H        0.924     0.086     1.923     2.168
    23   1 H        0.924     0.085     1.923     2.169
    24   1 H        0.925     0.119     1.620     1.991
    25   1 H        0.860     0.198     1.115     1.654

Wiberg/Mayer (AO) data.
largest (>0.10) Wiberg bond orders for each atom

     #   Z sym  total        # sym  WBO       # sym  WBO       # sym  WBO
 ---------------------------------------------------------------------------
     1   6 C    3.885 --     3 C    0.976     2 N    0.962    16 H    0.937
                            17 H    0.937
     2   7 N    3.696 --     6 C    1.634     3 C    0.963     1 C    0.962
     3   6 C    3.887 --     1 C    0.976     2 N    0.963    15 H    0.937
                            18 H    0.936
     4   7 N    2.989 --     5 C    1.710    25 H    0.925    13 N    0.159
     5   6 C    3.970 --     4 N    1.710    13 N    1.140     6 C    1.028
     6   6 C    3.898 --     2 N    1.634     5 C    1.028     7 C    0.960
     7   6 C    3.962 --     8 O    1.704     9 N    1.195     6 C    0.960
     8   8 O    2.066 --     7 C    1.704     9 N    0.183
     9   7 N    3.581 --     7 C    1.195    11 C    1.057    10 C    0.966
                             8 O    0.183    12 O    0.102
    10   6 C    3.911 --    19 H    0.971     9 N    0.966    20 H    0.962
                            21 H    0.961
    11   6 C    3.959 --    12 O    1.728    13 N    1.087     9 N    1.057
    12   8 O    2.088 --    11 C    1.728    13 N    0.120     9 N    0.102
    13   7 N    3.547 --     5 C    1.140    11 C    1.087    14 C    0.972
                             4 N    0.159    12 O    0.120
    14   6 C    3.923 --    13 N    0.972    22 H    0.968    23 H    0.968
                            24 H    0.966
    15   1 H    0.977 --     3 C    0.937
    16   1 H    0.977 --     1 C    0.937
    17   1 H    0.977 --     1 C    0.937
    18   1 H    0.977 --     3 C    0.936
    19   1 H    0.987 --    10 C    0.971
    20   1 H    0.983 --    10 C    0.962
    21   1 H    0.983 --    10 C    0.961
    22   1 H    0.989 --    14 C    0.968
    23   1 H    0.989 --    14 C    0.968
    24   1 H    0.985 --    14 C    0.966
    25   1 H    0.957 --     4 N    0.925
 ---------------------------------------------------------------------------

molecular dipole:
                 x           y           z       tot (Debye)
 q only:        2.591      -0.517       0.058
   full:        2.309      -0.752       0.065       6.176

           -------------------------------------------------
          | TOTAL ENERGY              -42.143861592324 Eh   |
          | GRADIENT NORM               0.004785622070 Eh/α |
          | HOMO-LUMO GAP               1.496944954962 eV   |
           -------------------------------------------------

 * finished run on 2024/06/05 at 19:58:10.889
