   * xtb version 6.6.1 (8d0f1dd) compiled by 'conda@1efc2f54142f' on 2023-08-01
          program call               : xtb xtbopt.xyz --opt crude --input .xc2 --gfn2

   ID    Z sym.   atoms
    1    6 C      1, 3, 5-7, 10, 11, 14
    2    7 N      2, 4, 9, 13
    3    8 O      8, 12
    4    1 H      15-25

          :  Hamiltonian                  GFN2-xTB          :
 * total energy  :   -42.1035982 Eh     change       -0.4547474E-12 Eh
   *** GEOMETRY OPTIMIZATION CONVERGED AFTER 1 ITERATIONS ***

 final structure:
================
25
 xtb: 6.6.1 (8d0f1dd)
C            3.22709546517104        1.17990430757453        0.05463778039470
N            2.27063747718812        0.10822354727588       -0.03699897093271
C            2.53940981182936       -1.19058003580510       -0.10261921588914
N            1.39254482349792       -1.89803323281053       -0.16551248545358
C            0.34826030369743       -1.00795813087615       -0.13759543259971
C            0.90605713601355        0.26194352147740       -0.05730747329223
C            0.09736802859202        1.46266276072328       -0.01881617192079
O            0.51686510726081        2.59603368008257        0.03124610653432
N           -1.26572504397709        1.15343830772817       -0.05221485471325
C           -2.20211935668395        2.27309163264953       -0.00212110811830
C           -1.86173114031742       -0.07697057186401       -0.11011663834958
O           -3.04558958453883       -0.24715580960578       -0.11547538527119
N           -0.98503839189908       -1.24154253083183       -0.17329986947534
C           -1.55970714071501       -2.45241069580980       -0.25296996638578
H            3.71617495250306        1.16661036970285        1.02961288383398
H            3.98514012721176        1.07710659704432       -0.72044244261271
H            2.70338224310328        2.12825626127254       -0.06364280106635
H            3.52135214590054       -1.62204852763382       -0.10503523056468
H           -1.62403090093920        3.19332332087799        0.02337978806270
H           -2.84618606180974        2.25443683604032       -0.87966615954310
H           -2.82473283417237        2.19356429416142        0.88785034339530
H           -1.58055066643887       -4.75911881926336        1.76426157800083
H           -0.96436102005703       -3.34027859081563       -0.28747540510987
H           -2.63316878061580       -2.48919268357942       -0.26313729034592
H            1.32908481429546       -2.90506726611540       -0.21536996067757

          :  Hamiltonian                  GFN2-xTB          :
         :: total energy             -42.103598238934 Eh    ::
         :: gradient norm              0.003882896105 Eh/a0 ::
         :: HOMO-LUMO gap              0.281461846476 eV    ::
         :: SCC energy               -42.627212321101 Eh    ::
         :: -> dispersion             -0.022704573451 Eh    ::
         :: repulsion energy           0.523513072299 Eh    ::

    * Orbital Energies and Occupations

         #    Occupation            Energy/Eh            Energy/eV
      -------------------------------------------------------------
         1        2.0000           -0.9213611             -25.0715
       ...           ...                  ...                  ...
        25        2.0000           -0.6724914             -18.2994
        26        2.0000           -0.6722851             -18.2938
        27        2.0000           -0.6632143             -18.0470
        28        1.9999           -0.6390836             -17.3904
        29        1.9998           -0.6353762             -17.2895
        30        1.9998           -0.6315166             -17.1844
        31        1.9996           -0.6231345             -16.9564
        32        1.9985           -0.6019151             -16.3789
        33        1.9974           -0.5936209             -16.1532
        34        1.9966           -0.5889615             -16.0265
        35        1.9873           -0.5681232             -15.4594
        36        1.9858           -0.5663698             -15.4117
        37        1.1283           -0.4922143             -13.3938 (HOMO)
        38        0.8049           -0.4818707             -13.1124 (LUMO)
        39        0.0911           -0.4399497             -11.9716
        40        0.0094           -0.4032950             -10.9742
        41        0.0018           -0.3774164             -10.2700
        42        0.0000           -0.2926070              -7.9622
        43                         -0.2169212              -5.9027
        44                         -0.2044588              -5.5636
        45                         -0.1544937              -4.2040
        46                         -0.1384658              -3.7678
        47                         -0.0712536              -1.9389
        48                         -0.0433668              -1.1801
       ...                                ...                  ...
        67                          0.5530584              15.0495
      -------------------------------------------------------------
                  HL-Gap            0.0103435 Eh            0.2815 eV

     #   Z          covCN         q      C6AA      α(0)
     1   6 C        3.691    -0.097    22.547     6.795
     2   7 N        2.832     0.087    19.734     6.598
     3   6 C        3.054     0.055    26.713     8.476
     4   7 N        2.790    -0.055    22.299     7.013
     5   6 C        3.041     0.094    25.879     8.344
     6   6 C        3.115    -0.015    28.233     8.704
     7   6 C        2.763     0.268    22.480     7.765
     8   8 O        0.858    -0.362    20.940     6.135
     9   7 N        2.744    -0.077    22.739     7.082
    10   6 C        3.713    -0.065    21.881     6.684
    11   6 C        2.733     0.311    21.712     7.629
    12   8 O        0.859    -0.333    20.390     6.054
    13   7 N        2.735     0.010    21.084     6.820
    14   6 C        2.797    -0.053    29.308     8.869
    15   1 H        0.924     0.112     1.682     2.028
    16   1 H        0.925     0.108     1.713     2.047
    17   1 H        0.925     0.140     1.463     1.891
    18   1 H        0.926     0.130     1.537     1.939
    19   1 H        0.925     0.117     1.638     2.001
    20   1 H        0.925     0.100     1.784     2.089
    21   1 H        0.925     0.100     1.787     2.091
    22   1 H        0.000    -0.036     9.366     5.596
    23   1 H        0.927     0.094     1.840     2.121
    24   1 H        0.926     0.137     1.483     1.904
    25   1 H        0.860     0.232     0.958     1.533

Wiberg/Mayer (AO) data.
largest (>0.10) Wiberg bond orders for each atom

     #   Z sym  total        # sym  WBO       # sym  WBO       # sym  WBO
 ---------------------------------------------------------------------------
     1   6 C    3.911 --     2 N    0.984    16 H    0.962    17 H    0.959
                            15 H    0.955
     2   7 N    3.677 --     3 C    1.388     6 C    1.167     1 C    0.984
     3   6 C    3.848 --     2 N    1.388     4 N    1.290    18 H    0.951
     4   7 N    3.559 --     3 C    1.290     5 C    1.168    25 H    0.917
     5   6 C    3.889 --     6 C    1.342     4 N    1.168    13 N    1.163
     6   6 C    3.860 --     5 C    1.342     2 N    1.167     7 C    1.071
     7   6 C    3.918 --     8 O    1.678     9 N    1.084     6 C    1.071
     8   8 O    1.992 --     7 C    1.678     9 N    0.139
     9   7 N    3.569 --    11 C    1.168     7 C    1.084    10 C    0.962
                            12 O    0.151     8 O    0.139
    10   6 C    3.909 --    19 H    0.967    20 H    0.966    21 H    0.965
                             9 N    0.962
    11   6 C    3.925 --    12 O    1.732     9 N    1.168    13 N    0.932
    12   8 O    2.060 --    11 C    1.732     9 N    0.151
    13   7 N    3.623 --    14 C    1.305     5 C    1.163    11 C    0.932
    14   6 C    3.353 --    13 N    1.305    23 H    0.966    24 H    0.958
    15   1 H    0.984 --     1 C    0.955
    16   1 H    0.985 --     1 C    0.962
    17   1 H    0.980 --     1 C    0.959
    18   1 H    0.982 --     3 C    0.951
    19   1 H    0.985 --    10 C    0.967
    20   1 H    0.986 --    10 C    0.966
    21   1 H    0.986 --    10 C    0.965
    22   1 H    0.024
    23   1 H    0.990 --    14 C    0.966
    24   1 H    0.981 --    14 C    0.958
    25   1 H    0.946 --     4 N    0.917
 ---------------------------------------------------------------------------

molecular dipole:
                 x           y           z       tot (Debye)
 q only:        2.630      -1.474      -0.324
   full:        2.892      -2.067      -0.332       9.073

           -------------------------------------------------
          | TOTAL ENERGY              -42.103598238934 Eh   |
          | GRADIENT NORM               0.003882896105 Eh/α |
          | HOMO-LUMO GAP               0.281461846476 eV   |
           -------------------------------------------------

 * finished run on 2024/06/05 at 20:00:19.144
