   * xtb version 6.6.1 (8d0f1dd) compiled by 'conda@1efc2f54142f' on 2023-08-01
          program call               : xtb xtbopt.xyz --opt crude --input .xc2 --gfn2

   ID    Z sym.   atoms
    1    6 C      1, 3, 5-7, 10, 11, 14
    2    7 N      2, 4, 9, 13
    3    8 O      8, 12
    4    1 H      15-25
########################################################################
[WARNING] Please study the warnings concerning your input carefully
-1- readin_getIntValue: could not parse ''
########################################################################

          :  Hamiltonian                  GFN2-xTB          :
 * total energy  :   -42.1695533 Eh     change        0.2842171E-13 Eh
 * total energy  :   -42.1734112 Eh     change       -0.3857949E-02 Eh
 * total energy  :   -42.1743164 Eh     change       -0.9051496E-03 Eh
 * total energy  :   -42.1746195 Eh     change       -0.3031051E-03 Eh
   *** GEOMETRY OPTIMIZATION CONVERGED AFTER 4 ITERATIONS ***

 final structure:
================
25
 xtb: 6.6.1 (8d0f1dd)
C            3.23620826667056        0.97359482224616        0.38144996330932
N            2.18213666626567       -0.00322140403092        0.32083122293135
C            2.30240244393130       -1.32243351679673        0.45660203517575
N            1.09871885318711       -1.91118648454792        0.30151186547639
C            0.18341951684555       -0.93272643032003        0.05692491622741
C            0.85886902481062        0.27667207282203        0.07082479688450
C            0.16564215780056        1.52639213456119       -0.15058724955726
O            0.64107300354497        2.63637681627706       -0.15043984629415
N           -1.21326376006448        1.28800597594376       -0.38023446874264
C           -1.99070041996423        2.49021262864111       -0.63434058642945
C           -1.85575898119289        0.12607332481400       -0.38975086571016
O           -1.24233566852262       -3.24106401712886        0.54828751339272
N           -1.15172928580540       -1.00589227367634       -0.16001359239718
C           -1.82082082016300       -2.30354787960459       -0.29783481864943
H            3.90431464563199        0.75787514522398        1.21358456525532
H            3.81210408664352        0.96451648972788       -0.54585786909235
H            2.79379556329412        1.96156798967326        0.50425489896775
H            3.21549777996668       -1.84385666122260        0.66313480127697
H           -1.46145539230566        3.11186504477735       -1.35620783190719
H           -2.96671774845007        2.20588394888390       -1.01454213691574
H           -2.10154458360706        3.06170154351069        0.28757793120253
H           -1.68273230662067       -2.65398462887881       -1.33008950387384
H           -2.88647133542101       -2.13797411162848       -0.11595611178747
H           -1.72194366723399       -3.31071043764145        1.38341518260636
H            0.86172347482167       -2.89590154995294        0.36862680647256

          :  Hamiltonian                  GFN2-xTB          :
         :: total energy             -42.174619494199 Eh    ::
         :: gradient norm              0.004620269813 Eh/a0 ::
         :: HOMO-LUMO gap              2.240524449067 eV    ::
         :: SCC energy               -42.680325139831 Eh    ::
         :: -> dispersion             -0.022476009348 Eh    ::
         :: repulsion energy           0.505592260369 Eh    ::

    * Orbital Energies and Occupations

         #    Occupation            Energy/Eh            Energy/eV
      -------------------------------------------------------------
         1        2.0000           -0.9035413             -24.5866
       ...           ...                  ...                  ...
        25        2.0000           -0.6623502             -18.0235
        26        2.0000           -0.6522257             -17.7480
        27        2.0000           -0.6430769             -17.4990
        28        1.9999           -0.6364957             -17.3199
        29        1.9999           -0.6302604             -17.1503
        30        1.9997           -0.6110725             -16.6281
        31        1.9997           -0.6108586             -16.6223
        32        1.9994           -0.5994943             -16.3131
        33        1.9991           -0.5913205             -16.0907
        34        1.9978           -0.5780115             -15.7285
        35        1.9955           -0.5664931             -15.4151
        36        1.9885           -0.5517084             -15.0128
        37        1.8563           -0.5105704             -13.8933 (HOMO)
        38        0.1331           -0.4282327             -11.6528 (LUMO)
        39        0.0237           -0.3999817             -10.8841
        40        0.0073           -0.3812914             -10.3755
        41        0.0000           -0.2812185              -7.6523
        42                         -0.1908530              -5.1934
        43                         -0.1776614              -4.8344
        44                         -0.1349872              -3.6732
        45                         -0.1240254              -3.3749
        46                         -0.0928376              -2.5262
        47                         -0.0627718              -1.7081
        48                         -0.0245417              -0.6678
       ...                                ...                  ...
        67                          0.5451232              14.8336
      -------------------------------------------------------------
                  HL-Gap            0.0823378 Eh            2.2405 eV

     #   Z          covCN         q      C6AA      α(0)
     1   6 C        3.691    -0.088    22.383     6.770
     2   7 N        2.835     0.070    20.013     6.644
     3   6 C        3.060     0.054    26.741     8.480
     4   7 N        2.792    -0.061    22.420     7.032
     5   6 C        3.063     0.115    25.415     8.267
     6   6 C        3.116    -0.013    28.170     8.694
     7   6 C        2.771     0.260    22.618     7.789
     8   8 O        0.857    -0.368    21.054     6.152
     9   7 N        2.750     0.002    21.220     6.842
    10   6 C        3.717    -0.070    21.961     6.694
    11   6 C        1.893    -0.090    33.591     9.361
    12   8 O        1.657    -0.423    21.295     6.230
    13   7 N        2.744    -0.016    21.558     6.896
    14   6 C        3.624     0.122    18.995     6.281
    15   1 H        0.925     0.101     1.778     2.085
    16   1 H        0.924     0.106     1.728     2.056
    17   1 H        0.925     0.131     1.529     1.934
    18   1 H        0.926     0.121     1.607     1.982
    19   1 H        0.925     0.100     1.783     2.088
    20   1 H        0.925     0.100     1.787     2.091
    21   1 H        0.924     0.095     1.831     2.116
    22   1 H        0.923     0.087     1.905     2.159
    23   1 H        0.924     0.090     1.877     2.142
    24   1 H        0.805     0.325     0.651     1.268
    25   1 H        0.860     0.249     0.886     1.474

Wiberg/Mayer (AO) data.
largest (>0.10) Wiberg bond orders for each atom

     #   Z sym  total        # sym  WBO       # sym  WBO       # sym  WBO
 ---------------------------------------------------------------------------
     1   6 C    3.920 --     2 N    0.987    15 H    0.967    17 H    0.963
                            16 H    0.955
     2   7 N    3.663 --     3 C    1.376     6 C    1.157     1 C    0.987
     3   6 C    3.841 --     2 N    1.376     4 N    1.287    18 H    0.953
     4   7 N    3.588 --     3 C    1.287     5 C    1.196    25 H    0.899
     5   6 C    3.940 --     6 C    1.362     4 N    1.196    13 N    1.177
     6   6 C    3.919 --     5 C    1.362     2 N    1.157     7 C    1.085
     7   6 C    3.928 --     8 O    1.700     6 C    1.085     9 N    1.041
     8   8 O    2.024 --     7 C    1.700     9 N    0.126
     9   7 N    3.650 --    11 C    1.407     7 C    1.041    10 C    0.980
                             8 O    0.126
    10   6 C    3.929 --     9 N    0.980    20 H    0.976    19 H    0.966
                            21 H    0.962
    11   6 C    2.867 --     9 N    1.407    13 N    1.251
    12   8 O    2.004 --    14 C    1.032    24 H    0.881
    13   7 N    3.604 --    11 C    1.251     5 C    1.177    14 C    0.942
    14   6 C    3.925 --    12 O    1.032    23 H    0.962    22 H    0.952
                            13 N    0.942
    15   1 H    0.987 --     1 C    0.967
    16   1 H    0.985 --     1 C    0.955
    17   1 H    0.982 --     1 C    0.963
    18   1 H    0.984 --     3 C    0.953
    19   1 H    0.988 --    10 C    0.966
    20   1 H    0.989 --    10 C    0.976
    21   1 H    0.988 --    10 C    0.962
    22   1 H    0.989 --    14 C    0.952
    23   1 H    0.991 --    14 C    0.962
    24   1 H    0.894 --    12 O    0.881
    25   1 H    0.937 --     4 N    0.899
 ---------------------------------------------------------------------------

molecular dipole:
                 x           y           z       tot (Debye)
 q only:        0.991      -1.865       0.462
   full:        1.319      -2.281       0.678       6.916

           -------------------------------------------------
          | TOTAL ENERGY              -42.174619494199 Eh   |
          | GRADIENT NORM               0.004620269813 Eh/α |
          | HOMO-LUMO GAP               2.240524449067 eV   |
           -------------------------------------------------

 * finished run on 2024/06/05 at 19:58:01.741
