   * xtb version 6.6.1 (8d0f1dd) compiled by 'conda@1efc2f54142f' on 2023-08-01
          program call               : xtb struc.xyz --opt loose --input .xc1 --gfn2

   ID    Z sym.   atoms
    1    7 N      1, 17
    2    6 C      2-6, 8, 9, 11-16, 18-23, 25, 26, 28-33
    3    8 O      7, 10, 24, 27
    4    1 H      34-72
constraining bond 13 41 to    2.7133300 Å, actual value:    2.1311186 Å

          :  Hamiltonian                  GFN2-xTB          :
 * total energy  :   -99.4646551 Eh     change       -0.4035485E-08 Eh
 * total energy  :   -99.5397785 Eh     change       -0.7512336E-01 Eh
 * total energy  :   -99.6264961 Eh     change       -0.8671761E-01 Eh
 * total energy  :   -99.6642483 Eh     change       -0.3775223E-01 Eh
 * total energy  :   -99.6970810 Eh     change       -0.3283270E-01 Eh
 * total energy  :   -99.7218774 Eh     change       -0.2479634E-01 Eh
 * total energy  :   -99.7293911 Eh     change       -0.7513771E-02 Eh
 * total energy  :   -99.7485512 Eh     change       -0.1916008E-01 Eh
 * total energy  :   -99.7580747 Eh     change       -0.9523481E-02 Eh
 * total energy  :   -99.7821794 Eh     change       -0.2410466E-01 Eh
 * total energy  :   -99.8637543 Eh     change       -0.6112521E-03 Eh
 * total energy  :   -99.8643513 Eh     change       -0.5969291E-03 Eh
 * total energy  :   -99.8652760 Eh     change       -0.9247655E-03 Eh
 * total energy  :   -99.8656756 Eh     change       -0.3995772E-03 Eh
 * total energy  :   -99.8662175 Eh     change       -0.5419159E-03 Eh
 * total energy  :   -99.8665231 Eh     change       -0.3056083E-03 Eh
 * total energy  :   -99.8666094 Eh     change       -0.8629823E-04 Eh
 * total energy  :   -99.8666428 Eh     change       -0.3333500E-04 Eh
 * total energy  :   -99.8666716 Eh     change       -0.2886866E-04 Eh
   *** GEOMETRY OPTIMIZATION CONVERGED AFTER 29 ITERATIONS ***

 final structure:
================
72
 xtb: 6.6.1 (8d0f1dd)
N           -2.00541023509020        2.63879314010144        2.36543667718080
C           -1.89460903893041        2.07021302957697        1.25777770652360
C           -3.02474356007344        1.89624597911214        0.27616610550998
C           -3.56127656546955        0.48267343944228        0.36601868069092
C           -4.42897818271533       -0.01333215174916       -0.56263450319829
C           -4.89437708371115       -1.34087097448182       -0.54446994870844
O           -5.80468074923597       -1.85001101042851       -1.37149790229539
C           -6.50889921090315       -1.00944383073118       -2.26015593856874
C           -4.34617992012853       -2.25650512077366        0.42957494119017
O           -4.71853083415339       -3.54893789642572        0.28226232783049
C           -4.26603270315841       -4.43242399985130        1.28220775552042
C           -3.55576734782458       -1.77641367282953        1.41108684024634
C           -3.16451835980452       -0.36170164857751        1.55778862248314
C           -2.43520935500047        2.15929822760098       -1.13574568474835
C           -1.51284673460559        1.04800801397402       -1.66783160121886
C           -0.17484926791739        1.03531982477501       -1.03315983589809
N            0.49713986363417       -0.05544660739279       -0.66950594757616
C            1.87910099130752        0.04236111449028       -0.26185983866341
C            2.84673370529954       -0.37370424745151       -1.38671087983649
C            4.26589123618316       -0.16179445566665       -0.93889268081113
C            4.90321161679134        1.04778572986834       -1.16048592571513
C            6.20211852993485        1.25667216552733       -0.72296443239881
C            6.88869227065535        0.25844329910278       -0.04729969362431
O            8.14825378494458        0.34868358331665        0.41939216088083
C            8.87745371729762        1.53496999284000        0.20408872387378
C            6.24063898398449       -0.98511212866831        0.19033339961355
O            6.97928687466149       -1.89852269857097        0.85197335893433
C            6.43399584265234       -3.17023209430961        1.10959010113414
C            4.94210261725949       -1.17064626780602       -0.25652196707524
C           -0.05784010888931       -1.38192411770408       -0.79386829139472
C           -4.21062422288884        2.88379315639798        0.53222698051130
C           -4.94388845539714        2.56856586110062        1.83418248956044
C           -3.77238111136561        4.34547041842039        0.52983788663400
H           -4.76642556363883        0.62498492349736       -1.36504226231136
H           -6.99853329211938       -0.18892384725859       -1.72866574985538
H           -7.26250590386063       -1.64166325976426       -2.72554366213021
H           -5.84982042892069       -0.60602284392159       -3.03484211257070
H           -4.58096218104868       -4.09348062242362        2.27281093813194
H           -4.71002907224695       -5.39943104618645        1.05700673100376
H           -3.17416927780875       -4.50864404368535        1.26898970306272
H           -3.48427241094529       -0.03194210650089        2.26752796246265
H           -2.05942535950873       -0.33473290854712        1.64157926967336
H           -3.25739871230372        2.28352680298493       -1.83942806730532
H           -1.88022161199454        3.09748654604946       -1.11120958654593
H           -2.00909826316149        0.08271278030592       -1.57870476192209
H           -1.36786650826055        1.24515977482050       -2.73846916584758
H           -0.94641714257198        1.64930268174197        0.87001491351114
H            0.36760137585174        1.96817580070691       -0.99455177379904
H            2.04116567295569       -0.59747808971174        0.61018811780961
H            2.09725623569340        1.07275921060629        0.02617134993910
H            2.64053357927590        0.23308187035671       -2.27008616948411
H            2.68488697011274       -1.42183672120744       -1.64075511271557
H            4.39389317580002        1.83806205577126       -1.69090435699865
H            6.67452792851977        2.20528903882004       -0.91819893961277
H            8.40272121884025        2.39159222038245        0.69229167013542
H            8.99802327225590        1.74262898098024       -0.86334601341010
H            9.85467326317151        1.36177631494147        0.65058808023527
H            7.21487882381446       -3.72322995519278        1.62790481966744
H            5.55031536815810       -3.10549614665242        1.75269807362264
H            6.17597057314217       -3.69185254703918        0.18270628111802
H            4.44495672642556       -2.11339963438870       -0.08938617918604
H           -0.13269920534680       -1.68254222147011       -1.84172695386924
H           -1.05214980420934       -1.43283094945620       -0.34823669084124
H            0.58537499475034       -2.08835624025402       -0.27491250226788
H           -4.91459390041402        2.73840685424422       -0.29522289664037
H           -4.26441410191316        2.65472658875376        2.67571342176101
H           -5.37190762296360        1.56938352705637        1.81571681381041
H           -5.75470542813573        3.27868619095905        1.97245216901817
H           -3.05256155277819        4.52801353135008        1.32192531917450
H           -3.34070148491105        4.63960570928442       -0.42322328044121
H           -4.63907379279664        4.97606781474246        0.70951279439460
H           -1.17328794725154        2.71429943557585        2.94158296523821

          :  Hamiltonian                  GFN2-xTB          :
         :: total energy             -99.866671621959 Eh    ::
         :: gradient norm              0.002761958544 Eh/a0 ::
         :: HOMO-LUMO gap              0.845655046837 eV    ::
         :: SCC energy              -100.677515634972 Eh    ::
         :: -> dispersion             -0.074309851442 Eh    ::
         :: repulsion energy           1.432570614328 Eh    ::

    * Orbital Energies and Occupations

         #    Occupation            Energy/Eh            Energy/eV
      -------------------------------------------------------------
         1        2.0000           -0.8239311             -22.4203
       ...           ...                  ...                  ...
        78        1.9989           -0.5328099             -14.4985
        79        1.9988           -0.5312925             -14.4572
        80        1.9986           -0.5285943             -14.3838
        81        1.9984           -0.5266346             -14.3305
        82        1.9975           -0.5194869             -14.1360
        83        1.9972           -0.5180103             -14.0958
        84        1.9971           -0.5173100             -14.0767
        85        1.9960           -0.5119843             -13.9318
        86        1.9797           -0.4862558             -13.2317
        87        1.9600           -0.4753724             -12.9355
        88        1.9321           -0.4667577             -12.7011
        89        1.8526           -0.4538105             -12.3488
        90        1.3766           -0.4262790             -11.5996 (HOMO)
        91        0.4736           -0.3952017             -10.7540 (LUMO)
        92        0.4177           -0.3926433             -10.6844
        93        0.0236           -0.3436105              -9.3501
        94        0.0029           -0.3102396              -8.4420
        95        0.0027           -0.3089436              -8.4068
        96        0.0025           -0.3077848              -8.3753
        97        0.0000           -0.2229070              -6.0656
        98        0.0000           -0.1852925              -5.0421
        99                         -0.1351922              -3.6788
       100                         -0.0766489              -2.0857
       101                         -0.0668809              -1.8199
       ...                                ...                  ...
       171                          0.8024282              21.8352
      -------------------------------------------------------------
                  HL-Gap            0.0310773 Eh            0.8457 eV

     #   Z          covCN         q      C6AA      α(0)
     1   7 N        1.774    -0.275    27.948     7.829
     2   6 C        2.825     0.097    25.848     8.331
     3   6 C        3.906     0.007    20.406     6.421
     4   6 C        2.961     0.003    27.953     8.672
     5   6 C        2.902    -0.076    29.904     8.966
     6   6 C        2.861     0.138    24.980     8.192
     7   8 O        1.706    -0.200    17.327     5.620
     8   6 C        3.644     0.023    20.526     6.512
     9   6 C        2.862     0.130    25.160     8.222
    10   8 O        1.705    -0.242    18.014     5.730
    11   6 C        3.659     0.027    20.403     6.482
    12   6 C        1.979    -0.154    35.439     9.614
    13   6 C        3.815    -0.072    21.864     6.655
    14   6 C        3.810    -0.067    21.767     6.641
    15   6 C        3.802    -0.068    21.799     6.647
    16   6 C        2.842    -0.000    28.023     8.676
    17   7 N        2.728     0.005    21.182     6.835
    18   6 C        3.756    -0.016    20.906     6.519
    19   6 C        3.808    -0.070    21.841     6.653
    20   6 C        2.969    -0.001    28.047     8.687
    21   6 C        2.922    -0.049    29.222     8.865
    22   6 C        2.914    -0.068    29.689     8.935
    23   6 C        2.865     0.133    25.089     8.210
    24   8 O        1.706    -0.223    17.701     5.680
    25   6 C        3.645     0.025    20.482     6.504
    26   6 C        2.863     0.133    25.095     8.211
    27   8 O        1.706    -0.226    17.744     5.687
    28   6 C        3.645     0.027    20.448     6.499
    29   6 C        2.920    -0.080    29.997     8.981
    30   6 C        3.699    -0.068    21.973     6.704
    31   6 C        3.852    -0.006    20.647     6.463
    32   6 C        3.755    -0.121    22.871     6.819
    33   6 C        3.755    -0.117    22.802     6.809
    34   1 H        0.926     0.054     2.266     2.354
    35   1 H        0.924     0.060     2.196     2.317
    36   1 H        0.925     0.087     1.906     2.159
    37   1 H        0.924     0.056     2.249     2.345
    38   1 H        0.924     0.058     2.222     2.331
    39   1 H        0.925     0.075     2.027     2.226
    40   1 H        0.924     0.049     2.330     2.387
    41   1 H        0.930     0.128     1.548     1.946
    42   1 H        0.922     0.067     2.125     2.280
    43   1 H        0.925     0.057     2.238     2.340
    44   1 H        0.924     0.055     2.254     2.348
    45   1 H        0.925     0.062     2.170     2.304
    46   1 H        0.923     0.077     2.006     2.215
    47   1 H        0.922     0.004     2.985     2.702
    48   1 H        0.926     0.067     2.124     2.279
    49   1 H        0.924     0.066     2.129     2.282
    50   1 H        0.924     0.066     2.128     2.281
    51   1 H        0.924     0.054     2.269     2.356
    52   1 H        0.924     0.055     2.254     2.348
    53   1 H        0.926     0.044     2.392     2.419
    54   1 H        0.926     0.058     2.225     2.333
    55   1 H        0.924     0.054     2.276     2.359
    56   1 H        0.924     0.055     2.255     2.348
    57   1 H        0.925     0.082     1.961     2.190
    58   1 H        0.925     0.081     1.965     2.192
    59   1 H        0.924     0.048     2.343     2.394
    60   1 H        0.924     0.052     2.295     2.369
    61   1 H        0.926     0.047     2.364     2.404
    62   1 H        0.924     0.075     2.030     2.228
    63   1 H        0.924     0.078     2.001     2.212
    64   1 H        0.925     0.080     1.980     2.201
    65   1 H        0.924     0.035     2.517     2.481
    66   1 H        0.925     0.071     2.070     2.250
    67   1 H        0.925     0.034     2.533     2.489
    68   1 H        0.925     0.053     2.288     2.366
    69   1 H        0.925     0.058     2.223     2.332
    70   1 H        0.925     0.035     2.518     2.482
    71   1 H        0.925     0.056     2.252     2.347
    72   1 H        0.860     0.157     1.358     1.825

Wiberg/Mayer (AO) data.
largest (>0.10) Wiberg bond orders for each atom

     #   Z sym  total        # sym  WBO       # sym  WBO       # sym  WBO
 ---------------------------------------------------------------------------
     1   7 N    3.032 --     2 C    1.954    72 H    0.943
     2   6 C    3.922 --     1 N    1.954     3 C    0.993    47 H    0.901
     3   6 C    3.971 --     2 C    0.993     4 C    0.980    14 C    0.957
                            31 C    0.928
     4   6 C    3.729 --     5 C    1.572    13 C    0.994     3 C    0.980
     5   6 C    3.970 --     4 C    1.572     6 C    1.275    34 H    0.950
     6   6 C    3.690 --     5 C    1.275     7 O    1.157     9 C    1.120
     7   8 O    2.288 --     6 C    1.157     8 C    0.967
     8   6 C    3.922 --    36 H    0.976    35 H    0.973    37 H    0.972
                             7 O    0.967
     9   6 C    3.877 --    12 C    1.545     6 C    1.120    10 O    1.076
    10   8 O    2.223 --     9 C    1.076    11 C    0.977
    11   6 C    3.926 --    39 H    0.979    10 O    0.977    40 H    0.973
                            38 H    0.973
    12   6 C    2.869 --     9 C    1.545    13 C    1.060
    13   6 C    3.953 --    12 C    1.060     4 C    0.994    41 H    0.917
                            42 H    0.905
    14   6 C    3.966 --    15 C    0.985    44 H    0.971    43 H    0.970
                             3 C    0.957
    15   6 C    3.987 --    16 C    1.058    14 C    0.985    45 H    0.960
                            46 H    0.928
    16   6 C    3.562 --    17 N    1.382    15 C    1.058    48 H    0.957
    17   7 N    3.457 --    16 C    1.382    30 C    0.999    18 C    0.989
    18   6 C    3.956 --    17 N    0.989    50 H    0.968    19 C    0.967
                            49 H    0.964
    19   6 C    3.976 --    20 C    1.008    51 H    0.972    52 H    0.972
                            18 C    0.967
    20   6 C    3.946 --    21 C    1.411    29 C    1.379    19 C    1.008
    21   6 C    3.951 --    22 C    1.415    20 C    1.411    53 H    0.968
    22   6 C    3.960 --    21 C    1.415    23 C    1.385    54 H    0.963
    23   6 C    3.897 --    22 C    1.385    26 C    1.221    24 O    1.109
    24   8 O    2.255 --    23 C    1.109    25 C    0.976
    25   6 C    3.929 --    57 H    0.977    24 O    0.976    56 H    0.973
                            55 H    0.973
    26   6 C    3.900 --    29 C    1.396    23 C    1.221    27 O    1.102
    27   8 O    2.255 --    26 C    1.102    28 C    0.979
    28   6 C    3.933 --    27 O    0.979    58 H    0.977    59 H    0.974
                            60 H    0.973
    29   6 C    3.960 --    26 C    1.396    20 C    1.379    61 H    0.963
    30   6 C    3.959 --    17 N    0.999    64 H    0.977    62 H    0.966
                            63 H    0.965
    31   6 C    3.967 --    32 C    1.009    33 C    1.009    65 H    0.963
                             3 C    0.928
    32   6 C    3.982 --    31 C    1.009    67 H    0.983    68 H    0.981
                            66 H    0.974
    33   6 C    3.985 --    31 C    1.009    70 H    0.983    71 H    0.980
                            69 H    0.979
    34   1 H    0.990 --     5 C    0.950
    35   1 H    0.992 --     8 C    0.973
    36   1 H    0.991 --     8 C    0.976
    37   1 H    0.992 --     8 C    0.972
    38   1 H    0.992 --    11 C    0.973
    39   1 H    0.993 --    11 C    0.979
    40   1 H    0.993 --    11 C    0.973
    41   1 H    0.963 --    13 C    0.917
    42   1 H    0.965 --    13 C    0.905
    43   1 H    0.996 --    14 C    0.970
    44   1 H    0.995 --    14 C    0.971
    45   1 H    0.995 --    15 C    0.960
    46   1 H    0.967 --    15 C    0.928
    47   1 H    0.991 --     2 C    0.901
    48   1 H    0.995 --    16 C    0.957
    49   1 H    0.990 --    18 C    0.964
    50   1 H    0.995 --    18 C    0.968
    51   1 H    0.996 --    19 C    0.972
    52   1 H    0.996 --    19 C    0.972
    53   1 H    0.997 --    21 C    0.968
    54   1 H    0.995 --    22 C    0.963
    55   1 H    0.992 --    25 C    0.973
    56   1 H    0.992 --    25 C    0.973
    57   1 H    0.993 --    25 C    0.977
    58   1 H    0.993 --    28 C    0.977
    59   1 H    0.993 --    28 C    0.974
    60   1 H    0.993 --    28 C    0.973
    61   1 H    0.997 --    29 C    0.963
    62   1 H    0.984 --    30 C    0.966
    63   1 H    0.988 --    30 C    0.965
    64   1 H    0.993 --    30 C    0.977
    65   1 H    0.995 --    31 C    0.963
    66   1 H    0.992 --    32 C    0.974
    67   1 H    0.998 --    32 C    0.983
    68   1 H    0.995 --    32 C    0.981
    69   1 H    0.995 --    33 C    0.979
    70   1 H    0.998 --    33 C    0.983
    71   1 H    0.994 --    33 C    0.980
    72   1 H    0.972 --     1 N    0.943
 ---------------------------------------------------------------------------

molecular dipole:
                 x           y           z       tot (Debye)
 q only:        0.164       0.229      -0.868
   full:        0.355       0.442      -1.326       3.666

           -------------------------------------------------
          | TOTAL ENERGY              -99.866671621959 Eh   |
          | GRADIENT NORM               0.002761958544 Eh/α |
          | HOMO-LUMO GAP               0.845655046837 eV   |
           -------------------------------------------------

 * finished run on 2024/04/06 at 11:16:26.197
