   * xtb version 6.6.1 (8d0f1dd) compiled by 'conda@1efc2f54142f' on 2023-08-01
          program call               : xtb xtbopt.xyz --opt crude --input .xc2 --gfn2

   ID    Z sym.   atoms
    1    7 N      1, 17
    2    6 C      2-6, 8, 9, 11-16, 18-23, 25, 26, 28-33
    3    8 O      7, 10, 24, 27
    4    1 H      34-72
########################################################################
[WARNING] Please study the warnings concerning your input carefully
-1- readin_getIntValue: could not parse ''
########################################################################

          :  Hamiltonian                  GFN2-xTB          :
 * total energy  :   -99.2436756 Eh     change       -0.3350920E-10 Eh
 * total energy  :   -99.3043033 Eh     change       -0.6062777E-01 Eh
 * total energy  :   -99.3056728 Eh     change       -0.1369500E-02 Eh
 * total energy  :   -99.3063596 Eh     change       -0.6868132E-03 Eh
 * total energy  :   -99.3064006 Eh     change       -0.4097263E-04 Eh
   *** GEOMETRY OPTIMIZATION CONVERGED AFTER 5 ITERATIONS ***

 final structure:
================
72
 xtb: 6.6.1 (8d0f1dd)
N           -2.01134928010863        2.63753840549867        2.36710802111493
C           -1.89510237150037        2.07477082125657        1.25700412678199
C           -3.02219840323925        1.89681336377498        0.27324819280482
C           -3.54922817972115        0.47873169615726        0.35988472061041
C           -4.43437896138392       -0.01055934007315       -0.55822398448526
C           -4.89487989317258       -1.33969536898195       -0.54436129819199
O           -5.80827032728219       -1.84821938624159       -1.36943889459355
C           -6.50978332331294       -1.00980967241737       -2.26260281187570
C           -4.34009936151894       -2.25970934076175        0.42002212457296
O           -4.73118513897533       -3.54846953406560        0.28508816884132
C           -4.27133122622893       -4.43102019670228        1.28295158410942
C           -3.51421153004497       -1.79303379798689        1.38281419471952
C           -3.11414971177009       -0.39009126423446        1.50017096127215
C           -2.43174682685799        2.16097039253384       -1.13854279161908
C           -1.50725355513780        1.05099850782748       -1.66929005517332
C           -0.17168835152449        1.03611763478645       -1.02953828936729
N            0.49737095130425       -0.05649124743014       -0.66644135740388
C            1.87929152719097        0.03795581102434       -0.25788155324084
C            2.84574859650253       -0.37355610274109       -1.38535554762895
C            4.26536635081076       -0.16230089553344       -0.93893664751849
C            4.90273362996915        1.04716000121406       -1.16084357702509
C            6.20195503918494        1.25577603851504       -0.72413583865622
C            6.88872630256918        0.25734060935566       -0.04898729497065
O            8.14838005135247        0.34752086797439        0.41741603595178
C            8.87686350745566        1.53447819832344        0.20353351779079
C            6.24077609571066       -0.98631527913994        0.18844540744708
O            6.97988366021771       -1.90011779186305        0.84905520315532
C            6.43471441660293       -3.17186584095609        1.10663377706577
C            4.94189993340932       -1.17155415946528       -0.25748788605878
C           -0.05929814041021       -1.38186506930903       -0.79566229956630
C           -4.21140372986762        2.88072467361775        0.52608962255315
C           -4.94993695349585        2.56270428536589        1.82401704589463
C           -3.77580104547579        4.34341084060410        0.52889295401586
H           -4.79290461903951        0.63702577390150       -1.34440446666621
H           -7.00088932641547       -0.18722955152899       -1.73549829958268
H           -7.26265332360274       -1.64344419104143       -2.72734040462008
H           -5.84858384116557       -0.60964472153578       -3.03728245188248
H           -4.58796302584191       -4.09535903560967        2.27434876750154
H           -4.70844643836625       -5.40084689884485        1.05756903197977
H           -3.17896912295068       -4.49831543013905        1.26888739257925
H           -3.53754633589681        0.01952954120534        2.43028121797077
H           -2.02884727413067       -0.32257969591437        1.64684750300964
H           -3.25368299725644        2.28262900295390       -1.84321006241831
H           -1.87856468327519        3.10036144928621       -1.11427869040845
H           -2.00442153319331        0.08579929117655       -1.58385413481258
H           -1.35788099261958        1.24989222898452       -2.73904212069899
H           -0.94235600169386        1.66421094726289        0.86843550770160
H            0.37227974253253        1.96800191563591       -0.98833563181612
H            2.04071043595136       -0.60621529404284        0.61097289944503
H            2.09855979130305        1.06671351749591        0.03504339001894
H            2.63788902488776        0.23637006637928       -2.26616139771093
H            2.68404845356100       -1.42081231133834       -1.64301106771482
H            4.39322514187536        1.83762500772053       -1.69081093796709
H            6.67437877285619        2.20433133639198       -0.91962268627668
H            8.40112532637309        2.39038377826354        0.69202534287394
H            8.99807424486641        1.74306160276000       -0.86365133945528
H            9.85387552229245        1.36165419491579        0.65062402407880
H            7.21571095786273       -3.72481245251246        1.62484590129335
H            5.55106891603381       -3.10731893889648        1.74980942439541
H            6.17667280502686       -3.69347426701276        0.17973174692857
H            4.44476200346032       -2.11430777386511       -0.09032750535887
H           -0.13419505846485       -1.67854704346921       -1.84465228670575
H           -1.05362156385280       -1.43330467364105       -0.35013428839067
H            0.58310565998250       -2.09083226292936       -0.27921432930831
H           -4.91175640619018        2.73649044510920       -0.30443713030149
H           -4.27457741117276        2.65270426479553        2.66869905421373
H           -5.37342014014417        1.56140528685941        1.80310235177955
H           -5.76446019915263        3.26961542369810        1.95810981900596
H           -3.06426416032272        4.52616898197745        1.32818969458041
H           -3.33492289221365        4.63891258090547       -0.41929239664006
H           -4.64513133737724        4.97261967773533        0.70038907122842
H           -1.17932626877719        2.71733988948079        2.94326879942618

          :  Hamiltonian                  GFN2-xTB          :
         :: total energy             -99.306400619342 Eh    ::
         :: gradient norm              0.001206576844 Eh/a0 ::
         :: HOMO-LUMO gap              0.841682145649 eV    ::
         :: SCC energy              -100.656269898889 Eh    ::
         :: -> dispersion             -0.074346689121 Eh    ::
         :: repulsion energy           1.348605812865 Eh    ::

    * Orbital Energies and Occupations

         #    Occupation            Energy/Eh            Energy/eV
      -------------------------------------------------------------
         1        2.0000           -0.8233547             -22.4046
       ...           ...                  ...                  ...
        78        1.9989           -0.5327177             -14.4960
        79        1.9988           -0.5311633             -14.4537
        80        1.9986           -0.5281576             -14.3719
        81        1.9984           -0.5265501             -14.3282
        82        1.9975           -0.5195442             -14.1375
        83        1.9972           -0.5179537             -14.0942
        84        1.9971           -0.5171901             -14.0735
        85        1.9959           -0.5114766             -13.9180
        86        1.9797           -0.4861919             -13.2300
        87        1.9603           -0.4754005             -12.9363
        88        1.9304           -0.4662663             -12.6878
        89        1.8528           -0.4537511             -12.3472
        90        1.3752           -0.4261450             -11.5960 (HOMO)
        91        0.4757           -0.3952138             -10.7543 (LUMO)
        92        0.4184           -0.3925993             -10.6832
        93        0.0234           -0.3434253              -9.3451
        94        0.0029           -0.3101738              -8.4403
        95        0.0027           -0.3088982              -8.4055
        96        0.0025           -0.3077105              -8.3732
        97        0.0000           -0.2238564              -6.0914
        98        0.0000           -0.1852112              -5.0399
        99                         -0.1349220              -3.6714
       100                         -0.0756179              -2.0577
       101                         -0.0667628              -1.8167
       ...                                ...                  ...
       171                          0.5791664              15.7599
      -------------------------------------------------------------
                  HL-Gap            0.0309312 Eh            0.8417 eV

     #   Z          covCN         q      C6AA      α(0)
     1   7 N        1.774    -0.276    27.967     7.831
     2   6 C        2.825     0.097    25.840     8.329
     3   6 C        3.906     0.007    20.412     6.422
     4   6 C        2.962     0.007    27.872     8.660
     5   6 C        2.903    -0.076    29.898     8.966
     6   6 C        2.860     0.138    24.979     8.192
     7   8 O        1.706    -0.201    17.342     5.622
     8   6 C        3.644     0.023    20.526     6.512
     9   6 C        2.864     0.130    25.155     8.221
    10   8 O        1.705    -0.242    18.006     5.729
    11   6 C        3.659     0.027    20.402     6.482
    12   6 C        1.978    -0.153    35.391     9.607
    13   6 C        3.814    -0.054    21.529     6.604
    14   6 C        3.810    -0.066    21.761     6.640
    15   6 C        3.802    -0.068    21.794     6.647
    16   6 C        2.842     0.000    28.019     8.675
    17   7 N        2.728     0.005    21.180     6.835
    18   6 C        3.756    -0.015    20.904     6.519
    19   6 C        3.808    -0.070    21.840     6.653
    20   6 C        2.969    -0.001    28.047     8.687
    21   6 C        2.922    -0.049    29.222     8.865
    22   6 C        2.914    -0.068    29.689     8.935
    23   6 C        2.865     0.133    25.089     8.210
    24   8 O        1.706    -0.223    17.702     5.681
    25   6 C        3.645     0.025    20.481     6.504
    26   6 C        2.863     0.133    25.095     8.211
    27   8 O        1.706    -0.226    17.744     5.687
    28   6 C        3.645     0.027    20.447     6.499
    29   6 C        2.919    -0.080    29.997     8.981
    30   6 C        3.699    -0.068    21.973     6.704
    31   6 C        3.852    -0.006    20.652     6.464
    32   6 C        3.755    -0.120    22.862     6.818
    33   6 C        3.755    -0.117    22.803     6.809
    34   1 H        0.926     0.054     2.267     2.355
    35   1 H        0.924     0.060     2.198     2.319
    36   1 H        0.925     0.087     1.906     2.159
    37   1 H        0.924     0.056     2.252     2.347
    38   1 H        0.924     0.058     2.227     2.334
    39   1 H        0.925     0.076     2.026     2.226
    40   1 H        0.924     0.050     2.322     2.383
    41   1 H        0.923     0.104     1.746     2.067
    42   1 H        0.924     0.067     2.115     2.274
    43   1 H        0.925     0.057     2.237     2.339
    44   1 H        0.924     0.055     2.255     2.348
    45   1 H        0.925     0.062     2.172     2.305
    46   1 H        0.923     0.077     2.007     2.216
    47   1 H        0.922     0.004     2.984     2.702
    48   1 H        0.926     0.066     2.125     2.280
    49   1 H        0.924     0.066     2.129     2.282
    50   1 H        0.924     0.066     2.129     2.282
    51   1 H        0.924     0.054     2.270     2.356
    52   1 H        0.924     0.055     2.254     2.348
    53   1 H        0.926     0.044     2.392     2.419
    54   1 H        0.926     0.058     2.226     2.333
    55   1 H        0.924     0.054     2.276     2.359
    56   1 H        0.924     0.055     2.255     2.349
    57   1 H        0.925     0.082     1.961     2.190
    58   1 H        0.925     0.081     1.965     2.192
    59   1 H        0.924     0.048     2.343     2.394
    60   1 H        0.924     0.052     2.295     2.369
    61   1 H        0.926     0.047     2.364     2.404
    62   1 H        0.924     0.075     2.033     2.230
    63   1 H        0.924     0.079     1.993     2.207
    64   1 H        0.925     0.080     1.982     2.201
    65   1 H        0.924     0.035     2.515     2.480
    66   1 H        0.925     0.071     2.076     2.253
    67   1 H        0.925     0.033     2.540     2.492
    68   1 H        0.925     0.053     2.284     2.363
    69   1 H        0.925     0.058     2.223     2.332
    70   1 H        0.925     0.035     2.517     2.481
    71   1 H        0.925     0.056     2.252     2.347
    72   1 H        0.860     0.157     1.357     1.825

Wiberg/Mayer (AO) data.
largest (>0.10) Wiberg bond orders for each atom

     #   Z sym  total        # sym  WBO       # sym  WBO       # sym  WBO
 ---------------------------------------------------------------------------
     1   7 N    3.031 --     2 C    1.954    72 H    0.943
     2   6 C    3.922 --     1 N    1.954     3 C    0.994    47 H    0.901
     3   6 C    3.972 --     2 C    0.994     4 C    0.979    14 C    0.957
                            31 C    0.929
     4   6 C    3.732 --     5 C    1.565    13 C    1.008     3 C    0.979
     5   6 C    3.970 --     4 C    1.565     6 C    1.277    34 H    0.951
     6   6 C    3.695 --     5 C    1.277     7 O    1.155     9 C    1.126
     7   8 O    2.287 --     6 C    1.155     8 C    0.967
     8   6 C    3.922 --    36 H    0.976    35 H    0.973    37 H    0.972
                             7 O    0.967
     9   6 C    3.876 --    12 C    1.534     6 C    1.126    10 O    1.077
    10   8 O    2.223 --     9 C    1.077    11 C    0.977
    11   6 C    3.926 --    39 H    0.979    10 O    0.977    38 H    0.973
                            40 H    0.973
    12   6 C    2.862 --     9 C    1.534    13 C    1.072
    13   6 C    3.960 --    12 C    1.072     4 C    1.008    42 H    0.916
                            41 H    0.889
    14   6 C    3.966 --    15 C    0.985    44 H    0.971    43 H    0.970
                             3 C    0.957
    15   6 C    3.987 --    16 C    1.057    14 C    0.985    45 H    0.960
                            46 H    0.928
    16   6 C    3.562 --    17 N    1.383    15 C    1.057    48 H    0.957
    17   7 N    3.458 --    16 C    1.383    30 C    0.999    18 C    0.989
    18   6 C    3.956 --    17 N    0.989    50 H    0.968    19 C    0.967
                            49 H    0.964
    19   6 C    3.976 --    20 C    1.008    51 H    0.972    52 H    0.972
                            18 C    0.967
    20   6 C    3.946 --    21 C    1.411    29 C    1.379    19 C    1.008
    21   6 C    3.951 --    22 C    1.415    20 C    1.411    53 H    0.968
    22   6 C    3.961 --    21 C    1.415    23 C    1.385    54 H    0.963
    23   6 C    3.897 --    22 C    1.385    26 C    1.221    24 O    1.109
    24   8 O    2.255 --    23 C    1.109    25 C    0.976
    25   6 C    3.929 --    57 H    0.977    24 O    0.976    55 H    0.973
                            56 H    0.973
    26   6 C    3.901 --    29 C    1.397    23 C    1.221    27 O    1.102
    27   8 O    2.255 --    26 C    1.102    28 C    0.979
    28   6 C    3.933 --    27 O    0.979    58 H    0.977    59 H    0.974
                            60 H    0.973
    29   6 C    3.960 --    26 C    1.397    20 C    1.379    61 H    0.963
    30   6 C    3.959 --    17 N    0.999    64 H    0.977    62 H    0.966
                            63 H    0.965
    31   6 C    3.968 --    32 C    1.010    33 C    1.009    65 H    0.962
                             3 C    0.929
    32   6 C    3.983 --    31 C    1.010    67 H    0.983    68 H    0.981
                            66 H    0.974
    33   6 C    3.986 --    31 C    1.009    70 H    0.983    71 H    0.980
                            69 H    0.979
    34   1 H    0.990 --     5 C    0.951
    35   1 H    0.992 --     8 C    0.973
    36   1 H    0.991 --     8 C    0.976
    37   1 H    0.992 --     8 C    0.972
    38   1 H    0.992 --    11 C    0.973
    39   1 H    0.993 --    11 C    0.979
    40   1 H    0.992 --    11 C    0.973
    41   1 H    0.949 --    13 C    0.889
    42   1 H    0.969 --    13 C    0.916
    43   1 H    0.996 --    14 C    0.970
    44   1 H    0.995 --    14 C    0.971
    45   1 H    0.995 --    15 C    0.960
    46   1 H    0.967 --    15 C    0.928
    47   1 H    0.991 --     2 C    0.901
    48   1 H    0.995 --    16 C    0.957
    49   1 H    0.990 --    18 C    0.964
    50   1 H    0.995 --    18 C    0.968
    51   1 H    0.996 --    19 C    0.972
    52   1 H    0.996 --    19 C    0.972
    53   1 H    0.997 --    21 C    0.968
    54   1 H    0.995 --    22 C    0.963
    55   1 H    0.992 --    25 C    0.973
    56   1 H    0.992 --    25 C    0.973
    57   1 H    0.993 --    25 C    0.977
    58   1 H    0.993 --    28 C    0.977
    59   1 H    0.993 --    28 C    0.974
    60   1 H    0.993 --    28 C    0.973
    61   1 H    0.997 --    29 C    0.963
    62   1 H    0.984 --    30 C    0.966
    63   1 H    0.987 --    30 C    0.965
    64   1 H    0.993 --    30 C    0.977
    65   1 H    0.995 --    31 C    0.962
    66   1 H    0.992 --    32 C    0.974
    67   1 H    0.998 --    32 C    0.983
    68   1 H    0.995 --    32 C    0.981
    69   1 H    0.995 --    33 C    0.979
    70   1 H    0.998 --    33 C    0.983
    71   1 H    0.994 --    33 C    0.980
    72   1 H    0.972 --     1 N    0.943
 ---------------------------------------------------------------------------

molecular dipole:
                 x           y           z       tot (Debye)
 q only:        0.161       0.228      -0.866
   full:        0.346       0.456      -1.297       3.603

           -------------------------------------------------
          | TOTAL ENERGY              -99.306400619342 Eh   |
          | GRADIENT NORM               0.001206576844 Eh/α |
          | HOMO-LUMO GAP               0.841682145649 eV   |
           -------------------------------------------------

 * finished run on 2024/04/06 at 11:16:27.324
