   * xtb version 6.6.1 (8d0f1dd) compiled by 'conda@1efc2f54142f' on 2023-08-01
          program call               : xtb struc.xyz --opt loose --input .xc1 --gfn2

   ID    Z sym.   atoms
    1    6 C      1, 3, 5-7, 10, 11, 14
    2    7 N      2, 4, 9, 13
    3    8 O      8, 12
    4    1 H      15-25
constraining bond 2 16 to    2.6866700 Å, actual value:    2.0856233 Å

          :  Hamiltonian                  GFN2-xTB          :
 * total energy  :   -42.8903195 Eh     change       -0.6633627E-10 Eh
 * total energy  :   -45.2001906 Eh     change       -0.2309871E+01 Eh
 * total energy  :   -48.8549306 Eh     change       -0.3654740E+01 Eh
 * total energy  :   -19.6850412 Eh     change        0.2916989E+02 Eh
 * total energy  :   -47.8316529 Eh     change       -0.2814661E+02 Eh
 * total energy  :   -47.8902073 Eh     change       -0.5855448E-01 Eh
 * total energy  :   -48.0554907 Eh     change       -0.1652833E+00 Eh
 * total energy  :   -48.1977866 Eh     change       -0.1422960E+00 Eh
 * total energy  :   -48.5938157 Eh     change       -0.3960290E+00 Eh
 * total energy  :   -49.1239480 Eh     change       -0.5301323E+00 Eh
 * total energy  :   -49.6148165 Eh     change       -0.1549537E-03 Eh
 * total energy  :   -49.6149410 Eh     change       -0.1244298E-03 Eh
 * total energy  :   -49.6150247 Eh     change       -0.8375632E-04 Eh
 * total energy  :   -49.6151828 Eh     change       -0.1580750E-03 Eh
 * total energy  :   -49.6153213 Eh     change       -0.1385382E-03 Eh
 * total energy  :   -49.6154615 Eh     change       -0.1401678E-03 Eh
 * total energy  :   -49.6116516 Eh     change        0.3809890E-02 Eh
 * total energy  :   -49.6155785 Eh     change       -0.3926875E-02 Eh
 * total energy  :   -49.6156270 Eh     change       -0.4848865E-04 Eh
   *** GEOMETRY OPTIMIZATION CONVERGED AFTER 70 ITERATIONS ***

 final structure:
================
25
 xtb: 6.6.1 (8d0f1dd)
C            3.08112201425047        1.09057532024210        0.72092226694934
N            2.38292948858143        0.23303168865372       -0.29428887254478
C            2.63191430885207       -1.19110928124901       -0.21819505228509
N            1.46840421062834       -1.87862450467691       -0.11597074558876
C            0.41808168583718       -1.00283969596417       -0.09922189447607
C            0.91555685249440        0.27504840568112       -0.19459202051660
C            0.07784842805760        1.44823164540020       -0.20080722177373
O            0.46448318227789        2.58659141988869       -0.28948151339801
N           -1.26891154377625        1.09032321814074       -0.09027862920878
C           -2.24275727672220        2.17603101553641       -0.06210055328630
C           -1.80766823227385       -0.17378037488146        0.00257724707433
O           -2.98150868482765       -0.38374237238039        0.08918583878374
N           -0.88898690047076       -1.26491979639027       -0.00857893982759
C           -1.40948358582544       -2.61461311512656        0.09019709440422
H            4.13151059093114        0.88304534252580        0.82538764432017
H            2.54259293797457        0.44240303440685       -0.71604235964428
H            2.74620239278560        2.11358693966945        0.68381776870827
H            3.61436164090069       -1.61297632182487       -0.19905044756260
H           -1.69871907645118        3.11363436477752        0.01801391798607
H           -2.83673464182089        2.16668978315872       -0.97541248572205
H           -2.90942170199588        2.04481269169905        0.78830030800236
H           -1.02483563735565       -3.11049128620961        0.98126474707286
H           -1.15972839639599       -3.18912069199840       -0.80189073622443
H           -2.49355879468947       -2.53706780247321        0.16824720176243
H            1.40773825313551       -2.88648108500587       -0.07083094510592

          :  Hamiltonian                  GFN2-xTB          :
         :: total energy             -49.615626972194 Eh    ::
         :: gradient norm              0.003424485107 Eh/a0 ::
         :: HOMO-LUMO gap              0.407066518426 eV    ::
         :: SCC energy               -42.608069831502 Eh    ::
         :: -> dispersion             -0.023113495943 Eh    ::
         :: repulsion energy           1.551768488155 Eh    ::

    * Orbital Energies and Occupations

         #    Occupation            Energy/Eh            Energy/eV
      -------------------------------------------------------------
         1        2.0000           -0.9279719             -25.2514
       ...           ...                  ...                  ...
        25        2.0000           -0.6721234             -18.2894
        26        2.0000           -0.6647705             -18.0893
        27        2.0000           -0.6557782             -17.8446
        28        2.0000           -0.6379739             -17.3602
        29        2.0000           -0.6312628             -17.1775
        30        2.0000           -0.6271252             -17.0649
        31        2.0000           -0.6212065             -16.9039
        32        2.0000           -0.5954590             -16.2033
        33        1.9998           -0.5789128             -15.7530
        34        1.9987           -0.5652067             -15.3801
        35        1.9981           -0.5624036             -15.3038
        36        1.9968           -0.5580984             -15.1866
        37        1.4435           -0.5147848             -14.0080 (HOMO)
        38        0.5632           -0.4998254             -13.6009 (LUMO)
        39        0.0000           -0.4095319             -11.1439
        40        0.0000           -0.3796235             -10.3301
        41                         -0.2966349              -8.0718
        42                         -0.2457457              -6.6871
        43                         -0.2195763              -5.9750
        44                         -0.1790304              -4.8717
        45                         -0.1657813              -4.5111
        46                         -0.1482694              -4.0346
        47                         -0.1088905              -2.9631
        48                         -0.0679370              -1.8487
       ...                                ...                  ...
        67                          3.6384484              99.0072
      -------------------------------------------------------------
                  HL-Gap            0.0149594 Eh            0.4071 eV

     #   Z          covCN         q      C6AA      α(0)
     1   6 C        2.799    -0.135    31.447     9.187
     2   7 N        3.606     0.062    20.153     6.667
     3   6 C        2.962     0.002    27.976     8.676
     4   7 N        2.750    -0.048    22.175     6.994
     5   6 C        2.968     0.126    25.239     8.240
     6   6 C        3.054    -0.054    29.294     8.876
     7   6 C        2.764     0.273    22.387     7.749
     8   8 O        0.858    -0.375    21.188     6.171
     9   7 N        2.748    -0.087    22.935     7.113
    10   6 C        3.710    -0.063    21.851     6.680
    11   6 C        2.725     0.318    21.600     7.609
    12   8 O        0.859    -0.353    20.764     6.109
    13   7 N        2.740    -0.058    22.372     7.025
    14   6 C        3.696    -0.075    22.105     6.726
    15   1 H        0.926     0.095     1.836     2.119
    16   1 H        0.928     0.279     0.774     1.375
    17   1 H        0.926     0.119     1.622     1.992
    18   1 H        0.927     0.131     1.530     1.934
    19   1 H        0.925     0.113     1.668     2.020
    20   1 H        0.925     0.096     1.820     2.110
    21   1 H        0.925     0.100     1.785     2.090
    22   1 H        0.925     0.083     1.943     2.180
    23   1 H        0.925     0.083     1.950     2.184
    24   1 H        0.925     0.131     1.526     1.932
    25   1 H        0.860     0.238     0.931     1.511

Wiberg/Mayer (AO) data.
largest (>0.10) Wiberg bond orders for each atom

     #   Z sym  total        # sym  WBO       # sym  WBO       # sym  WBO
 ---------------------------------------------------------------------------
     1   6 C    2.928 --    15 H    0.969    17 H    0.961     2 N    0.848
     2   7 N    3.712 --     3 C    1.004     6 C    0.928    16 H    0.858
                             1 C    0.848
     3   6 C    3.423 --     4 N    1.273     2 N    1.004    18 H    0.954
     4   7 N    3.491 --     3 C    1.273     5 C    1.152    25 H    0.912
     5   6 C    3.953 --     6 C    1.393    13 N    1.242     4 N    1.152
     6   6 C    3.767 --     5 C    1.393     7 C    1.100     2 N    0.928
     7   6 C    3.962 --     8 O    1.690     6 C    1.100     9 N    1.084
     8   8 O    2.042 --     7 C    1.690     9 N    0.151
     9   7 N    3.559 --    11 C    1.140     7 C    1.084    10 C    0.966
                             8 O    0.151    12 O    0.147
    10   6 C    3.917 --    19 H    0.969    21 H    0.967     9 N    0.966
                            20 H    0.964
    11   6 C    3.960 --    12 O    1.726     9 N    1.140    13 N    1.005
    12   8 O    2.092 --    11 C    1.726     9 N    0.147    13 N    0.121
    13   7 N    3.559 --     5 C    1.242    11 C    1.005    14 C    0.974
                            12 O    0.121
    14   6 C    3.924 --    13 N    0.974    22 H    0.971    23 H    0.971
                            24 H    0.962
    15   1 H    0.984 --     1 C    0.969
    16   1 H    0.911 --     2 N    0.858
    17   1 H    0.977 --     1 C    0.961
    18   1 H    0.982 --     3 C    0.954
    19   1 H    0.987 --    10 C    0.969
    20   1 H    0.987 --    10 C    0.964
    21   1 H    0.988 --    10 C    0.967
    22   1 H    0.990 --    14 C    0.971
    23   1 H    0.990 --    14 C    0.971
    24   1 H    0.982 --    14 C    0.962
    25   1 H    0.942 --     4 N    0.912
 ---------------------------------------------------------------------------

molecular dipole:
                 x           y           z       tot (Debye)
 q only:        2.591      -2.218      -0.270
   full:        3.044      -2.577      -0.584      10.246

           -------------------------------------------------
          | TOTAL ENERGY              -49.615626972194 Eh   |
          | GRADIENT NORM               0.003424485107 Eh/α |
          | HOMO-LUMO GAP               0.407066518426 eV   |
           -------------------------------------------------

 * finished run on 2024/06/05 at 19:58:10.666
