   * xtb version 6.6.1 (8d0f1dd) compiled by 'conda@1efc2f54142f' on 2023-08-01
          program call               : xtb xtbopt.xyz --opt crude --input .xc2 --gfn2

   ID    Z sym.   atoms
    1    6 C      1, 3, 5-7, 10, 11, 14
    2    7 N      2, 4, 9, 13
    3    8 O      8, 12
    4    1 H      15-25
########################################################################
[WARNING] Please study the warnings concerning your input carefully
-1- readin_getIntValue: could not parse ''
########################################################################

          :  Hamiltonian                  GFN2-xTB          :
 * total energy  :   -41.0561573 Eh     change       -0.2188472E-11 Eh
 * total energy  :   -42.0637898 Eh     change       -0.1007633E+01 Eh
 * total energy  :   -42.0717641 Eh     change       -0.7974317E-02 Eh
 * total energy  :   -42.0740607 Eh     change       -0.2296508E-02 Eh
 * total energy  :   -42.0747490 Eh     change       -0.6883081E-03 Eh
 * total energy  :   -42.0749225 Eh     change       -0.1735702E-03 Eh
   *** GEOMETRY OPTIMIZATION CONVERGED AFTER 6 ITERATIONS ***

 final structure:
================
25
 xtb: 6.6.1 (8d0f1dd)
C            3.15680643535403        1.15603156342702        0.62936394928803
N            2.35429466869206        0.19065205697093       -0.11214179674137
C            2.61746722796442       -1.20069152503489       -0.13532082393066
N            1.44320843185651       -1.90154229666358       -0.08911062544167
C            0.40078129817670       -1.02735267028297       -0.05487479648159
C            0.90791991397436        0.25462640234927       -0.07233915513946
C            0.07195971540603        1.42830436436360       -0.10983555344684
O            0.47224080058547        2.56432995850580       -0.19645832861928
N           -1.27681383903571        1.07896050583730       -0.05626014711802
C           -2.24822081661415        2.16718582691614       -0.05762449359027
C           -1.82268037428890       -0.18674478497161        0.00493178926161
O           -3.00065337121214       -0.38719954765636        0.06376986786395
N           -0.91358948152992       -1.27968668636146       -0.01869944314531
C           -1.44096187187976       -2.62909460844957        0.04978364333065
H            4.19865016834068        0.92188575964909        0.74028794882019
H            2.67567577031278        0.61594494214180       -1.01626258249553
H            2.81927281112076        2.17432100820176        0.55799051455330
H            3.59080836012213       -1.63253328796534       -0.04133857150042
H           -1.70241958692370        3.10401612435872        0.01907151240098
H           -2.82744777430461        2.14666782577362       -0.98011715080725
H           -2.92880820356829        2.04975417179140        0.78368284150344
H           -1.07062962051435       -3.13821609543257        0.94013925999872
H           -1.17762326808159       -3.19231687052512       -0.84565427651329
H           -2.52592274043711       -2.54976737166836        0.11207000266759
H            1.38711686058593       -2.90929622367501       -0.08388196681872

          :  Hamiltonian                  GFN2-xTB          :
         :: total energy             -42.074922536164 Eh    ::
         :: gradient norm              0.005264050748 Eh/a0 ::
         :: HOMO-LUMO gap              0.889630949297 eV    ::
         :: SCC energy               -42.582131453043 Eh    ::
         :: -> dispersion             -0.023043445246 Eh    ::
         :: repulsion energy           0.507073991994 Eh    ::

    * Orbital Energies and Occupations

         #    Occupation            Energy/Eh            Energy/eV
      -------------------------------------------------------------
         1        2.0000           -0.9164899             -24.9390
       ...           ...                  ...                  ...
        25        2.0000           -0.6653970             -18.1064
        26        2.0000           -0.6611375             -17.9905
        27        2.0000           -0.6520411             -17.7429
        28        2.0000           -0.6388772             -17.3847
        29        2.0000           -0.6274834             -17.0747
        30        2.0000           -0.6229560             -16.9515
        31        2.0000           -0.6159992             -16.7622
        32        2.0000           -0.5925947             -16.1253
        33        1.9999           -0.5740763             -15.6214
        34        1.9992           -0.5600525             -15.2398
        35        1.9990           -0.5583769             -15.1942
        36        1.9984           -0.5545248             -15.0894
        37        1.7766           -0.5146618             -14.0047 (HOMO)
        38        0.2269           -0.4819685             -13.1150 (LUMO)
        39        0.0000           -0.4031690             -10.9708
        40        0.0000           -0.3754279             -10.2159
        41                         -0.2918855              -7.9426
        42                         -0.2407684              -6.5516
        43                         -0.2090201              -5.6877
        44                         -0.1565083              -4.2588
        45                         -0.1507162              -4.1012
        46                         -0.1444187              -3.9298
        47                         -0.1234578              -3.3595
        48                         -0.0688078              -1.8724
       ...                                ...                  ...
        67                          0.5617917              15.2871
      -------------------------------------------------------------
                  HL-Gap            0.0326933 Eh            0.8896 eV

     #   Z          covCN         q      C6AA      α(0)
     1   6 C        2.767    -0.131    31.320     9.165
     2   7 N        3.619     0.104    19.440     6.548
     3   6 C        2.956    -0.011    28.285     8.723
     4   7 N        2.756    -0.060    22.400     7.029
     5   6 C        2.975     0.126    25.242     8.241
     6   6 C        3.050    -0.059    29.422     8.896
     7   6 C        2.765     0.271    22.429     7.756
     8   8 O        0.858    -0.387    21.415     6.204
     9   7 N        2.747    -0.088    22.959     7.116
    10   6 C        3.710    -0.062    21.829     6.677
    11   6 C        2.725     0.318    21.601     7.609
    12   8 O        0.859    -0.357    20.841     6.121
    13   7 N        2.740    -0.061    22.427     7.034
    14   6 C        3.696    -0.073    22.070     6.720
    15   1 H        0.926     0.099     1.798     2.097
    16   1 H        0.860     0.299     0.715     1.325
    17   1 H        0.926     0.124     1.584     1.968
    18   1 H        0.927     0.121     1.602     1.979
    19   1 H        0.925     0.111     1.685     2.030
    20   1 H        0.925     0.094     1.844     2.124
    21   1 H        0.925     0.098     1.800     2.098
    22   1 H        0.924     0.082     1.962     2.191
    23   1 H        0.925     0.081     1.966     2.193
    24   1 H        0.925     0.129     1.541     1.941
    25   1 H        0.860     0.232     0.957     1.533

Wiberg/Mayer (AO) data.
largest (>0.10) Wiberg bond orders for each atom

     #   Z sym  total        # sym  WBO       # sym  WBO       # sym  WBO
 ---------------------------------------------------------------------------
     1   6 C    3.373 --    15 H    0.970    17 H    0.963     2 N    0.913
                             3 C    0.278
     2   7 N    3.771 --     3 C    1.047     6 C    0.957     1 C    0.913
                            16 H    0.784
     3   6 C    3.630 --     4 N    1.223     2 N    1.047    18 H    0.956
                             1 C    0.278
     4   7 N    3.540 --     3 C    1.223     5 C    1.179    25 H    0.917
     5   6 C    3.959 --     6 C    1.373    13 N    1.232     4 N    1.179
     6   6 C    3.817 --     5 C    1.373     7 C    1.099     2 N    0.957
     7   6 C    3.964 --     8 O    1.681     6 C    1.099     9 N    1.094
     8   8 O    2.040 --     7 C    1.681     9 N    0.150
     9   7 N    3.565 --    11 C    1.133     7 C    1.094    10 C    0.966
                             8 O    0.150    12 O    0.144
    10   6 C    3.920 --    19 H    0.970    21 H    0.968    20 H    0.967
                             9 N    0.966
    11   6 C    3.960 --    12 O    1.722     9 N    1.133    13 N    1.015
    12   8 O    2.087 --    11 C    1.722     9 N    0.144    13 N    0.122
    13   7 N    3.560 --     5 C    1.232    11 C    1.015    14 C    0.974
                            12 O    0.122
    14   6 C    3.925 --    13 N    0.974    22 H    0.972    23 H    0.972
                            24 H    0.963
    15   1 H    0.988 --     1 C    0.970
    16   1 H    0.882 --     2 N    0.784
    17   1 H    0.982 --     1 C    0.963
    18   1 H    0.984 --     3 C    0.956
    19   1 H    0.987 --    10 C    0.970
    20   1 H    0.989 --    10 C    0.967
    21   1 H    0.988 --    10 C    0.968
    22   1 H    0.991 --    14 C    0.972
    23   1 H    0.991 --    14 C    0.972
    24   1 H    0.983 --    14 C    0.963
    25   1 H    0.945 --     4 N    0.917
 ---------------------------------------------------------------------------

molecular dipole:
                 x           y           z       tot (Debye)
 q only:        2.881      -2.000      -0.445
   full:        3.300      -2.364      -0.736      10.486

           -------------------------------------------------
          | TOTAL ENERGY              -42.074922536164 Eh   |
          | GRADIENT NORM               0.005264050748 Eh/α |
          | HOMO-LUMO GAP               0.889630949297 eV   |
           -------------------------------------------------

 * finished run on 2024/06/05 at 19:58:10.960
