   * xtb version 6.6.1 (8d0f1dd) compiled by 'conda@1efc2f54142f' on 2023-08-01
          program call               : xtb xtbopt.xyz --opt crude --input .xc2 --gfn2

   ID    Z sym.   atoms
    1    6 C      1, 3, 5-7, 10, 11, 14
    2    7 N      2, 4, 9, 13
    3    8 O      8, 12
    4    1 H      15-25
########################################################################
[WARNING] Please study the warnings concerning your input carefully
-1- readin_getIntValue: could not parse ''
########################################################################

          :  Hamiltonian                  GFN2-xTB          :
 * total energy  :   -42.0359455 Eh     change       -0.1433307E-09 Eh
 * total energy  :   -42.0471851 Eh     change       -0.1123961E-01 Eh
 * total energy  :   -42.0543483 Eh     change       -0.7163157E-02 Eh
 * total energy  :   -42.0555942 Eh     change       -0.1245897E-02 Eh
 * total energy  :   -42.0561412 Eh     change       -0.5470445E-03 Eh
 * total energy  :   -42.0563573 Eh     change       -0.2160877E-03 Eh
   *** GEOMETRY OPTIMIZATION CONVERGED AFTER 6 ITERATIONS ***

 final structure:
================
25
 xtb: 6.6.1 (8d0f1dd)
C            2.53094237601887        1.04798824674631        0.58587425747125
N            1.72926346577423       -0.02997731188940        0.03054936165901
C            2.38190104473648       -1.12437853102728       -0.31966616441802
N            1.83673948943619       -2.31907123337308       -0.68953320260259
C            0.65480869976329       -2.82275882987095       -0.32211933392162
C            0.38166032152258        0.21273683517620       -0.13460671801600
C           -0.11741158000978        1.62761805955776       -0.23134423879956
O            0.61707419316307        2.56796646251889       -0.54700742577821
N           -1.40046584105403        1.74562637527343        0.04593922652246
C           -2.20702969760393        2.86196689806067       -0.11385221139560
C           -0.65635710753835       -0.74015822693326       -0.33896778997751
O           -1.77826148313428       -0.48516745026551       -0.70260271645523
N           -0.39814747176533       -2.16387008444127        0.00817216357639
C           -1.57592459527151       -2.85450118455335        0.49348698131497
H            2.21005260319566        1.25073632931010        1.60889294969223
H            3.58542842893682        0.78850779530191        0.58135715731935
H            2.37221487827673        1.96147694064231        0.00327516904594
H            3.46076911411139       -1.09945652064447       -0.25473832955796
H           -1.64434650694762        3.74095446777840       -0.45832528559457
H           -2.98863801004189        2.63118135463032       -0.84762945744558
H           -2.70564791843783        3.07807452297829        0.83708699113455
H           -1.34731681780117       -3.90820439940441        0.61994606044328
H           -2.39211260643253       -2.72531951945116       -0.21935110763314
H           -1.88401251978949       -2.41826043542252        1.44400815335153
H            2.49524905499196       -3.00547201909881       -1.04767287203554

          :  Hamiltonian                  GFN2-xTB          :
         :: total energy             -42.056357306228 Eh    ::
         :: gradient norm              0.005987285156 Eh/a0 ::
         :: HOMO-LUMO gap              0.462210920516 eV    ::
         :: SCC energy               -42.565364429165 Eh    ::
         :: -> dispersion             -0.021874343603 Eh    ::
         :: repulsion energy           0.508859791722 Eh    ::

    * Orbital Energies and Occupations

         #    Occupation            Energy/Eh            Energy/eV
      -------------------------------------------------------------
         1        2.0000           -0.8832658             -24.0349
       ...           ...                  ...                  ...
        25        1.9999           -0.6602899             -17.9674
        26        1.9998           -0.6535930             -17.7852
        27        1.9996           -0.6414598             -17.4550
        28        1.9992           -0.6293962             -17.1267
        29        1.9988           -0.6229875             -16.9524
        30        1.9988           -0.6222149             -16.9313
        31        1.9983           -0.6169791             -16.7889
        32        1.9934           -0.5956268             -16.2078
        33        1.9925           -0.5934660             -16.1490
        34        1.9201           -0.5555001             -15.1159
        35        1.8567           -0.5457219             -14.8498
        36        1.6704           -0.5308536             -14.4453
        37        1.4677           -0.5212162             -14.1830 (HOMO)
        38        0.9707           -0.5042303             -13.7208 (LUMO)
        39        0.1324           -0.4632466             -12.6056
        40        0.0014           -0.3903645             -10.6224
        41        0.0004           -0.3703051             -10.0765
        42        0.0000           -0.3008854              -8.1875
        43                         -0.1930631              -5.2535
        44                         -0.1840836              -5.0092
        45                         -0.1321485              -3.5959
        46                         -0.1161920              -3.1617
        47                         -0.0653178              -1.7774
        48                         -0.0390022              -1.0613
       ...                                ...                  ...
        67                          0.5027329              13.6801
      -------------------------------------------------------------
                  HL-Gap            0.0169859 Eh            0.4622 eV

     #   Z          covCN         q      C6AA      α(0)
     1   6 C        3.722    -0.097    22.471     6.770
     2   7 N        2.731     0.089    19.703     6.593
     3   6 C        2.800     0.058    26.693     8.464
     4   7 N        2.687    -0.045    22.116     6.985
     5   6 C        1.863    -0.002    31.195     9.022
     6   6 C        2.908    -0.031    28.761     8.794
     7   6 C        2.766     0.281    22.235     7.722
     8   8 O        0.858    -0.383    21.343     6.194
     9   7 N        1.834    -0.141    24.827     7.384
    10   6 C        3.691    -0.036    21.400     6.620
    11   6 C        2.767     0.256    22.692     7.801
    12   8 O        0.859    -0.298    19.745     5.958
    13   7 N        2.731     0.017    20.958     6.799
    14   6 C        3.712    -0.073    22.036     6.708
    15   1 H        0.924     0.108     1.713     2.047
    16   1 H        0.925     0.094     1.836     2.119
    17   1 H        0.924     0.156     1.355     1.820
    18   1 H        0.926     0.109     1.704     2.041
    19   1 H        0.923     0.120     1.611     1.985
    20   1 H        0.924     0.131     1.524     1.931
    21   1 H        0.924     0.119     1.622     1.991
    22   1 H        0.925     0.105     1.738     2.062
    23   1 H        0.924     0.121     1.602     1.979
    24   1 H        0.924     0.100     1.788     2.091
    25   1 H        0.860     0.240     0.924     1.506

Wiberg/Mayer (AO) data.
largest (>0.10) Wiberg bond orders for each atom

     #   Z sym  total        # sym  WBO       # sym  WBO       # sym  WBO
 ---------------------------------------------------------------------------
     1   6 C    3.895 --     2 N    0.977    16 H    0.973    15 H    0.956
                            17 H    0.918
     2   7 N    3.665 --     3 C    1.393     6 C    1.153     1 C    0.977
     3   6 C    3.781 --     2 N    1.393     4 N    1.196    18 H    0.944
     4   7 N    3.525 --     5 C    1.260     3 C    1.196    25 H    0.910
     5   6 C    3.046 --    13 N    1.548     4 N    1.260
     6   6 C    3.630 --    11 C    1.194     2 N    1.153     7 C    0.983
     7   6 C    3.918 --     8 O    1.523     9 N    1.329     6 C    0.983
     8   8 O    1.781 --     7 C    1.523     9 N    0.111
     9   7 N    2.644 --     7 C    1.329    10 C    1.117     8 O    0.111
    10   6 C    3.858 --     9 N    1.117    21 H    0.913    19 H    0.899
                            20 H    0.893
    11   6 C    3.884 --    12 O    1.721     6 C    1.194    13 N    0.858
    12   8 O    2.038 --    11 C    1.721
    13   7 N    3.553 --     5 C    1.548    14 C    0.975    11 C    0.858
    14   6 C    3.908 --    13 N    0.975    22 H    0.973    24 H    0.960
                            23 H    0.948
    15   1 H    0.982 --     1 C    0.956
    16   1 H    0.989 --     1 C    0.973
    17   1 H    0.969 --     1 C    0.918
    18   1 H    0.985 --     3 C    0.944
    19   1 H    0.903 --    10 C    0.899
    20   1 H    0.917 --    10 C    0.893
    21   1 H    0.933 --    10 C    0.913
    22   1 H    0.986 --    14 C    0.973
    23   1 H    0.975 --    14 C    0.948
    24   1 H    0.983 --    14 C    0.960
    25   1 H    0.937 --     4 N    0.910
 ---------------------------------------------------------------------------

molecular dipole:
                 x           y           z       tot (Debye)
 q only:        1.543      -1.810       0.487
   full:        1.857      -1.741       0.424       6.558

           -------------------------------------------------
          | TOTAL ENERGY              -42.056357306228 Eh   |
          | GRADIENT NORM               0.005987285156 Eh/α |
          | HOMO-LUMO GAP               0.462210920516 eV   |
           -------------------------------------------------

 * finished run on 2024/06/05 at 20:00:13.627
