   * xtb version 6.6.1 (8d0f1dd) compiled by 'conda@1efc2f54142f' on 2023-08-01
          program call               : xtb struc.xyz --opt loose --input .xc1 --gfn2

   ID    Z sym.   atoms
    1    6 C      1, 3, 5-7, 10, 11, 14
    2    7 N      2, 4, 9, 13
    3    8 O      8, 12
    4    1 H      15-25
constraining bond 5 25 to    2.7133300 Å, actual value:    2.1289605 Å

          :  Hamiltonian                  GFN2-xTB          :
 * total energy  :   -42.8575958 Eh     change       -0.6650680E-10 Eh
 * total energy  :   -45.0222703 Eh     change       -0.2164675E+01 Eh
 * total energy  :   -48.3269536 Eh     change       -0.3304683E+01 Eh
 * total energy  :   -34.4297658 Eh     change        0.1389719E+02 Eh
 * total energy  :   -49.5261230 Eh     change       -0.1509636E+02 Eh
 * total energy  :   -49.5197068 Eh     change        0.6416205E-02 Eh
 * total energy  :   -49.6294943 Eh     change       -0.1097876E+00 Eh
 * total energy  :   -49.6570082 Eh     change       -0.2751386E-01 Eh
 * total energy  :   -49.6849637 Eh     change       -0.2795553E-01 Eh
 * total energy  :   -49.6927178 Eh     change       -0.7754012E-02 Eh
 * total energy  :   -49.8907748 Eh     change       -0.6201665E-04 Eh
 * total energy  :   -49.8908455 Eh     change       -0.7070266E-04 Eh
 * total energy  :   -49.8908960 Eh     change       -0.5045555E-04 Eh
 * total energy  :   -49.8909282 Eh     change       -0.3226002E-04 Eh
 * total energy  :   -49.8909450 Eh     change       -0.1676539E-04 Eh
 * total energy  :   -49.8909626 Eh     change       -0.1755282E-04 Eh
 * total energy  :   -49.8908234 Eh     change        0.1392017E-03 Eh
 * total energy  :   -49.8909915 Eh     change       -0.1681118E-03 Eh
 * total energy  :   -49.8910079 Eh     change       -0.1645440E-04 Eh
   *** GEOMETRY OPTIMIZATION CONVERGED AFTER 96 ITERATIONS ***

 final structure:
================
25
 xtb: 6.6.1 (8d0f1dd)
C            3.15676228987570        1.02965173405679        0.28822499590330
N            2.21126445197846        0.00691154099910       -0.03800297434345
C            2.44225707006690       -1.36418028255261        0.04206578252722
N            1.44362273674997       -2.08089126988169       -0.26841187283515
C            0.37179419638656       -1.19935408280452       -0.78437126156036
C            0.95106630033759        0.17102540782698       -0.44002697320437
C            0.11026211341389        1.34633544182242       -0.31444878660552
O            0.52150557872471        2.48536785465194       -0.26935356436432
N           -1.23053214840287        1.01382697742173       -0.19534571540482
C           -2.18704350464156        2.09701470249321       -0.09114701717075
C           -1.73336317679500       -0.25982505610729        0.13913245877049
O           -2.86404398900800       -0.38028668009429        0.53153868847276
N           -0.87823354925831       -1.32531443521947        0.02766929413607
C           -1.34735867332949       -2.65869149931969        0.29660369166625
H            3.73795978955791        0.73227648553776        1.16102203857671
H            3.84292105599796        1.18299125988505       -0.54903296307796
H            2.63370501538517        1.96829835104266        0.47555043542773
H            3.38698584256760       -1.75974033434542        0.36922735339465
H           -1.69864524574834        3.02145825696421       -0.39218348205884
H           -3.04231037694435        1.88217073300979       -0.73332647561613
H           -2.55663341067065        2.18864677502916        0.93291701660690
H           -0.56510333934068       -3.20996841762523        0.81979886700372
H           -1.58228796356311       -3.18745119561940       -0.63143084134404
H           -2.24725139951185       -2.59208003981171        0.90590582524990
H            0.28313185027307       -1.28995368576098       -1.25140290224988

          :  Hamiltonian                  GFN2-xTB          :
         :: total energy             -49.891007925712 Eh    ::
         :: gradient norm              0.003639048922 Eh/a0 ::
         :: HOMO-LUMO gap              1.380117904520 eV    ::
         :: SCC energy               -42.688067521898 Eh    ::
         :: -> dispersion             -0.022635020275 Eh    ::
         :: repulsion energy           1.671395201459 Eh    ::

    * Orbital Energies and Occupations

         #    Occupation            Energy/Eh            Energy/eV
      -------------------------------------------------------------
         1        2.0000           -0.9174722             -24.9657
       ...           ...                  ...                  ...
        25        1.9997           -0.6770832             -18.4244
        26        1.9993           -0.6624160             -18.0253
        27        1.9992           -0.6602476             -17.9663
        28        1.9988           -0.6542151             -17.8021
        29        1.9981           -0.6471230             -17.6091
        30        1.9953           -0.6323655             -17.2075
        31        1.9931           -0.6264947             -17.0478
        32        1.9903           -0.6210745             -16.9003
        33        1.9699           -0.6029019             -16.4058
        34        1.9421           -0.5923302             -16.1181
        35        1.9273           -0.5885974             -16.0165
        36        1.9064           -0.5844376             -15.9034
        37        1.7813           -0.5699203             -15.5083 (HOMO)
        38        0.4974           -0.5192019             -14.1282 (LUMO)
        39        0.0020           -0.4270936             -11.6218
        40        0.0002           -0.3942066             -10.7269
        41        0.0000           -0.3477008              -9.4614
        42                         -0.2178288              -5.9274
        43                         -0.1996918              -5.4339
        44                         -0.1837626              -5.0004
        45                         -0.1731432              -4.7115
        46                         -0.1226929              -3.3386
        47                         -0.0850167              -2.3134
        48                         -0.0464304              -1.2634
       ...                                ...                  ...
        67                          6.7054864             182.4656
      -------------------------------------------------------------
                  HL-Gap            0.0507184 Eh            1.3801 eV

     #   Z          covCN         q      C6AA      α(0)
     1   6 C        3.690    -0.087    22.354     6.766
     2   7 N        2.774     0.064    20.120     6.662
     3   6 C        3.002     0.114    25.477     8.280
     4   7 N        1.868    -0.198    26.122     7.576
     5   6 C        3.847     0.068    19.416     6.268
     6   6 C        3.062     0.019    27.520     8.603
     7   6 C        2.762     0.269    22.464     7.762
     8   8 O        0.858    -0.333    20.384     6.053
     9   7 N        2.745    -0.077    22.728     7.081
    10   6 C        3.707    -0.061    21.819     6.677
    11   6 C        2.709     0.319    21.586     7.605
    12   8 O        0.860    -0.333    20.377     6.052
    13   7 N        2.736    -0.086    22.906     7.108
    14   6 C        3.695    -0.068    21.980     6.707
    15   1 H        0.925     0.114     1.665     2.018
    16   1 H        0.924     0.125     1.573     1.962
    17   1 H        0.924     0.132     1.521     1.929
    18   1 H        0.926     0.126     1.564     1.956
    19   1 H        0.925     0.120     1.617     1.988
    20   1 H        0.924     0.118     1.629     1.996
    21   1 H        0.924     0.118     1.631     1.997
    22   1 H        0.924     0.114     1.662     2.016
    23   1 H        0.924     0.110     1.697     2.037
    24   1 H        0.925     0.128     1.553     1.949
    25   1 H        0.939     0.184     1.180     1.699

Wiberg/Mayer (AO) data.
largest (>0.10) Wiberg bond orders for each atom

     #   Z sym  total        # sym  WBO       # sym  WBO       # sym  WBO
 ---------------------------------------------------------------------------
     1   6 C    3.907 --     2 N    0.999    15 H    0.958    17 H    0.954
                            16 H    0.934
     2   7 N    3.602 --     6 C    1.365     3 C    1.104     1 C    0.999
     3   6 C    3.910 --     4 N    1.766     2 N    1.104    18 H    0.944
     4   7 N    2.932 --     3 C    1.766     5 C    0.992
     5   6 C    3.929 --     6 C    0.992     4 N    0.992    13 N    0.919
                            25 H    0.907
     6   6 C    3.665 --     2 N    1.365     7 C    1.063     5 C    0.992
     7   6 C    3.931 --     8 O    1.666     9 N    1.116     6 C    1.063
     8   8 O    1.958 --     7 C    1.666     9 N    0.142
     9   7 N    3.456 --     7 C    1.116    11 C    1.044    10 C    0.985
                             8 O    0.142
    10   6 C    3.872 --     9 N    0.985    19 H    0.962    20 H    0.942
                            21 H    0.936
    11   6 C    3.955 --    12 O    1.677    13 N    1.155     9 N    1.044
    12   8 O    1.990 --    11 C    1.677    13 N    0.137
    13   7 N    3.305 --    11 C    1.155    14 C    0.997     5 C    0.919
                            12 O    0.137
    14   6 C    3.876 --    13 N    0.997    24 H    0.954    22 H    0.948
                            23 H    0.935
    15   1 H    0.980 --     1 C    0.958
    16   1 H    0.969 --     1 C    0.934
    17   1 H    0.978 --     1 C    0.954
    18   1 H    0.981 --     3 C    0.944
    19   1 H    0.979 --    10 C    0.962
    20   1 H    0.960 --    10 C    0.942
    21   1 H    0.955 --    10 C    0.936
    22   1 H    0.963 --    14 C    0.948
    23   1 H    0.949 --    14 C    0.935
    24   1 H    0.976 --    14 C    0.954
    25   1 H    0.950 --     5 C    0.907
 ---------------------------------------------------------------------------

molecular dipole:
                 x           y           z       tot (Debye)
 q only:        1.696      -0.793      -0.193
   full:        1.967      -0.660      -0.318       5.336

           -------------------------------------------------
          | TOTAL ENERGY              -49.891007925712 Eh   |
          | GRADIENT NORM               0.003639048922 Eh/α |
          | HOMO-LUMO GAP               1.380117904520 eV   |
           -------------------------------------------------

 * finished run on 2024/06/05 at 19:59:26.768
