   * xtb version 6.6.1 (8d0f1dd) compiled by 'conda@1efc2f54142f' on 2023-08-01
          program call               : xtb xtbopt.xyz --opt crude --input .xc2 --gfn2

   ID    Z sym.   atoms
    1    6 C      1, 3, 5-7, 10, 11, 14
    2    7 N      2, 4, 9, 13
    3    8 O      8, 12
    4    1 H      15-25
########################################################################
[WARNING] Please study the warnings concerning your input carefully
-1- readin_getIntValue: could not parse ''
########################################################################

          :  Hamiltonian                  GFN2-xTB          :
 * total energy  :   -41.0165100 Eh     change       -0.1421085E-13 Eh
 * total energy  :   -42.1678732 Eh     change       -0.1151363E+01 Eh
 * total energy  :   -42.1766330 Eh     change       -0.8759785E-02 Eh
 * total energy  :   -42.1796155 Eh     change       -0.2982489E-02 Eh
 * total energy  :   -42.1803147 Eh     change       -0.6992100E-03 Eh
 * total energy  :   -42.1810485 Eh     change       -0.7338489E-03 Eh
 * total energy  :   -42.1815131 Eh     change       -0.4645358E-03 Eh
 * total energy  :   -42.1818127 Eh     change       -0.2996636E-03 Eh
 * total energy  :   -42.1819739 Eh     change       -0.1611565E-03 Eh
   *** GEOMETRY OPTIMIZATION CONVERGED AFTER 9 ITERATIONS ***

 final structure:
================
25
 xtb: 6.6.1 (8d0f1dd)
C            3.18341065673048        1.04746175193900        0.27242192948300
N            2.22710604072296        0.02072458983327       -0.00660721678522
C            2.45784187992549       -1.35239151320527        0.08600515102402
N            1.44663592118664       -2.06950454964443       -0.18999524259975
C            0.39015396387755       -1.18265096291289       -0.60329967510458
C            0.95761353073964        0.17710909651758       -0.37635815242019
C            0.11160008558548        1.34963570630214       -0.27666202959319
O            0.51537244353215        2.49303101880072       -0.25954574941046
N           -1.22761011976365        1.01287958992038       -0.15483193265108
C           -2.19065226479801        2.09263387283630       -0.07741640955658
C           -1.73485280736191       -0.26398097450376        0.15884534906726
O           -2.87736224341037       -0.38573970551596        0.51632182847882
N           -0.87577896759944       -1.33075588671692        0.06631849916684
C           -1.37123894953417       -2.66489825200342        0.29165759227843
H            3.74874034954949        0.79513348556579        1.16974227661172
H            3.88371910182491        1.14030163319335       -0.56225724689959
H            2.66995167853608        2.00158433318720        0.39908419268661
H            3.41250546103795       -1.74560044368935        0.38607677012838
H           -1.70671275810477        3.01204918641084       -0.40007420277849
H           -3.04456006472171        1.85695044177621       -0.71368683757826
H           -2.56047156970519        2.20784373154397        0.94410498469479
H           -0.60832200058882       -3.24257346584515        0.81332075475811
H           -1.59797739090990       -3.16510541070151       -0.65404987493510
H           -2.28056214338140       -2.59789869249672        0.88635850285626
H            0.23188168073179       -1.38800003899287       -1.68430164302169

          :  Hamiltonian                  GFN2-xTB          :
         :: total energy             -42.181973894279 Eh    ::
         :: gradient norm              0.005496052677 Eh/a0 ::
         :: HOMO-LUMO gap              1.445136825355 eV    ::
         :: SCC energy               -42.681916315356 Eh    ::
         :: -> dispersion             -0.022573076559 Eh    ::
         :: repulsion energy           0.499779059545 Eh    ::

    * Orbital Energies and Occupations

         #    Occupation            Energy/Eh            Energy/eV
      -------------------------------------------------------------
         1        2.0000           -0.9098866             -24.7593
       ...           ...                  ...                  ...
        25        1.9997           -0.6747943             -18.3621
        26        1.9994           -0.6617877             -18.0082
        27        1.9991           -0.6569808             -17.8774
        28        1.9988           -0.6513431             -17.7239
        29        1.9982           -0.6454600             -17.5639
        30        1.9953           -0.6301747             -17.1479
        31        1.9936           -0.6252822             -17.0148
        32        1.9909           -0.6196902             -16.8626
        33        1.9707           -0.6010643             -16.3558
        34        1.9462           -0.5912266             -16.0881
        35        1.9284           -0.5865547             -15.9610
        36        1.9089           -0.5825903             -15.8531
        37        1.7969           -0.5689376             -15.4816 (HOMO)
        38        0.4723           -0.5158298             -14.0364 (LUMO)
        39        0.0020           -0.4247021             -11.5567
        40        0.0002           -0.3910960             -10.6423
        41        0.0000           -0.3450555              -9.3894
        42                         -0.2015234              -5.4837
        43                         -0.1760338              -4.7901
        44                         -0.1574817              -4.2853
        45                         -0.1526481              -4.1538
        46                         -0.0786743              -2.1408
        47                         -0.0770704              -2.0972
        48                         -0.0468512              -1.2749
       ...                                ...                  ...
        67                          0.5099043              13.8752
      -------------------------------------------------------------
                  HL-Gap            0.0531078 Eh            1.4451 eV

     #   Z          covCN         q      C6AA      α(0)
     1   6 C        3.690    -0.087    22.354     6.766
     2   7 N        2.788     0.066    20.086     6.656
     3   6 C        3.059     0.111    25.499     8.281
     4   7 N        1.868    -0.185    25.825     7.533
     5   6 C        3.924     0.109    18.745     6.153
     6   6 C        3.065     0.022    27.459     8.593
     7   6 C        2.762     0.269    22.463     7.762
     8   8 O        0.858    -0.336    20.437     6.061
     9   7 N        2.745    -0.076    22.725     7.080
    10   6 C        3.707    -0.061    21.816     6.677
    11   6 C        2.714     0.317    21.615     7.610
    12   8 O        0.860    -0.334    20.406     6.057
    13   7 N        2.737    -0.070    22.589     7.059
    14   6 C        3.698    -0.070    22.009     6.710
    15   1 H        0.925     0.114     1.662     2.016
    16   1 H        0.924     0.123     1.590     1.972
    17   1 H        0.924     0.132     1.523     1.930
    18   1 H        0.926     0.126     1.566     1.957
    19   1 H        0.925     0.119     1.620     1.990
    20   1 H        0.924     0.117     1.636     2.000
    21   1 H        0.924     0.117     1.638     2.002
    22   1 H        0.925     0.113     1.667     2.019
    23   1 H        0.924     0.106     1.731     2.057
    24   1 H        0.925     0.127     1.557     1.951
    25   1 H        0.921     0.130     1.533     1.936

Wiberg/Mayer (AO) data.
largest (>0.10) Wiberg bond orders for each atom

     #   Z sym  total        # sym  WBO       # sym  WBO       # sym  WBO
 ---------------------------------------------------------------------------
     1   6 C    3.908 --     2 N    1.000    15 H    0.956    17 H    0.956
                            16 H    0.936
     2   7 N    3.608 --     6 C    1.368     3 C    1.104     1 C    1.000
     3   6 C    3.913 --     4 N    1.759     2 N    1.104    18 H    0.947
     4   7 N    2.948 --     3 C    1.759     5 C    1.015
     5   6 C    3.965 --     4 N    1.015     6 C    1.009    13 N    0.973
                            25 H    0.864
     6   6 C    3.686 --     2 N    1.368     7 C    1.063     5 C    1.009
     7   6 C    3.931 --     8 O    1.664     9 N    1.119     6 C    1.063
     8   8 O    1.956 --     7 C    1.664     9 N    0.144
     9   7 N    3.464 --     7 C    1.119    11 C    1.047    10 C    0.985
                             8 O    0.144
    10   6 C    3.874 --     9 N    0.985    19 H    0.962    20 H    0.944
                            21 H    0.937
    11   6 C    3.956 --    12 O    1.678    13 N    1.149     9 N    1.047
    12   8 O    1.989 --    11 C    1.678    13 N    0.136
    13   7 N    3.339 --    11 C    1.149    14 C    0.991     5 C    0.973
                            12 O    0.136
    14   6 C    3.879 --    13 N    0.991    24 H    0.957    22 H    0.951
                            23 H    0.938
    15   1 H    0.980 --     1 C    0.956
    16   1 H    0.971 --     1 C    0.936
    17   1 H    0.979 --     1 C    0.956
    18   1 H    0.982 --     3 C    0.947
    19   1 H    0.979 --    10 C    0.962
    20   1 H    0.962 --    10 C    0.944
    21   1 H    0.956 --    10 C    0.937
    22   1 H    0.966 --    14 C    0.951
    23   1 H    0.952 --    14 C    0.938
    24   1 H    0.977 --    14 C    0.957
    25   1 H    0.929 --     5 C    0.864
 ---------------------------------------------------------------------------

molecular dipole:
                 x           y           z       tot (Debye)
 q only:        1.738      -0.834      -0.208
   full:        2.010      -0.704      -0.381       5.498

           -------------------------------------------------
          | TOTAL ENERGY              -42.181973894279 Eh   |
          | GRADIENT NORM               0.005496052677 Eh/α |
          | HOMO-LUMO GAP               1.445136825355 eV   |
           -------------------------------------------------

 * finished run on 2024/06/05 at 19:59:27.156
