   * xtb version 6.6.1 (8d0f1dd) compiled by 'conda@1efc2f54142f' on 2023-08-01
          program call               : xtb struc.xyz --opt loose --input .xc1 --gfn2

   ID    Z sym.   atoms
    1    6 C      1, 3, 5-7, 10, 11, 14
    2    7 N      2, 4, 9, 13
    3    8 O      8, 12
    4    1 H      15-25
constraining bond 2 9 to    5.8400000 Å, actual value:    3.6850118 Å

          :  Hamiltonian                  GFN2-xTB          :
 * total energy  :   -33.9680853 Eh     change       -0.2401919E-09 Eh
 * total energy  :   -37.4402485 Eh     change       -0.3472163E+01 Eh
 * total energy  :   -39.8195652 Eh     change       -0.2379317E+01 Eh
 * total energy  :   -41.1725140 Eh     change       -0.1352949E+01 Eh
 * total energy  :   -41.7052691 Eh     change       -0.5327551E+00 Eh
 * total energy  :   -41.8071497 Eh     change       -0.1018807E+00 Eh
 * total energy  :   -41.8625910 Eh     change       -0.5544128E-01 Eh
 * total energy  :   -41.9335611 Eh     change       -0.7097008E-01 Eh
 * total energy  :   -41.9816279 Eh     change       -0.4806676E-01 Eh
 * total energy  :   -42.0142879 Eh     change       -0.3266000E-01 Eh
 * total energy  :   -42.1807189 Eh     change       -0.6672281E-03 Eh
 * total energy  :   -42.1814079 Eh     change       -0.6889845E-03 Eh
 * total energy  :   -42.1820422 Eh     change       -0.6343171E-03 Eh
 * total energy  :   -42.1823295 Eh     change       -0.2873004E-03 Eh
 * total energy  :   -42.1825742 Eh     change       -0.2447425E-03 Eh
 * total energy  :   -42.1827674 Eh     change       -0.1931771E-03 Eh
 * total energy  :   -42.1826725 Eh     change        0.9489228E-04 Eh
 * total energy  :   -42.1830541 Eh     change       -0.3816269E-03 Eh
 * total energy  :   -42.1831010 Eh     change       -0.4688047E-04 Eh
   *** GEOMETRY OPTIMIZATION CONVERGED AFTER 70 ITERATIONS ***

 final structure:
================
25
 xtb: 6.6.1 (8d0f1dd)
C            4.38643761148625        0.33286579391809        0.05805644308544
N            3.75590298609584       -0.73793304988525       -0.18882568933418
C            2.80590705385710       -1.58028868012826       -0.04527133874733
N            1.44009651107875       -1.47895301528276       -0.00491056744489
C            0.46335038371936       -0.49029622970510       -0.01557428275272
C            0.66956165096542        0.86330466666071       -0.03808252380167
C           -0.42665038353107        1.80680090788941       -0.03310184019630
O           -0.27233752759376        3.01096616864125       -0.05159012135655
N           -1.72169832925053        1.25613990462134       -0.00178752106176
C           -2.86912406069219        2.13514432159549       -0.00076100809736
C           -1.95326807705538       -0.09506063741401        0.00981565945241
O           -3.07284760344427       -0.54765138160890        0.02410880134993
N           -0.83585858868385       -0.95508335963245        0.00683160612391
C           -1.15356371681747       -2.37271695261591        0.01700061799766
H            4.34379024619904        0.81915750966294        1.02814082290915
H            5.07737326858038        0.70905933406994       -0.68489831755433
H            1.65865157136047        1.28670666754443       -0.06375239225028
H            3.12933842011496       -2.61865917051473       -0.04824428871262
H           -2.50558573609014        3.16186777208128        0.00816554547491
H           -3.47745207292532        1.95687970418526       -0.88948289420730
H           -3.48593770569946        1.94091978747359        0.87829959018624
H           -0.77761608426069       -2.86147324247783        0.91857281903280
H           -0.79030784126131       -2.87018518722789       -0.88510648944148
H           -2.24272386790145       -2.45272647793770        0.02540045131670
H            1.01499340584956       -2.40054661231284        0.00816853592952

          :  Hamiltonian                  GFN2-xTB          :
         :: total energy             -42.183101010695 Eh    ::
         :: gradient norm              0.003980323646 Eh/a0 ::
         :: HOMO-LUMO gap              2.332835352350 eV    ::
         :: SCC energy               -42.720854337422 Eh    ::
         :: -> dispersion             -0.021140553241 Eh    ::
         :: repulsion energy           0.537599649343 Eh    ::

    * Orbital Energies and Occupations

         #    Occupation            Energy/Eh            Energy/eV
      -------------------------------------------------------------
         1        2.0000           -0.8762735             -23.8446
       ...           ...                  ...                  ...
        25        1.9984           -0.6639499             -18.0670
        26        1.9978           -0.6559917             -17.8504
        27        1.9966           -0.6456781             -17.5698
        28        1.9961           -0.6422674             -17.4770
        29        1.9946           -0.6346392             -17.2694
        30        1.9921           -0.6257697             -17.0281
        31        1.9904           -0.6210184             -16.8988
        32        1.9794           -0.6027823             -16.4025
        33        1.9549           -0.5839052             -15.8889
        34        1.9470           -0.5800091             -15.7829
        35        1.8900           -0.5619290             -15.2909
        36        1.8716           -0.5580341             -15.1849
        37        1.8237           -0.5498882             -14.9632 (HOMO)
        38        0.4375           -0.4641581             -12.6304 (LUMO)
        39        0.1033           -0.4252781             -11.5724
        40        0.0181           -0.3828284             -10.4173
        41        0.0128           -0.3745481             -10.1920
        42        0.0003           -0.2864381              -7.7944
        43        0.0000           -0.2061051              -5.6084
        44        0.0000           -0.1709099              -4.6507
        45        0.0000           -0.1379628              -3.7542
        46        0.0000           -0.1076963              -2.9306
        47                         -0.0771798              -2.1002
        48                         -0.0571458              -1.5550
       ...                                ...                  ...
        67                          0.6312169              17.1763
      -------------------------------------------------------------
                  HL-Gap            0.0857301 Eh            2.3328 eV

     #   Z          covCN         q      C6AA      α(0)
     1   6 C        2.766     0.007    27.850     8.643
     2   7 N        1.822    -0.024    22.417     7.016
     3   6 C        2.751     0.095    25.862     8.327
     4   7 N        2.689    -0.102    23.252     7.162
     5   6 C        2.821     0.127    25.204     8.226
     6   6 C        2.905    -0.102    30.568     9.066
     7   6 C        2.767     0.271    22.415     7.754
     8   8 O        0.859    -0.327    20.274     6.037
     9   7 N        2.738    -0.062    22.444     7.036
    10   6 C        3.702    -0.059    21.793     6.675
    11   6 C        2.721     0.318    21.601     7.608
    12   8 O        0.860    -0.358    20.862     6.124
    13   7 N        2.748    -0.062    22.433     7.035
    14   6 C        3.699    -0.078    22.163     6.733
    15   1 H        0.925     0.120     1.612     1.986
    16   1 H        0.925     0.135     1.498     1.914
    17   1 H        0.926     0.099     1.797     2.096
    18   1 H        0.925     0.117     1.639     2.002
    19   1 H        0.925     0.124     1.582     1.967
    20   1 H        0.924     0.110     1.693     2.035
    21   1 H        0.924     0.111     1.690     2.033
    22   1 H        0.924     0.085     1.928     2.171
    23   1 H        0.924     0.085     1.929     2.172
    24   1 H        0.924     0.139     1.472     1.897
    25   1 H        0.860     0.232     0.958     1.533

Wiberg/Mayer (AO) data.
largest (>0.10) Wiberg bond orders for each atom

     #   Z sym  total        # sym  WBO       # sym  WBO       # sym  WBO
 ---------------------------------------------------------------------------
     1   6 C    3.631 --     2 N    1.684    16 H    0.934    15 H    0.922
     2   7 N    3.353 --     1 C    1.684     3 C    1.537
     3   6 C    3.787 --     2 N    1.537     4 N    1.204    18 H    0.922
     4   7 N    3.472 --     3 C    1.204     5 C    1.123    25 H    0.896
     5   6 C    3.873 --     6 C    1.464    13 N    1.157     4 N    1.123
     6   6 C    3.766 --     5 C    1.464     7 C    1.116    17 H    0.955
     7   6 C    3.917 --     8 O    1.658     6 C    1.116     9 N    1.064
     8   8 O    1.910 --     7 C    1.658     9 N    0.107
     9   7 N    3.480 --    11 C    1.145     7 C    1.064    10 C    0.983
                            12 O    0.119     8 O    0.107
    10   6 C    3.868 --     9 N    0.983    19 H    0.954    21 H    0.945
                            20 H    0.944
    11   6 C    3.944 --    12 O    1.653     9 N    1.145    13 N    1.060
    12   8 O    1.967 --    11 C    1.653     9 N    0.119    13 N    0.111
    13   7 N    3.475 --     5 C    1.157    11 C    1.060    14 C    0.985
                            12 O    0.111
    14   6 C    3.914 --    13 N    0.985    23 H    0.959    22 H    0.959
                            24 H    0.947
    15   1 H    0.963 --     1 C    0.922
    16   1 H    0.967 --     1 C    0.934
    17   1 H    0.986 --     6 C    0.955
    18   1 H    0.973 --     3 C    0.922
    19   1 H    0.972 --    10 C    0.954
    20   1 H    0.962 --    10 C    0.944
    21   1 H    0.963 --    10 C    0.945
    22   1 H    0.981 --    14 C    0.959
    23   1 H    0.981 --    14 C    0.959
    24   1 H    0.976 --    14 C    0.947
    25   1 H    0.945 --     4 N    0.896
 ---------------------------------------------------------------------------

molecular dipole:
                 x           y           z       tot (Debye)
 q only:        2.584      -1.818       0.060
   full:        2.738      -2.031       0.112       8.670

           -------------------------------------------------
          | TOTAL ENERGY              -42.183101010695 Eh   |
          | GRADIENT NORM               0.003980323646 Eh/α |
          | HOMO-LUMO GAP               2.332835352350 eV   |
           -------------------------------------------------

 * finished run on 2024/06/05 at 19:58:43.054
