   * xtb version 6.6.1 (8d0f1dd) compiled by 'conda@1efc2f54142f' on 2023-08-01
          program call               : xtb xtbopt.xyz --opt crude --input .xc2 --gfn2

   ID    Z sym.   atoms
    1    6 C      1, 3, 5-7, 10, 11, 14
    2    7 N      2, 4, 9, 13
    3    8 O      8, 12
    4    1 H      15-25
########################################################################
[WARNING] Please study the warnings concerning your input carefully
-1- readin_getIntValue: could not parse ''
########################################################################

          :  Hamiltonian                  GFN2-xTB          :
 * total energy  :   -42.1832076 Eh     change        0.1421085E-13 Eh
 * total energy  :   -42.1855534 Eh     change       -0.2345855E-02 Eh
 * total energy  :   -42.1860254 Eh     change       -0.4720129E-03 Eh
 * total energy  :   -42.1879382 Eh     change       -0.1912723E-02 Eh
 * total energy  :   -42.1886333 Eh     change       -0.6951148E-03 Eh
 * total energy  :   -42.1891959 Eh     change       -0.5626344E-03 Eh
 * total energy  :   -42.1894174 Eh     change       -0.2215425E-03 Eh
   *** GEOMETRY OPTIMIZATION CONVERGED AFTER 7 ITERATIONS ***

 final structure:
================
25
 xtb: 6.6.1 (8d0f1dd)
C            4.17047455494274        0.51343493403421        0.06599648759852
N            3.50794659648264       -0.51890586888916       -0.24381559233735
C            2.75818453307875       -1.53307084522887       -0.02481859873991
N            1.40580886502238       -1.60088554619476       -0.00536800025018
C            0.44745316462961       -0.60073651780126       -0.02186054502161
C            0.73720575072383        0.73580593206132       -0.04766800563846
C           -0.29943401153085        1.73391635748621       -0.04334716507461
O           -0.09498854685407        2.93070437027175       -0.05819236004205
N           -1.60253964721113        1.22753571725713       -0.01412827387335
C           -2.71544568514419        2.15697589540843       -0.00098275939843
C           -1.92482149682293       -0.10573946700971        0.00327398218391
O           -3.06948170128483       -0.48567090690150        0.02449603305938
N           -0.86090450986370       -1.01969178184636       -0.00188357645458
C           -1.22942403664802       -2.42337493826292        0.01703395715266
H            4.22755727844298        0.88236432234525        1.08149283751501
H            4.72335115003012        1.03146102861314       -0.70854273786780
H            1.74465326626192        1.10318525268645       -0.07445875002547
H            3.25259301733420       -2.50034067177209       -0.00859044838361
H           -2.31096745518584        3.16809669290978        0.00826613969882
H           -3.33635614532885        2.00312986186229       -0.88496391024308
H           -3.33041948319418        1.98184946746595        0.88299273885265
H           -0.87465285427028       -2.91668629668496        0.92433002510609
H           -0.87341101636424       -2.94027538528951       -0.87629214710158
H           -2.32069198160022       -2.46304707430576        0.01781317191414
H            1.02874190845427       -2.54179599061496        0.02038911527075

          :  Hamiltonian                  GFN2-xTB          :
         :: total energy             -42.189417444277 Eh    ::
         :: gradient norm              0.006940519458 Eh/a0 ::
         :: HOMO-LUMO gap              2.655824167683 eV    ::
         :: SCC energy               -42.735846181492 Eh    ::
         :: -> dispersion             -0.021552340390 Eh    ::
         :: repulsion energy           0.546366275217 Eh    ::

    * Orbital Energies and Occupations

         #    Occupation            Energy/Eh            Energy/eV
      -------------------------------------------------------------
         1        2.0000           -0.8754021             -23.8209
       ...           ...                  ...                  ...
        25        1.9986           -0.6642194             -18.0743
        26        1.9981           -0.6573393             -17.8871
        27        1.9973           -0.6488754             -17.6568
        28        1.9960           -0.6394511             -17.4004
        29        1.9951           -0.6343687             -17.2621
        30        1.9924           -0.6239502             -16.9785
        31        1.9920           -0.6228143             -16.9476
        32        1.9798           -0.6006765             -16.3452
        33        1.9640           -0.5867373             -15.9659
        34        1.9499           -0.5787302             -15.7480
        35        1.8953           -0.5605481             -15.2533
        36        1.8738           -0.5558424             -15.1252
        37        1.8389           -0.5496083             -14.9556 (HOMO)
        38        0.3157           -0.4520085             -12.2998 (LUMO)
        39        0.1806           -0.4369017             -11.8887
        40        0.0226           -0.3856110             -10.4930
        41        0.0135           -0.3731639             -10.1543
        42        0.0003           -0.2824536              -7.6860
        43        0.0000           -0.1952384              -5.3127
        44        0.0000           -0.1668340              -4.5398
        45        0.0000           -0.1302688              -3.5448
        46        0.0000           -0.0983525              -2.6763
        47                         -0.0806140              -2.1936
        48                         -0.0464900              -1.2651
       ...                                ...                  ...
        67                          0.6116650              16.6443
      -------------------------------------------------------------
                  HL-Gap            0.0975997 Eh            2.6558 eV

     #   Z          covCN         q      C6AA      α(0)
     1   6 C        2.766     0.008    27.819     8.638
     2   7 N        1.824    -0.024    22.419     7.016
     3   6 C        2.754     0.097    25.823     8.321
     4   7 N        2.693    -0.089    22.987     7.121
     5   6 C        2.830     0.125    25.246     8.234
     6   6 C        2.908    -0.109    30.749     9.093
     7   6 C        2.768     0.273    22.391     7.750
     8   8 O        0.859    -0.333    20.394     6.055
     9   7 N        2.742    -0.066    22.518     7.048
    10   6 C        3.706    -0.060    21.798     6.674
    11   6 C        2.724     0.318    21.590     7.607
    12   8 O        0.860    -0.359    20.878     6.126
    13   7 N        2.747    -0.058    22.367     7.024
    14   6 C        3.699    -0.077    22.135     6.729
    15   1 H        0.925     0.124     1.581     1.966
    16   1 H        0.925     0.137     1.486     1.906
    17   1 H        0.926     0.097     1.816     2.108
    18   1 H        0.925     0.121     1.606     1.982
    19   1 H        0.925     0.123     1.591     1.972
    20   1 H        0.924     0.109     1.701     2.040
    21   1 H        0.924     0.109     1.701     2.040
    22   1 H        0.924     0.084     1.938     2.177
    23   1 H        0.924     0.084     1.935     2.175
    24   1 H        0.924     0.136     1.491     1.910
    25   1 H        0.860     0.229     0.968     1.541

Wiberg/Mayer (AO) data.
largest (>0.10) Wiberg bond orders for each atom

     #   Z sym  total        # sym  WBO       # sym  WBO       # sym  WBO
 ---------------------------------------------------------------------------
     1   6 C    3.658 --     2 N    1.702    16 H    0.935    15 H    0.923
     2   7 N    3.361 --     1 C    1.702     3 C    1.516
     3   6 C    3.788 --     2 N    1.516     4 N    1.233    18 H    0.917
     4   7 N    3.501 --     3 C    1.233     5 C    1.117    25 H    0.902
     5   6 C    3.870 --     6 C    1.464    13 N    1.162     4 N    1.117
     6   6 C    3.775 --     5 C    1.464     7 C    1.119    17 H    0.951
     7   6 C    3.918 --     8 O    1.650     6 C    1.119     9 N    1.072
     8   8 O    1.909 --     7 C    1.650     9 N    0.109
     9   7 N    3.482 --    11 C    1.139     7 C    1.072    10 C    0.980
                            12 O    0.120     8 O    0.109
    10   6 C    3.870 --     9 N    0.980    19 H    0.955    21 H    0.947
                            20 H    0.946
    11   6 C    3.944 --    12 O    1.655     9 N    1.139    13 N    1.065
    12   8 O    1.970 --    11 C    1.655     9 N    0.120    13 N    0.112
    13   7 N    3.485 --     5 C    1.162    11 C    1.065    14 C    0.984
                            12 O    0.112
    14   6 C    3.915 --    13 N    0.984    23 H    0.961    22 H    0.961
                            24 H    0.951
    15   1 H    0.964 --     1 C    0.923
    16   1 H    0.970 --     1 C    0.935
    17   1 H    0.987 --     6 C    0.951
    18   1 H    0.970 --     3 C    0.917
    19   1 H    0.973 --    10 C    0.955
    20   1 H    0.963 --    10 C    0.946
    21   1 H    0.964 --    10 C    0.947
    22   1 H    0.982 --    14 C    0.961
    23   1 H    0.982 --    14 C    0.961
    24   1 H    0.977 --    14 C    0.951
    25   1 H    0.946 --     4 N    0.902
 ---------------------------------------------------------------------------

molecular dipole:
                 x           y           z       tot (Debye)
 q only:        2.663      -1.896       0.090
   full:        2.857      -2.193       0.161       9.163

           -------------------------------------------------
          | TOTAL ENERGY              -42.189417444277 Eh   |
          | GRADIENT NORM               0.006940519458 Eh/α |
          | HOMO-LUMO GAP               2.655824167683 eV   |
           -------------------------------------------------

 * finished run on 2024/06/05 at 19:58:43.361
