   * xtb version 6.6.1 (8d0f1dd) compiled by 'conda@1efc2f54142f' on 2023-08-01
          program call               : xtb struc.xyz --opt loose --input .xc1 --gfn2

   ID    Z sym.   atoms
    1    7 N      1, 17
    2    6 C      2-6, 8, 9, 11-16, 18-23, 25, 26, 28-33
    3    8 O      7, 10, 24, 27
    4    1 H      34-72
constraining bond 17 49 to    2.6866700 Å, actual value:    2.0821493 Å

          :  Hamiltonian                  GFN2-xTB          :
 * total energy  :   -99.4693823 Eh     change       -0.4035485E-08 Eh
 * total energy  :   -99.5803395 Eh     change       -0.1109571E+00 Eh
 * total energy  :   -99.7097186 Eh     change       -0.1293791E+00 Eh
 * total energy  :   -98.6528887 Eh     change        0.1056830E+01 Eh
 * total energy  :   -99.7651628 Eh     change       -0.1112274E+01 Eh
 * total energy  :   -99.7894750 Eh     change       -0.2431220E-01 Eh
 * total energy  :   -99.8035886 Eh     change       -0.1411354E-01 Eh
 * total energy  :   -99.8131420 Eh     change       -0.9553444E-02 Eh
 * total energy  :   -99.8228705 Eh     change       -0.9728517E-02 Eh
 * total energy  :   -99.8325886 Eh     change       -0.9718094E-02 Eh
 * total energy  :   -99.8765485 Eh     change       -0.2102300E-03 Eh
 * total energy  :   -99.8767208 Eh     change       -0.1722515E-03 Eh
 * total energy  :   -99.8768600 Eh     change       -0.1392252E-03 Eh
 * total energy  :   -99.8769727 Eh     change       -0.1127471E-03 Eh
 * total energy  :   -99.8770903 Eh     change       -0.1175512E-03 Eh
 * total energy  :   -99.8771814 Eh     change       -0.9116551E-04 Eh
 * total energy  :   -99.8772691 Eh     change       -0.8768291E-04 Eh
 * total energy  :   -99.8773343 Eh     change       -0.6521205E-04 Eh
 * total energy  :   -99.8773693 Eh     change       -0.3491936E-04 Eh
   *** GEOMETRY OPTIMIZATION CONVERGED AFTER 68 ITERATIONS ***

 final structure:
================
72
 xtb: 6.6.1 (8d0f1dd)
N           -1.17536678768952        2.73105561791927        1.77759885460723
C           -1.61664937951780        1.88088886427944        1.01795777049132
C           -2.83525843293432        1.71483853078481        0.22271249844380
C           -3.42997501352215        0.33742960971639        0.48058215747392
C           -4.51500681292385       -0.11242341339059       -0.27349116855833
C           -5.08788878934790       -1.35037002177134       -0.03826120868839
O           -6.12983866590460       -1.87095689921567       -0.72295315434132
C           -6.74739228161145       -1.10279600128399       -1.72774964550251
C           -4.57105359988051       -2.17725861058738        0.99436836641293
O           -5.20091819270388       -3.35862666025700        1.15808529405886
C           -4.80252640113413       -4.20726879065328        2.20936174318693
C           -3.49058034437974       -1.72474751808969        1.73395395521461
C           -2.92572589890685       -0.48305530950964        1.47482228437984
C           -2.43799324314399        1.85373745830937       -1.27103237859237
C           -1.62935713663492        0.67038307189303       -1.81339677993482
C           -0.18618950678265        0.73159849075261       -1.32758657073140
N            0.53617562078244       -0.58450458364369       -1.41252476635197
C            1.90986486542678       -0.53248614547164       -0.85314989335281
C            2.93188710393750        0.22789752408945       -1.64293205536446
C            4.23420673205047        0.32849434184599       -0.89473557852849
C            4.95470319893866        1.51057224355899       -0.87403228975330
C            6.17714843650925        1.58680314512140       -0.22301860066569
C            6.70087281769087        0.48009800072944        0.42748233614688
O            7.87692093877053        0.43922707758237        1.08676048567680
C            8.70334002004277        1.58053810248426        1.07930401986589
C            5.96349821744819       -0.73533359205655        0.41943393180534
O            6.54260946270277       -1.76320944027049        1.07692852261118
C            5.89057979584035       -3.00933547301149        1.10223590288433
C            4.74911827153395       -0.78994435961404       -0.24375454161643
C            0.55509683040736       -1.09350984243719       -2.80020845251071
C           -3.91095239850401        2.79928577034865        0.59801425384973
C           -4.34439444380073        2.65763974420273        2.05335041870465
C           -3.44540932629638        4.22501533292511        0.32978455048273
H           -4.92223972367979        0.51591198675858       -1.04840629083650
H           -7.15555403616009       -0.16956834440839       -1.32769382597200
H           -7.56210143698505       -1.71775160940717       -2.10503632710780
H           -6.05599122138881       -0.87980017553689       -2.54743073667341
H           -4.92282160785832       -3.72222077302362        3.18281245597326
H           -5.46248858485782       -5.07078327695514        2.15275276981226
H           -3.76540536428114       -4.53682338190662        2.09054856660490
H           -3.08218372806833       -2.32884169547675        2.52753860160213
H           -2.09004110532276       -0.14914789320709        2.07368433521670
H           -3.35292363798429        1.94862249773561       -1.85435619539140
H           -1.86230940051195        2.76978999111983       -1.40657314741597
H           -2.09906224003713       -0.25980412363006       -1.48372559692045
H           -1.66262982274284        0.70482947169836       -2.90359892333247
H           -0.19264097129051        1.02578750587169       -0.26769888192201
H            0.38169993080558        1.47070411651173       -1.89275440646771
H            0.12894853716180       -1.11555954079731       -0.94859336056424
H            1.86718662856864       -0.28390002636018        0.20086099575683
H            2.60609413635423        1.24842789216834       -1.90248536869519
H            3.13379393934803       -0.28714490082021       -2.59070975838062
H            4.57442471163037        2.38829990477404       -1.37501496192972
H            6.71679138266698        2.51961243716435       -0.23152492769203
H            8.22124904915278        2.42916254637268        1.57450777581776
H            8.98373515558764        1.86324424782768        0.05995593226419
H            9.59585840150315        1.29922205410691        1.63484448401397
H            6.53672144254480       -3.66659058886882        1.68089913442382
H            4.91268488131055       -2.94043081897828        1.58945580150847
H            5.76748547551946       -3.41779514699790        0.09415642417962
H            4.17594308406348       -1.70230403298863       -0.27107343253236
H            0.92170785935116       -0.32664284563767       -3.47714655208833
H           -0.44479184253190       -1.39485145810646       -3.10461694615657
H            1.21715121463879       -1.95576496190195       -2.84927024189598
H           -4.77545733234298        2.58896576985092       -0.03973539092347
H           -3.51639111258218        2.87725092740825        2.72204919707457
H           -4.70572753141071        1.65345644471931        2.26108310401589
H           -5.14595912846845        3.36002840054951        2.26545371516979
H           -2.54645835149577        4.44828693828904        0.89850055027134
H           -3.25195414700147        4.39993538178870       -0.72504492444366
H           -4.22126397295674        4.91819200015774        0.64411686130823
H           -0.28210958980675        2.70045833724021        2.24662407308261

          :  Hamiltonian                  GFN2-xTB          :
         :: total energy             -99.877369256891 Eh    ::
         :: gradient norm              0.001933343783 Eh/a0 ::
         :: HOMO-LUMO gap              0.681466476220 eV    ::
         :: SCC energy              -100.697742982916 Eh    ::
         :: -> dispersion             -0.073124816269 Eh    ::
         :: repulsion energy           1.445113973571 Eh    ::

    * Orbital Energies and Occupations

         #    Occupation            Energy/Eh            Energy/eV
      -------------------------------------------------------------
         1        2.0000           -0.8225106             -22.3817
       ...           ...                  ...                  ...
        78        1.9993           -0.5303816             -14.4324
        79        1.9989           -0.5239286             -14.2568
        80        1.9988           -0.5235554             -14.2467
        81        1.9986           -0.5207684             -14.1708
        82        1.9985           -0.5195680             -14.1382
        83        1.9983           -0.5174075             -14.0794
        84        1.9983           -0.5169509             -14.0669
        85        1.9970           -0.5081083             -13.8263
        86        1.9896           -0.4885684             -13.2946
        87        1.9762           -0.4753962             -12.9362
        88        1.9247           -0.4567551             -12.4289
        89        1.8419           -0.4443072             -12.0902
        90        1.4848           -0.4221848             -11.4882 (HOMO)
        91        0.7442           -0.3971413             -10.8068 (LUMO)
        92        0.0394           -0.3435641              -9.3489
        93        0.0062           -0.3140929              -8.5469
        94        0.0051           -0.3109870              -8.4624
        95        0.0024           -0.2992750              -8.1437
        96        0.0020           -0.2961573              -8.0588
        97        0.0000           -0.1879895              -5.1155
        98        0.0000           -0.1787333              -4.8636
        99        0.0000           -0.1726856              -4.6990
       100                         -0.1051310              -2.8608
       101                         -0.0866767              -2.3586
       ...                                ...                  ...
       171                          0.6012811              16.3617
      -------------------------------------------------------------
                  HL-Gap            0.0250434 Eh            0.6815 eV

     #   Z          covCN         q      C6AA      α(0)
     1   7 N        1.772    -0.193    25.965     7.545
     2   6 C        1.913     0.037    30.160     8.869
     3   6 C        3.905     0.024    20.109     6.374
     4   6 C        2.978    -0.004    28.110     8.697
     5   6 C        2.920    -0.082    30.055     8.990
     6   6 C        2.863     0.128    25.196     8.228
     7   8 O        1.706    -0.235    17.897     5.712
     8   6 C        3.644     0.030    20.413     6.494
     9   6 C        2.864     0.128    25.186     8.226
    10   8 O        1.706    -0.233    17.862     5.706
    11   6 C        3.645     0.028    20.433     6.497
    12   6 C        2.914    -0.074    29.852     8.959
    13   6 C        2.922    -0.054    29.341     8.883
    14   6 C        3.814    -0.063    21.699     6.630
    15   6 C        3.800    -0.074    21.911     6.665
    16   6 C        3.741    -0.036    21.289     6.583
    17   7 N        3.578     0.035    20.623     6.745
    18   6 C        2.828    -0.151    31.871     9.251
    19   6 C        3.807    -0.060    21.646     6.623
    20   6 C        2.970     0.005    27.901     8.664
    21   6 C        2.922    -0.050    29.230     8.866
    22   6 C        2.914    -0.068    29.706     8.937
    23   6 C        2.865     0.131    25.133     8.218
    24   8 O        1.706    -0.228    17.776     5.692
    25   6 C        3.645     0.027    20.455     6.500
    26   6 C        2.864     0.132    25.120     8.215
    27   8 O        1.706    -0.229    17.800     5.696
    28   6 C        3.646     0.028    20.439     6.497
    29   6 C        2.920    -0.080    29.994     8.981
    30   6 C        3.698    -0.084    22.285     6.752
    31   6 C        3.852    -0.008    20.678     6.468
    32   6 C        3.756    -0.113    22.727     6.797
    33   6 C        3.755    -0.118    22.814     6.811
    34   1 H        0.926     0.047     2.361     2.403
    35   1 H        0.924     0.050     2.315     2.379
    36   1 H        0.925     0.079     1.986     2.204
    37   1 H        0.924     0.044     2.401     2.423
    38   1 H        0.924     0.052     2.289     2.366
    39   1 H        0.925     0.079     1.986     2.204
    40   1 H        0.924     0.047     2.358     2.402
    41   1 H        0.926     0.051     2.305     2.374
    42   1 H        0.926     0.035     2.515     2.480
    43   1 H        0.925     0.063     2.166     2.302
    44   1 H        0.924     0.054     2.267     2.355
    45   1 H        0.924     0.052     2.289     2.366
    46   1 H        0.924     0.057     2.231     2.336
    47   1 H        0.923     0.080     1.980     2.201
    48   1 H        0.925     0.076     2.019     2.222
    49   1 H        0.863     0.224     0.993     1.561
    50   1 H        0.925     0.013     2.842     2.636
    51   1 H        0.923     0.030     2.592     2.518
    52   1 H        0.924     0.051     2.311     2.377
    53   1 H        0.926     0.042     2.426     2.436
    54   1 H        0.926     0.055     2.264     2.353
    55   1 H        0.924     0.052     2.295     2.369
    56   1 H        0.924     0.053     2.279     2.361
    57   1 H        0.925     0.079     1.987     2.204
    58   1 H        0.925     0.079     1.993     2.208
    59   1 H        0.924     0.048     2.350     2.397
    60   1 H        0.924     0.050     2.314     2.379
    61   1 H        0.926     0.054     2.269     2.356
    62   1 H        0.925     0.094     1.842     2.123
    63   1 H        0.925     0.080     1.982     2.202
    64   1 H        0.925     0.100     1.782     2.087
    65   1 H        0.924     0.047     2.361     2.403
    66   1 H        0.925     0.051     2.308     2.376
    67   1 H        0.925     0.040     2.453     2.449
    68   1 H        0.925     0.053     2.279     2.361
    69   1 H        0.925     0.055     2.255     2.349
    70   1 H        0.925     0.038     2.479     2.462
    71   1 H        0.925     0.057     2.235     2.338
    72   1 H        0.860     0.192     1.149     1.679

Wiberg/Mayer (AO) data.
largest (>0.10) Wiberg bond orders for each atom

     #   Z sym  total        # sym  WBO       # sym  WBO       # sym  WBO
 ---------------------------------------------------------------------------
     1   7 N    3.117 --     2 C    2.085    72 H    0.914
     2   6 C    3.247 --     1 N    2.085     3 C    1.032
     3   6 C    3.952 --     2 C    1.032     4 C    0.965    14 C    0.947
                            31 C    0.897
     4   6 C    3.955 --    13 C    1.424     5 C    1.366     3 C    0.965
     5   6 C    3.968 --     6 C    1.406     4 C    1.366    34 H    0.958
     6   6 C    3.917 --     5 C    1.406     9 C    1.229     7 O    1.093
     7   8 O    2.258 --     6 C    1.093     8 C    0.980
     8   6 C    3.936 --     7 O    0.980    36 H    0.977    37 H    0.975
                            35 H    0.974
     9   6 C    3.915 --    12 C    1.397     6 C    1.229    10 O    1.098
    10   8 O    2.259 --     9 C    1.098    11 C    0.978
    11   6 C    3.934 --    10 O    0.978    39 H    0.977    38 H    0.974
                            40 H    0.974
    12   6 C    3.969 --    13 C    1.402     9 C    1.397    41 H    0.964
    13   6 C    3.962 --     4 C    1.424    12 C    1.402    42 H    0.958
    14   6 C    3.985 --    15 C    1.002    44 H    0.972    43 H    0.967
                             3 C    0.947
    15   6 C    3.988 --    16 C    1.007    14 C    1.002    46 H    0.973
                            45 H    0.967
    16   6 C    3.903 --    15 C    1.007    48 H    0.970    47 H    0.937
                            17 N    0.916
    17   7 N    3.742 --    30 C    0.964    49 H    0.926    16 C    0.916
                            18 C    0.896
    18   6 C    2.974 --    19 C    1.035    50 H    0.965    17 N    0.896
    19   6 C    3.976 --    18 C    1.035    20 C    1.006    52 H    0.945
                            51 H    0.938
    20   6 C    3.944 --    21 C    1.413    29 C    1.377    19 C    1.006
    21   6 C    3.947 --    20 C    1.413    22 C    1.411    53 H    0.968
    22   6 C    3.959 --    21 C    1.411    23 C    1.388    54 H    0.963
    23   6 C    3.893 --    22 C    1.388    26 C    1.222    24 O    1.101
    24   8 O    2.245 --    23 C    1.101    25 C    0.978
    25   6 C    3.931 --    24 O    0.978    57 H    0.977    56 H    0.973
                            55 H    0.973
    26   6 C    3.897 --    29 C    1.400    23 C    1.222    27 O    1.096
    27   8 O    2.247 --    26 C    1.096    28 C    0.981
    28   6 C    3.935 --    27 O    0.981    58 H    0.977    59 H    0.974
                            60 H    0.973
    29   6 C    3.958 --    26 C    1.400    20 C    1.377    61 H    0.960
    30   6 C    3.934 --    62 H    0.980    63 H    0.979    64 H    0.975
                            17 N    0.964
    31   6 C    3.937 --    33 C    1.014    32 C    1.013    65 H    0.954
                             3 C    0.897
    32   6 C    3.990 --    31 C    1.013    67 H    0.983    66 H    0.982
                            68 H    0.981
    33   6 C    3.988 --    31 C    1.014    70 H    0.984    71 H    0.978
                            69 H    0.977
    34   1 H    0.997 --     5 C    0.958
    35   1 H    0.995 --     8 C    0.974
    36   1 H    0.993 --     8 C    0.977
    37   1 H    0.996 --     8 C    0.975
    38   1 H    0.994 --    11 C    0.974
    39   1 H    0.993 --    11 C    0.977
    40   1 H    0.995 --    11 C    0.974
    41   1 H    0.996 --    12 C    0.964
    42   1 H    0.998 --    13 C    0.958
    43   1 H    0.995 --    14 C    0.967
    44   1 H    0.996 --    14 C    0.972
    45   1 H    0.997 --    15 C    0.967
    46   1 H    0.996 --    15 C    0.973
    47   1 H    0.993 --    16 C    0.937
    48   1 H    0.994 --    16 C    0.970
    49   1 H    0.949 --    17 N    0.926
    50   1 H    0.990 --    18 C    0.965
    51   1 H    0.957 --    19 C    0.938
    52   1 H    0.978 --    19 C    0.945
    53   1 H    0.998 --    21 C    0.968
    54   1 H    0.995 --    22 C    0.963
    55   1 H    0.992 --    25 C    0.973
    56   1 H    0.992 --    25 C    0.973
    57   1 H    0.993 --    25 C    0.977
    58   1 H    0.993 --    28 C    0.977
    59   1 H    0.994 --    28 C    0.974
    60   1 H    0.993 --    28 C    0.973
    61   1 H    0.996 --    29 C    0.960
    62   1 H    0.991 --    30 C    0.980
    63   1 H    0.993 --    30 C    0.979
    64   1 H    0.990 --    30 C    0.975
    65   1 H    0.988 --    31 C    0.954
    66   1 H    0.996 --    32 C    0.982
    67   1 H    0.998 --    32 C    0.983
    68   1 H    0.995 --    32 C    0.981
    69   1 H    0.996 --    33 C    0.977
    70   1 H    0.998 --    33 C    0.984
    71   1 H    0.993 --    33 C    0.978
    72   1 H    0.937 --     1 N    0.914
 ---------------------------------------------------------------------------

molecular dipole:
                 x           y           z       tot (Debye)
 q only:       -0.170       0.049      -1.400
   full:       -0.288       0.298      -1.375       3.650

           -------------------------------------------------
          | TOTAL ENERGY              -99.877369256891 Eh   |
          | GRADIENT NORM               0.001933343783 Eh/α |
          | HOMO-LUMO GAP               0.681466476220 eV   |
           -------------------------------------------------

 * finished run on 2024/04/06 at 11:16:51.651
