   * xtb version 6.6.1 (8d0f1dd) compiled by 'conda@1efc2f54142f' on 2023-08-01
          program call               : xtb xtbopt.xyz --opt crude --input .xc2 --gfn2

   ID    Z sym.   atoms
    1    7 N      1, 17
    2    6 C      2-6, 8, 9, 11-16, 18-23, 25, 26, 28-33
    3    8 O      7, 10, 24, 27
    4    1 H      34-72
########################################################################
[WARNING] Please study the warnings concerning your input carefully
-1- readin_getIntValue: could not parse ''
########################################################################

          :  Hamiltonian                  GFN2-xTB          :
 * total energy  :   -99.2514034 Eh     change       -0.4493472E-10 Eh
 * total energy  :   -99.3037058 Eh     change       -0.5230237E-01 Eh
 * total energy  :   -99.3043002 Eh     change       -0.5944489E-03 Eh
 * total energy  :   -99.3044840 Eh     change       -0.1837884E-03 Eh
   *** GEOMETRY OPTIMIZATION CONVERGED AFTER 4 ITERATIONS ***

 final structure:
================
72
 xtb: 6.6.1 (8d0f1dd)
N           -1.17353402704967        2.73192239916950        1.77559268711264
C           -1.61496022903003        1.88460124485837        1.01306678735611
C           -2.83420075502186        1.71720427895757        0.21983570556536
C           -3.42678798634555        0.33875331068573        0.47851993184982
C           -4.51314718345258       -0.11094575245417       -0.27380278975268
C           -5.08572471631363       -1.34872368095834       -0.03764697448199
O           -6.12946994050044       -1.86853490032558       -0.71977391650803
C           -6.74821417312307       -1.09961631317554       -1.72316648389107
C           -4.56651486026029       -2.17591927602447        0.99351249482151
O           -5.19562887945704       -3.35823644721843        1.15695522102477
C           -4.79722064483460       -4.20572997262891        2.20901721496724
C           -3.48505975800588       -1.72368445948259        1.73146353905822
C           -2.92081549703155       -0.48145396027500        1.47188763382353
C           -2.43939358474433        1.85588554456996       -1.27467518479015
C           -1.63009888143726        0.67224376777194       -1.81581785682358
C           -0.18596208967524        0.73498575857233       -1.33288270895189
N            0.54703317105998       -0.56560980596048       -1.43245708143167
C            1.91008016239839       -0.52923235763097       -0.86212215390577
C            2.93739942717702        0.23210875400835       -1.64693873036918
C            4.23828223808519        0.33017557476978       -0.89594122633034
C            4.95833843136430        1.51249062956284       -0.87151787166399
C            6.18052860572332        1.58751380556313       -0.21978750309808
C            6.70389121641424        0.47928568597514        0.42830227350519
O            7.88133202993071        0.43680837705891        1.08566298768731
C            8.70442860788526        1.57972225786474        1.08527426255235
C            5.96580904830097       -0.73547563041638        0.41907624474816
O            6.54262589262896       -1.76357331815984        1.07826065338067
C            5.89133401786794       -3.01024105899066        1.10242359601454
C            4.75209552516053       -0.78926783542202       -0.24596924627531
C            0.55399110709977       -1.08942140346604       -2.81044266411347
C           -3.91183494902934        2.79886431675076        0.59650531924067
C           -4.34398466316099        2.65505066398681        2.05204577395704
C           -3.44995460563729        4.22604959642943        0.32864033075602
H           -4.92123636293035        0.51811295241286       -1.04759078948416
H           -7.15469892182887       -0.16607470738478       -1.32211070823919
H           -7.56418230732661       -1.71362972589211       -2.09913674417141
H           -6.05809543041824       -0.87696450834005       -2.54399461902119
H           -4.91268989326429       -3.71809643027026        3.18166699218829
H           -5.46046273209162       -5.06686574718074        2.15646469288408
H           -3.76173240577660       -4.53939282121626        2.08777426378733
H           -3.07552283940677       -2.32748021926708        2.52471062744368
H           -2.08473975263307       -0.14728498746886        2.07007684680069
H           -3.35517442360114        1.94903777775290       -1.85681728777394
H           -1.86519619354996        2.77253894057634       -1.41157547931225
H           -2.09560534311478       -0.25780031657747       -1.48005649572213
H           -1.66699124661882        0.70158222028673       -2.90572947491225
H           -0.19211350110800        1.02682566257958       -0.27224269537580
H            0.37515632367552        1.48246652628177       -1.89620102006138
H            0.03296871488364       -1.23123900120702       -0.85344982933062
H            1.86826479332075       -0.28322179521209        0.19215627172849
H            2.61250237562787        1.25418108110706       -1.90292698943709
H            3.14130924683764       -0.27758997861641       -2.59678808084917
H            4.57723576941366        2.39086526494668       -1.37079144435073
H            6.71971313623365        2.52060627419255       -0.22589012895627
H            8.21982273471006        2.42451769671007        1.58454692621146
H            8.98574438523209        1.86947757498533        0.06817538999795
H            9.59712094804665        1.29750393454422        1.64006205860105
H            6.53835203044866       -3.66706450623115        1.68076122340544
H            4.91343486616739       -2.94260335149098        1.58993894497922
H            5.76853957200750       -3.41827309797186        0.09421677925896
H            4.18015370626366       -1.70234615407224       -0.27482037290284
H            0.92597322982738       -0.32893606971688       -3.49352432217858
H           -0.44715504691767       -1.38408182457665       -3.11557715697506
H            1.21101244707813       -1.95580549404650       -2.85581635836263
H           -4.77650369904562        2.58738124719371       -0.04064800930420
H           -3.51704935458955        2.87938740833369        2.72054795458196
H           -4.69976743434350        1.64889414044784        2.25995162470566
H           -5.14961930364710        3.35291160114929        2.26423034640198
H           -2.55007803342085        4.45086052040263        0.89520582075960
H           -3.25994678284235        4.40229498702612       -0.72650739691692
H           -4.22685645233340        4.91681889236306        0.64592897578987
H           -0.28003327904713        2.70462576186496        2.24394424163630

          :  Hamiltonian                  GFN2-xTB          :
         :: total energy             -99.304483999552 Eh    ::
         :: gradient norm              0.004919713031 Eh/a0 ::
         :: HOMO-LUMO gap              0.674595402260 eV    ::
         :: SCC energy              -100.674126031008 Eh    ::
         :: -> dispersion             -0.073114650782 Eh    ::
         :: repulsion energy           1.368409502589 Eh    ::

    * Orbital Energies and Occupations

         #    Occupation            Energy/Eh            Energy/eV
      -------------------------------------------------------------
         1        2.0000           -0.8148551             -22.1733
       ...           ...                  ...                  ...
        78        1.9993           -0.5301616             -14.4264
        79        1.9989           -0.5239627             -14.2578
        80        1.9989           -0.5235412             -14.2463
        81        1.9987           -0.5206679             -14.1681
        82        1.9985           -0.5192227             -14.1288
        83        1.9983           -0.5171809             -14.0732
        84        1.9983           -0.5168718             -14.0648
        85        1.9970           -0.5078983             -13.8206
        86        1.9899           -0.4886175             -13.2960
        87        1.9765           -0.4751296             -12.9289
        88        1.9271           -0.4568262             -12.4309
        89        1.8436           -0.4440466             -12.0831
        90        1.4787           -0.4214899             -11.4693 (HOMO)
        91        0.7443           -0.3966990             -10.7947 (LUMO)
        92        0.0400           -0.3433418              -9.3428
        93        0.0064           -0.3141547              -8.5486
        94        0.0053           -0.3110645              -8.4645
        95        0.0025           -0.2990458              -8.1374
        96        0.0020           -0.2958865              -8.0515
        97        0.0000           -0.1880432              -5.1169
        98        0.0000           -0.1803519              -4.9076
        99        0.0000           -0.1723067              -4.6887
       100                         -0.0984710              -2.6795
       101                         -0.0803742              -2.1871
       ...                                ...                  ...
       171                          0.6029334              16.4067
      -------------------------------------------------------------
                  HL-Gap            0.0247909 Eh            0.6746 eV

     #   Z          covCN         q      C6AA      α(0)
     1   7 N        1.772    -0.193    25.966     7.546
     2   6 C        1.913     0.037    30.159     8.869
     3   6 C        3.905     0.024    20.110     6.374
     4   6 C        2.978    -0.004    28.114     8.697
     5   6 C        2.920    -0.082    30.058     8.991
     6   6 C        2.863     0.128    25.196     8.228
     7   8 O        1.706    -0.235    17.897     5.712
     8   6 C        3.644     0.030    20.413     6.494
     9   6 C        2.864     0.128    25.191     8.227
    10   8 O        1.706    -0.233    17.869     5.707
    11   6 C        3.645     0.028    20.431     6.496
    12   6 C        2.914    -0.075    29.861     8.961
    13   6 C        2.922    -0.055    29.356     8.885
    14   6 C        3.814    -0.063    21.700     6.630
    15   6 C        3.800    -0.074    21.908     6.664
    16   6 C        3.741    -0.034    21.254     6.577
    17   7 N        3.577     0.050    20.361     6.702
    18   6 C        2.827    -0.147    31.783     9.238
    19   6 C        3.807    -0.059    21.632     6.621
    20   6 C        2.970     0.005    27.904     8.665
    21   6 C        2.922    -0.050    29.231     8.866
    22   6 C        2.914    -0.068    29.706     8.937
    23   6 C        2.865     0.131    25.136     8.218
    24   8 O        1.706    -0.228    17.779     5.693
    25   6 C        3.645     0.027    20.450     6.499
    26   6 C        2.864     0.131    25.121     8.216
    27   8 O        1.706    -0.229    17.804     5.697
    28   6 C        3.645     0.028    20.439     6.497
    29   6 C        2.920    -0.080    29.993     8.981
    30   6 C        3.697    -0.082    22.246     6.746
    31   6 C        3.852    -0.008    20.679     6.468
    32   6 C        3.755    -0.113    22.727     6.797
    33   6 C        3.755    -0.118    22.813     6.810
    34   1 H        0.926     0.047     2.361     2.403
    35   1 H        0.924     0.050     2.316     2.380
    36   1 H        0.925     0.079     1.986     2.204
    37   1 H        0.924     0.044     2.402     2.424
    38   1 H        0.924     0.052     2.291     2.367
    39   1 H        0.925     0.079     1.987     2.204
    40   1 H        0.924     0.047     2.362     2.403
    41   1 H        0.926     0.051     2.308     2.376
    42   1 H        0.926     0.035     2.521     2.483
    43   1 H        0.925     0.063     2.165     2.301
    44   1 H        0.924     0.054     2.267     2.354
    45   1 H        0.924     0.052     2.300     2.372
    46   1 H        0.924     0.057     2.233     2.337
    47   1 H        0.923     0.080     1.982     2.202
    48   1 H        0.924     0.076     2.017     2.221
    49   1 H        0.860     0.209     1.063     1.615
    50   1 H        0.925     0.013     2.842     2.636
    51   1 H        0.923     0.029     2.596     2.520
    52   1 H        0.924     0.050     2.315     2.379
    53   1 H        0.926     0.041     2.429     2.437
    54   1 H        0.926     0.054     2.264     2.353
    55   1 H        0.924     0.052     2.298     2.371
    56   1 H        0.924     0.053     2.282     2.362
    57   1 H        0.925     0.079     1.989     2.205
    58   1 H        0.925     0.079     1.994     2.208
    59   1 H        0.924     0.047     2.352     2.398
    60   1 H        0.924     0.050     2.315     2.380
    61   1 H        0.926     0.054     2.273     2.358
    62   1 H        0.925     0.094     1.844     2.123
    63   1 H        0.925     0.079     1.986     2.204
    64   1 H        0.925     0.100     1.788     2.091
    65   1 H        0.924     0.047     2.362     2.403
    66   1 H        0.925     0.051     2.308     2.376
    67   1 H        0.925     0.040     2.453     2.449
    68   1 H        0.925     0.053     2.280     2.361
    69   1 H        0.925     0.055     2.258     2.350
    70   1 H        0.925     0.038     2.479     2.462
    71   1 H        0.925     0.057     2.236     2.338
    72   1 H        0.860     0.192     1.149     1.679

Wiberg/Mayer (AO) data.
largest (>0.10) Wiberg bond orders for each atom

     #   Z sym  total        # sym  WBO       # sym  WBO       # sym  WBO
 ---------------------------------------------------------------------------
     1   7 N    3.116 --     2 C    2.085    72 H    0.914
     2   6 C    3.247 --     1 N    2.085     3 C    1.032
     3   6 C    3.952 --     2 C    1.032     4 C    0.965    14 C    0.947
                            31 C    0.898
     4   6 C    3.955 --    13 C    1.425     5 C    1.366     3 C    0.965
     5   6 C    3.968 --     6 C    1.406     4 C    1.366    34 H    0.958
     6   6 C    3.917 --     5 C    1.406     9 C    1.229     7 O    1.093
     7   8 O    2.259 --     6 C    1.093     8 C    0.980
     8   6 C    3.936 --     7 O    0.980    36 H    0.977    37 H    0.975
                            35 H    0.974
     9   6 C    3.916 --    12 C    1.398     6 C    1.229    10 O    1.097
    10   8 O    2.259 --     9 C    1.097    11 C    0.978
    11   6 C    3.934 --    10 O    0.978    39 H    0.977    38 H    0.974
                            40 H    0.974
    12   6 C    3.969 --    13 C    1.401     9 C    1.398    41 H    0.964
    13   6 C    3.963 --     4 C    1.425    12 C    1.401    42 H    0.959
    14   6 C    3.985 --    15 C    1.002    44 H    0.972    43 H    0.967
                             3 C    0.947
    15   6 C    3.988 --    16 C    1.007    14 C    1.002    46 H    0.973
                            45 H    0.966
    16   6 C    3.904 --    15 C    1.007    48 H    0.968    47 H    0.936
                            17 N    0.924
    17   7 N    3.755 --    30 C    0.968    16 C    0.924    49 H    0.923
                            18 C    0.902
    18   6 C    2.974 --    19 C    1.032    50 H    0.965    17 N    0.902
    19   6 C    3.976 --    18 C    1.032    20 C    1.006    52 H    0.945
                            51 H    0.938
    20   6 C    3.944 --    21 C    1.413    29 C    1.377    19 C    1.006
    21   6 C    3.947 --    20 C    1.413    22 C    1.411    53 H    0.968
    22   6 C    3.959 --    21 C    1.411    23 C    1.388    54 H    0.963
    23   6 C    3.893 --    22 C    1.388    26 C    1.223    24 O    1.100
    24   8 O    2.245 --    23 C    1.100    25 C    0.978
    25   6 C    3.931 --    24 O    0.978    57 H    0.977    56 H    0.973
                            55 H    0.973
    26   6 C    3.898 --    29 C    1.400    23 C    1.223    27 O    1.096
    27   8 O    2.247 --    26 C    1.096    28 C    0.981
    28   6 C    3.935 --    27 O    0.981    58 H    0.977    59 H    0.974
                            60 H    0.974
    29   6 C    3.958 --    26 C    1.400    20 C    1.377    61 H    0.960
    30   6 C    3.934 --    63 H    0.979    62 H    0.977    64 H    0.975
                            17 N    0.968
    31   6 C    3.937 --    33 C    1.014    32 C    1.013    65 H    0.954
                             3 C    0.898
    32   6 C    3.990 --    31 C    1.013    67 H    0.983    66 H    0.982
                            68 H    0.981
    33   6 C    3.988 --    31 C    1.014    70 H    0.984    71 H    0.979
                            69 H    0.978
    34   1 H    0.997 --     5 C    0.958
    35   1 H    0.995 --     8 C    0.974
    36   1 H    0.993 --     8 C    0.977
    37   1 H    0.996 --     8 C    0.975
    38   1 H    0.995 --    11 C    0.974
    39   1 H    0.993 --    11 C    0.977
    40   1 H    0.995 --    11 C    0.974
    41   1 H    0.996 --    12 C    0.964
    42   1 H    0.998 --    13 C    0.959
    43   1 H    0.995 --    14 C    0.967
    44   1 H    0.996 --    14 C    0.972
    45   1 H    0.997 --    15 C    0.966
    46   1 H    0.996 --    15 C    0.973
    47   1 H    0.993 --    16 C    0.936
    48   1 H    0.994 --    16 C    0.968
    49   1 H    0.953 --    17 N    0.923
    50   1 H    0.990 --    18 C    0.965
    51   1 H    0.957 --    19 C    0.938
    52   1 H    0.978 --    19 C    0.945
    53   1 H    0.998 --    21 C    0.968
    54   1 H    0.995 --    22 C    0.963
    55   1 H    0.992 --    25 C    0.973
    56   1 H    0.992 --    25 C    0.973
    57   1 H    0.993 --    25 C    0.977
    58   1 H    0.993 --    28 C    0.977
    59   1 H    0.994 --    28 C    0.974
    60   1 H    0.993 --    28 C    0.974
    61   1 H    0.996 --    29 C    0.960
    62   1 H    0.991 --    30 C    0.977
    63   1 H    0.993 --    30 C    0.979
    64   1 H    0.990 --    30 C    0.975
    65   1 H    0.989 --    31 C    0.954
    66   1 H    0.996 --    32 C    0.982
    67   1 H    0.998 --    32 C    0.983
    68   1 H    0.995 --    32 C    0.981
    69   1 H    0.996 --    33 C    0.978
    70   1 H    0.998 --    33 C    0.984
    71   1 H    0.993 --    33 C    0.979
    72   1 H    0.937 --     1 N    0.914
 ---------------------------------------------------------------------------

molecular dipole:
                 x           y           z       tot (Debye)
 q only:       -0.180       0.033      -1.399
   full:       -0.300       0.282      -1.378       3.656

           -------------------------------------------------
          | TOTAL ENERGY              -99.304483999552 Eh   |
          | GRADIENT NORM               0.004919713031 Eh/α |
          | HOMO-LUMO GAP               0.674595402260 eV   |
           -------------------------------------------------

 * finished run on 2024/04/06 at 11:16:52.597
