   * xtb version 6.6.1 (8d0f1dd) compiled by 'conda@1efc2f54142f' on 2023-08-01
          program call               : xtb struc.xyz --opt loose --input .xc1 --gfn2

   ID    Z sym.   atoms
    1    6 C      1, 3, 5-7, 10, 11, 14
    2    7 N      2, 4, 9, 13
    3    8 O      8, 12
    4    1 H      15-25
constraining bond 6 8 to    4.7600000 Å, actual value:    2.3687222 Å

          :  Hamiltonian                  GFN2-xTB          :
 * total energy  :   -21.8277648 Eh     change       -0.6650680E-10 Eh
 * total energy  :   -30.7833474 Eh     change       -0.8955583E+01 Eh
 * total energy  :   -36.5251811 Eh     change       -0.5741834E+01 Eh
 * total energy  :   -39.8969059 Eh     change       -0.3371725E+01 Eh
 * total energy  :   -41.2163692 Eh     change       -0.1319463E+01 Eh
 * total energy  :   -41.4034054 Eh     change       -0.1870362E+00 Eh
 * total energy  :   -41.4771890 Eh     change       -0.7378358E-01 Eh
 * total energy  :   -41.5327336 Eh     change       -0.5554455E-01 Eh
 * total energy  :   -41.5709543 Eh     change       -0.3822074E-01 Eh
 * total energy  :   -41.6095935 Eh     change       -0.3863917E-01 Eh
 * total energy  :   -42.1568992 Eh     change       -0.2697985E-03 Eh
 * total energy  :   -42.1572593 Eh     change       -0.3600783E-03 Eh
 * total energy  :   -42.1574699 Eh     change       -0.2106779E-03 Eh
 * total energy  :   -42.1576713 Eh     change       -0.2013550E-03 Eh
 * total energy  :   -42.1578423 Eh     change       -0.1709983E-03 Eh
 * total energy  :   -42.1579323 Eh     change       -0.9001956E-04 Eh
 * total energy  :   -42.1579810 Eh     change       -0.4865564E-04 Eh
 * total energy  :   -42.1580255 Eh     change       -0.4448421E-04 Eh
 * total energy  :   -42.1580587 Eh     change       -0.3327742E-04 Eh
   *** GEOMETRY OPTIMIZATION CONVERGED AFTER 74 ITERATIONS ***

 final structure:
================
25
 xtb: 6.6.1 (8d0f1dd)
C            3.42436766421929        0.86340767205207        0.34151656649221
N            2.41178711945390       -0.14251883543629        0.17639160701933
C            2.59127455057445       -1.45668583499474        0.07690005828492
N            1.39329329037482       -2.08004105699003       -0.06373290085653
C            0.42448765892187       -1.12689632135444       -0.05292858669305
C            1.06287814480948        0.10776486728330        0.10345379976852
C            0.30925268781833        1.30807178002492        0.13848095140999
O           -2.90935866669280        2.62515511522861       -0.60321911785368
N           -1.02001141993985        1.14901559467775        0.03237769709813
C           -1.89278740114515        2.35654787613104        0.28790391706661
C           -1.71330901357216       -0.06426297926789       -0.09060150236060
O           -2.90386489491646       -0.14136586719970       -0.12640752756611
N           -0.90832824336128       -1.23262892003669       -0.16329606041231
C           -1.56700590250264       -2.51670419023318       -0.30443324565025
H            3.91270073161107        0.75855566397780        1.31141256835541
H            4.17767968587374        0.77893285309585       -0.44165876837656
H            2.94462650481641        1.83864350335626        0.28522594830017
H            3.53721485996760       -1.95877842339035        0.10201041382341
H           -2.57391391471972        2.97847970513595       -1.43789067701854
H           -2.39185233354801        2.16539228119772        1.24598081344849
H           -1.17556389201696        3.18080484349671        0.39314760502364
H           -1.37875700748167       -3.14178699772044        0.56941186541952
H           -1.22457086518846       -3.02166123079825       -1.20840383881717
H           -2.63787940294328       -2.33055331921729       -0.38270346330816
H            1.26807157368960       -3.07864923741960       -0.15776650469738

          :  Hamiltonian                  GFN2-xTB          :
         :: total energy             -42.158058734147 Eh    ::
         :: gradient norm              0.002839916292 Eh/a0 ::
         :: HOMO-LUMO gap              1.695138947067 eV    ::
         :: SCC energy               -42.659389710852 Eh    ::
         :: -> dispersion             -0.022072746288 Eh    ::
         :: repulsion energy           0.501178138848 Eh    ::

    * Orbital Energies and Occupations

         #    Occupation            Energy/Eh            Energy/eV
      -------------------------------------------------------------
         1        2.0000           -0.9031996             -24.5773
       ...           ...                  ...                  ...
        25        2.0000           -0.6652962             -18.1036
        26        2.0000           -0.6592792             -17.9399
        27        2.0000           -0.6522802             -17.7494
        28        1.9999           -0.6326372             -17.2149
        29        1.9999           -0.6271664             -17.0661
        30        1.9998           -0.6211390             -16.9021
        31        1.9998           -0.6169068             -16.7869
        32        1.9994           -0.6022716             -16.3886
        33        1.9976           -0.5802063             -15.7882
        34        1.9974           -0.5789461             -15.7539
        35        1.9870           -0.5531653             -15.0524
        36        1.9859           -0.5519063             -15.0181
        37        1.7578           -0.5049317             -13.7399 (HOMO)
        38        0.2486           -0.4426365             -12.0448 (LUMO)
        39        0.0240           -0.4037348             -10.9862
        40        0.0028           -0.3697598             -10.0617
        41        0.0000           -0.2862950              -7.7905
        42        0.0000           -0.2104410              -5.7264
        43                         -0.1915352              -5.2119
        44                         -0.1435322              -3.9057
        45                         -0.1344047              -3.6573
        46                         -0.0741933              -2.0189
        47                         -0.0470458              -1.2802
        48                         -0.0437347              -1.1901
       ...                                ...                  ...
        67                          0.5497622              14.9598
      -------------------------------------------------------------
                  HL-Gap            0.0622952 Eh            1.6951 eV

     #   Z          covCN         q      C6AA      α(0)
     1   6 C        3.692    -0.090    22.403     6.773
     2   7 N        2.825     0.069    20.033     6.648
     3   6 C        3.056     0.049    26.848     8.498
     4   7 N        2.785    -0.064    22.475     7.041
     5   6 C        3.041     0.116    25.415     8.269
     6   6 C        3.117     0.021    27.376     8.570
     7   6 C        1.916    -0.119    34.432     9.476
     8   8 O        1.657    -0.373    20.332     6.087
     9   7 N        2.742    -0.045    22.106     6.983
    10   6 C        3.619     0.130    18.893     6.269
    11   6 C        2.715     0.318    21.598     7.607
    12   8 O        0.859    -0.339    20.498     6.070
    13   7 N        2.737    -0.053    22.274     7.010
    14   6 C        3.697    -0.069    22.006     6.710
    15   1 H        0.924     0.106     1.735     2.060
    16   1 H        0.925     0.104     1.750     2.069
    17   1 H        0.925     0.121     1.602     1.979
    18   1 H        0.926     0.117     1.641     2.003
    19   1 H        0.805     0.317     0.673     1.289
    20   1 H        0.924     0.100     1.788     2.091
    21   1 H        0.924     0.078     2.000     2.212
    22   1 H        0.924     0.080     1.978     2.199
    23   1 H        0.924     0.080     1.982     2.202
    24   1 H        0.925     0.125     1.577     1.964
    25   1 H        0.860     0.223     0.995     1.563

Wiberg/Mayer (AO) data.
largest (>0.10) Wiberg bond orders for each atom

     #   Z sym  total        # sym  WBO       # sym  WBO       # sym  WBO
 ---------------------------------------------------------------------------
     1   6 C    3.925 --     2 N    0.989    17 H    0.970    16 H    0.963
                            15 H    0.959
     2   7 N    3.643 --     3 C    1.381     6 C    1.140     1 C    0.989
     3   6 C    3.801 --     2 N    1.381     4 N    1.255    18 H    0.955
     4   7 N    3.583 --     3 C    1.255     5 C    1.201    25 H    0.920
     5   6 C    3.906 --     6 C    1.282    13 N    1.233     4 N    1.201
     6   6 C    3.897 --     5 C    1.282     7 C    1.231     2 N    1.140
     7   6 C    2.770 --     9 N    1.356     6 C    1.231
     8   8 O    2.038 --    10 C    1.070    19 H    0.884
     9   7 N    3.581 --     7 C    1.356    11 C    1.071    10 C    0.901
                            12 O    0.116
    10   6 C    3.918 --     8 O    1.070    21 H    0.957    20 H    0.949
                             9 N    0.901
    11   6 C    3.937 --    12 O    1.742     9 N    1.071    13 N    1.030
    12   8 O    2.078 --    11 C    1.742    13 N    0.133     9 N    0.116
    13   7 N    3.553 --     5 C    1.233    11 C    1.030    14 C    0.975
                            12 O    0.133
    14   6 C    3.927 --    13 N    0.975    23 H    0.971    22 H    0.970
                            24 H    0.965
    15   1 H    0.984 --     1 C    0.959
    16   1 H    0.986 --     1 C    0.963
    17   1 H    0.985 --     1 C    0.970
    18   1 H    0.985 --     3 C    0.955
    19   1 H    0.899 --     8 O    0.884
    20   1 H    0.985 --    10 C    0.949
    21   1 H    0.990 --    10 C    0.957
    22   1 H    0.991 --    14 C    0.970
    23   1 H    0.991 --    14 C    0.971
    24   1 H    0.984 --    14 C    0.965
    25   1 H    0.949 --     4 N    0.920
 ---------------------------------------------------------------------------

molecular dipole:
                 x           y           z       tot (Debye)
 q only:        3.084      -1.271      -0.040
   full:        3.416      -2.024      -0.182      10.103

           -------------------------------------------------
          | TOTAL ENERGY              -42.158058734147 Eh   |
          | GRADIENT NORM               0.002839916292 Eh/α |
          | HOMO-LUMO GAP               1.695138947067 eV   |
           -------------------------------------------------

 * finished run on 2024/06/05 at 19:59:14.574
