   * xtb version 6.6.1 (8d0f1dd) compiled by 'conda@1efc2f54142f' on 2023-08-01
          program call               : xtb xtbopt.xyz --opt crude --input .xc2 --gfn2

   ID    Z sym.   atoms
    1    6 C      1, 3, 5-7, 10, 11, 14
    2    7 N      2, 4, 9, 13
    3    8 O      8, 12
    4    1 H      15-25
########################################################################
[WARNING] Please study the warnings concerning your input carefully
-1- readin_getIntValue: could not parse ''
########################################################################

          :  Hamiltonian                  GFN2-xTB          :
 * total energy  :   -42.1581293 Eh     change       -0.2202682E-12 Eh
 * total energy  :   -42.1600402 Eh     change       -0.1910914E-02 Eh
 * total energy  :   -42.1607613 Eh     change       -0.7211147E-03 Eh
 * total energy  :   -42.1611737 Eh     change       -0.4123582E-03 Eh
   *** GEOMETRY OPTIMIZATION CONVERGED AFTER 4 ITERATIONS ***

 final structure:
================
25
 xtb: 6.6.1 (8d0f1dd)
C            3.39542969481910        0.88483451485095        0.33089200352290
N            2.38586865105992       -0.12115820105106        0.15127554177431
C            2.57473621796508       -1.43266018356502        0.04723841392843
N            1.38058943267406       -2.06307871760676       -0.09067949964936
C            0.40620738748354       -1.11671333919243       -0.06796066365007
C            1.03183844651386        0.12634105488944        0.08496098824948
C            0.30434951557415        1.32233124541786        0.18344767728929
O           -2.75997976028331        2.52276073671901       -0.71257850260842
N           -1.01669119696872        1.13434569789306        0.12629133459564
C           -1.87124016997196        2.33470114614043        0.31578593177521
C           -1.72265015675253       -0.06973477222152       -0.02149846030020
O           -2.91434521946657       -0.14266442613929       -0.03195738435400
N           -0.92530401932267       -1.23446179872912       -0.15299204608962
C           -1.58260080938527       -2.51730023692116       -0.30667998684970
H            3.87767777427640        0.77212764699157        1.30277132081347
H            4.15399731493220        0.80775105361084       -0.44769979322021
H            2.91513566315864        1.85977295034220        0.28098633528666
H            3.52390611257881       -1.92922697911512        0.07230426671607
H           -2.33743989337241        2.89328443874283       -1.50087683576671
H           -2.46552036126226        2.17687109368976        1.22661442253304
H           -1.16954467075397        3.16510250718953        0.46089206992622
H           -1.38132631759995       -3.15527015774942        0.55476804276043
H           -1.24930655498042       -3.00616756110866       -1.22237927053582
H           -2.65425103776894       -2.33149794735062       -0.36898169493666
H            1.26089547095542       -3.06205122412821       -0.18277259331037

          :  Hamiltonian                  GFN2-xTB          :
         :: total energy             -42.161173656813 Eh    ::
         :: gradient norm              0.006410943040 Eh/a0 ::
         :: HOMO-LUMO gap              1.752363209437 eV    ::
         :: SCC energy               -42.668546050208 Eh    ::
         :: -> dispersion             -0.022213571578 Eh    ::
         :: repulsion energy           0.507275297955 Eh    ::

    * Orbital Energies and Occupations

         #    Occupation            Energy/Eh            Energy/eV
      -------------------------------------------------------------
         1        2.0000           -0.9037473             -24.5922
       ...           ...                  ...                  ...
        25        2.0000           -0.6668665             -18.1464
        26        2.0000           -0.6589597             -17.9312
        27        2.0000           -0.6529152             -17.7667
        28        1.9999           -0.6327271             -17.2174
        29        1.9999           -0.6281285             -17.0922
        30        1.9998           -0.6216517             -16.9160
        31        1.9998           -0.6172953             -16.7975
        32        1.9993           -0.6005746             -16.3425
        33        1.9976           -0.5808399             -15.8055
        34        1.9969           -0.5767629             -15.6945
        35        1.9872           -0.5543566             -15.0848
        36        1.9855           -0.5523699             -15.0308
        37        1.7729           -0.5070276             -13.7969 (HOMO)
        38        0.2358           -0.4426295             -12.0446 (LUMO)
        39        0.0230           -0.4039363             -10.9917
        40        0.0027           -0.3695982             -10.0573
        41        0.0000           -0.2839965              -7.7279
        42                         -0.2002306              -5.4486
        43                         -0.1907075              -5.1894
        44                         -0.1349790              -3.6730
        45                         -0.1221878              -3.3249
        46                         -0.0721001              -1.9619
        47                         -0.0453801              -1.2349
        48                         -0.0386867              -1.0527
       ...                                ...                  ...
        67                          0.5533629              15.0578
      -------------------------------------------------------------
                  HL-Gap            0.0643982 Eh            1.7524 eV

     #   Z          covCN         q      C6AA      α(0)
     1   6 C        3.692    -0.090    22.408     6.774
     2   7 N        2.828     0.067    20.069     6.653
     3   6 C        3.050     0.050    26.838     8.496
     4   7 N        2.782    -0.064    22.471     7.040
     5   6 C        3.047     0.115    25.420     8.269
     6   6 C        3.120     0.021    27.360     8.567
     7   6 C        1.921    -0.122    34.523     9.489
     8   8 O        1.657    -0.380    20.462     6.107
     9   7 N        2.759    -0.039    21.994     6.965
    10   6 C        3.631     0.132    18.798     6.242
    11   6 C        2.720     0.318    21.603     7.609
    12   8 O        0.859    -0.337    20.458     6.064
    13   7 N        2.738    -0.051    22.231     7.003
    14   6 C        3.696    -0.070    22.013     6.711
    15   1 H        0.924     0.106     1.735     2.060
    16   1 H        0.925     0.104     1.749     2.068
    17   1 H        0.925     0.122     1.600     1.978
    18   1 H        0.926     0.117     1.637     2.001
    19   1 H        0.805     0.316     0.674     1.290
    20   1 H        0.923     0.098     1.799     2.098
    21   1 H        0.924     0.076     2.020     2.223
    22   1 H        0.924     0.081     1.973     2.196
    23   1 H        0.924     0.081     1.971     2.196
    24   1 H        0.925     0.125     1.574     1.962
    25   1 H        0.860     0.224     0.993     1.561

Wiberg/Mayer (AO) data.
largest (>0.10) Wiberg bond orders for each atom

     #   Z sym  total        # sym  WBO       # sym  WBO       # sym  WBO
 ---------------------------------------------------------------------------
     1   6 C    3.925 --     2 N    0.989    17 H    0.969    16 H    0.963
                            15 H    0.959
     2   7 N    3.644 --     3 C    1.387     6 C    1.134     1 C    0.989
     3   6 C    3.806 --     2 N    1.387     4 N    1.254    18 H    0.955
     4   7 N    3.584 --     3 C    1.254     5 C    1.202    25 H    0.920
     5   6 C    3.907 --     6 C    1.278    13 N    1.236     4 N    1.202
     6   6 C    3.896 --     5 C    1.278     7 C    1.240     2 N    1.134
     7   6 C    2.784 --     9 N    1.358     6 C    1.240
     8   8 O    2.025 --    10 C    1.059    19 H    0.884
     9   7 N    3.591 --     7 C    1.358    11 C    1.065    10 C    0.916
                            12 O    0.116
    10   6 C    3.919 --     8 O    1.059    21 H    0.957    20 H    0.948
                             9 N    0.916
    11   6 C    3.938 --    12 O    1.743     9 N    1.065    13 N    1.033
    12   8 O    2.079 --    11 C    1.743    13 N    0.133     9 N    0.116
    13   7 N    3.557 --     5 C    1.236    11 C    1.033    14 C    0.975
                            12 O    0.133
    14   6 C    3.927 --    13 N    0.975    23 H    0.971    22 H    0.970
                            24 H    0.965
    15   1 H    0.984 --     1 C    0.959
    16   1 H    0.986 --     1 C    0.963
    17   1 H    0.985 --     1 C    0.969
    18   1 H    0.985 --     3 C    0.955
    19   1 H    0.899 --     8 O    0.884
    20   1 H    0.985 --    10 C    0.948
    21   1 H    0.990 --    10 C    0.957
    22   1 H    0.991 --    14 C    0.970
    23   1 H    0.991 --    14 C    0.971
    24   1 H    0.984 --    14 C    0.965
    25   1 H    0.949 --     4 N    0.920
 ---------------------------------------------------------------------------

molecular dipole:
                 x           y           z       tot (Debye)
 q only:        3.090      -1.286      -0.048
   full:        3.428      -2.021      -0.166      10.124

           -------------------------------------------------
          | TOTAL ENERGY              -42.161173656813 Eh   |
          | GRADIENT NORM               0.006410943040 Eh/α |
          | HOMO-LUMO GAP               1.752363209437 eV   |
           -------------------------------------------------

 * finished run on 2024/06/05 at 19:59:14.802
