   * xtb version 6.6.1 (8d0f1dd) compiled by 'conda@1efc2f54142f' on 2023-08-01
          program call               : xtb struc.xyz --opt loose --input .xc1 --gfn2

   ID    Z sym.   atoms
    1    6 C      1, 3, 5-7, 10, 11, 14
    2    7 N      2, 4, 9, 13
    3    8 O      8, 12
    4    1 H      15-25
constraining bond 7 12 to    5.7600000 Å, actual value:    3.5721419 Å

          :  Hamiltonian                  GFN2-xTB          :
 * total energy  :    -8.0604688 Eh     change       -0.6650680E-10 Eh
 * total energy  :   -25.6228695 Eh     change       -0.1756240E+02 Eh
 * total energy  :   -35.4419969 Eh     change       -0.9819127E+01 Eh
 * total energy  :   -40.4512930 Eh     change       -0.5009296E+01 Eh
 * total energy  :   -41.7603122 Eh     change       -0.1309019E+01 Eh
 * total energy  :   -41.8215619 Eh     change       -0.6124966E-01 Eh
 * total energy  :   -41.8293936 Eh     change       -0.7831734E-02 Eh
 * total energy  :   -41.8555146 Eh     change       -0.2612101E-01 Eh
 * total energy  :   -41.8605875 Eh     change       -0.5072837E-02 Eh
 * total energy  :   -41.8729184 Eh     change       -0.1233095E-01 Eh
 * total energy  :   -42.1446071 Eh     change       -0.1131674E-03 Eh
 * total energy  :   -42.1447599 Eh     change       -0.1528622E-03 Eh
 * total energy  :   -42.1449074 Eh     change       -0.1474623E-03 Eh
 * total energy  :   -42.1449543 Eh     change       -0.4692147E-04 Eh
 * total energy  :   -42.1450386 Eh     change       -0.8431387E-04 Eh
 * total energy  :   -42.1450794 Eh     change       -0.4073289E-04 Eh
 * total energy  :   -42.1451237 Eh     change       -0.4430185E-04 Eh
 * total energy  :   -42.1451621 Eh     change       -0.3848057E-04 Eh
 * total energy  :   -42.1451833 Eh     change       -0.2111401E-04 Eh
   *** GEOMETRY OPTIMIZATION CONVERGED AFTER 65 ITERATIONS ***

 final structure:
================
25
 xtb: 6.6.1 (8d0f1dd)
C            4.13225206036483        0.76480486530173       -0.02629334602527
N            3.07030132184448       -0.19956698864775       -0.03339508683474
C            3.17556662422179       -1.51028301969350       -0.13260104641582
N            1.97073293895047       -2.09052803443020       -0.09832656486254
C            0.95529689020181       -1.11658447866843        0.03307253936046
C            1.70902048078292        0.14049974099410        0.07475231858300
C            1.21834789111840        1.36813756935284        0.18568037714071
O            0.71917085394125        2.40688854517991        0.28160240355159
N           -3.68304340407553        1.32202247168627       -0.07194697907870
C           -4.03297461914868        2.68130022305730       -0.00996080963698
C           -3.97009876393374        0.17231205869475       -0.01437035712916
O           -4.03551442968351       -0.98481211140517       -0.00521645292072
N           -0.29139850141973       -1.25332867025776        0.09843689602930
C           -0.99346006595785       -2.49448161856754        0.05497039893443
H            4.15338077143895        1.29701335721274        0.92691386225682
H            5.08503540670235        0.26098758836218       -0.17329672079297
H            3.98421371512802        1.49360663746977       -0.82494103796844
H            4.10614491568552       -2.03932570063518       -0.22563389780853
H           -3.10809478141763        3.25978495732733       -0.01362641560446
H           -4.63187214708393        2.96236305526108       -0.87923570918533
H           -4.59228805861539        2.90451612652993        0.90053877437519
H           -0.77892612135508       -3.09954763703014        0.94067967677769
H           -0.74602632583997       -3.07688558951109       -0.83738180301973
H           -2.05912752779538       -2.26772092440905        0.04183394212927
H            1.80379239004746       -3.08293388157350       -0.16108334395390

          :  Hamiltonian                  GFN2-xTB          :
         :: total energy             -42.145183261534 Eh    ::
         :: gradient norm              0.003267594468 Eh/a0 ::
         :: HOMO-LUMO gap              2.285221931580 eV    ::
         :: SCC energy               -42.765609343987 Eh    ::
         :: -> dispersion             -0.017387212338 Eh    ::
         :: repulsion energy           0.620388740663 Eh    ::

    * Orbital Energies and Occupations

         #    Occupation            Energy/Eh            Energy/eV
      -------------------------------------------------------------
         1        2.0000           -0.9087804             -24.7292
       ...           ...                  ...                  ...
        25        2.0000           -0.6486825             -17.6515
        26        2.0000           -0.6417103             -17.4618
        27        1.9999           -0.6399033             -17.4127
        28        1.9999           -0.6389687             -17.3872
        29        1.9997           -0.6139738             -16.7071
        30        1.9997           -0.6116533             -16.6439
        31        1.9997           -0.6112439             -16.6328
        32        1.9994           -0.6000771             -16.3289
        33        1.9991           -0.5942811             -16.1712
        34        1.9407           -0.5275661             -14.3558
        35        1.9292           -0.5246787             -14.2772
        36        1.9156           -0.5217660             -14.1980
        37        1.8930           -0.5178253             -14.0907 (HOMO)
        38        0.1617           -0.4338449             -11.8055 (LUMO)
        39        0.1593           -0.4335853             -11.7985
        40        0.0031           -0.3700599             -10.0698
        41        0.0000           -0.2907496              -7.9117
        42        0.0000           -0.2872103              -7.8154
        43        0.0000           -0.2711596              -7.3786
        44                         -0.1782168              -4.8495
        45                         -0.1438247              -3.9137
        46                         -0.0867936              -2.3618
        47                         -0.0596936              -1.6243
        48                         -0.0472544              -1.2859
       ...                                ...                  ...
        67                          1.2357029              33.6252
      -------------------------------------------------------------
                  HL-Gap            0.0839804 Eh            2.2852 eV

     #   Z          covCN         q      C6AA      α(0)
     1   6 C        3.691    -0.084    22.292     6.756
     2   7 N        2.802     0.059    20.215     6.678
     3   6 C        2.956     0.078    26.254     8.404
     4   7 N        2.772    -0.091    23.024     7.127
     5   6 C        2.926     0.156    24.632     8.139
     6   6 C        3.040    -0.021    28.483     8.754
     7   6 C        1.843     0.252    25.337     8.131
     8   8 O        0.856    -0.118    16.781     5.492
     9   7 N        1.820    -0.141    24.833     7.384
    10   6 C        3.685    -0.032    21.349     6.615
    11   6 C        1.769     0.313    24.195     7.953
    12   8 O        0.856    -0.258    19.046     5.851
    13   7 N        1.824    -0.211    26.419     7.616
    14   6 C        3.701    -0.042    21.492     6.629
    15   1 H        0.924     0.102     1.771     2.081
    16   1 H        0.925     0.102     1.763     2.076
    17   1 H        0.924     0.101     1.776     2.084
    18   1 H        0.926     0.114     1.665     2.018
    19   1 H        0.924     0.094     1.845     2.124
    20   1 H        0.924     0.090     1.883     2.146
    21   1 H        0.924     0.087     1.910     2.161
    22   1 H        0.924     0.068     2.105     2.269
    23   1 H        0.924     0.060     2.198     2.318
    24   1 H        0.925     0.105     1.744     2.065
    25   1 H        0.860     0.219     1.014     1.577

Wiberg/Mayer (AO) data.
largest (>0.10) Wiberg bond orders for each atom

     #   Z sym  total        # sym  WBO       # sym  WBO       # sym  WBO
 ---------------------------------------------------------------------------
     1   6 C    3.935 --     2 N    0.994    16 H    0.974    17 H    0.963
                            15 H    0.962
     2   7 N    3.619 --     3 C    1.402     6 C    1.043     1 C    0.994
                             4 N    0.111
     3   6 C    3.839 --     2 N    1.402     4 N    1.316    18 H    0.949
     4   7 N    3.536 --     3 C    1.316     5 C    1.034    25 H    0.923
                             2 N    0.111
     5   6 C    3.927 --    13 N    1.708     6 C    1.041     4 N    1.034
     6   6 C    3.871 --     7 C    1.478     2 N    1.043     5 C    1.041
                             8 O    0.151
     7   6 C    3.700 --     8 O    2.082     6 C    1.478
     8   8 O    2.356 --     7 C    2.082     6 C    0.151
     9   7 N    3.359 --    11 C    1.986    10 C    1.025    12 O    0.348
    10   6 C    3.923 --     9 N    1.025    19 H    0.960    21 H    0.951
                            20 H    0.950
    11   6 C    3.935 --     9 N    1.986    12 O    1.880
    12   8 O    2.273 --    11 C    1.880     9 N    0.348
    13   7 N    3.015 --     5 C    1.708    14 C    1.029
    14   6 C    3.939 --    13 N    1.029    24 H    0.959    23 H    0.955
                            22 H    0.951
    15   1 H    0.986 --     1 C    0.962
    16   1 H    0.989 --     1 C    0.974
    17   1 H    0.987 --     1 C    0.963
    18   1 H    0.984 --     3 C    0.949
    19   1 H    0.980 --    10 C    0.960
    20   1 H    0.974 --    10 C    0.950
    21   1 H    0.976 --    10 C    0.951
    22   1 H    0.979 --    14 C    0.951
    23   1 H    0.980 --    14 C    0.955
    24   1 H    0.976 --    14 C    0.959
    25   1 H    0.950 --     4 N    0.923
 ---------------------------------------------------------------------------

molecular dipole:
                 x           y           z       tot (Debye)
 q only:        2.982      -0.231      -0.097
   full:        3.239      -0.660      -0.129       8.409

           -------------------------------------------------
          | TOTAL ENERGY              -42.145183261534 Eh   |
          | GRADIENT NORM               0.003267594468 Eh/α |
          | HOMO-LUMO GAP               2.285221931580 eV   |
           -------------------------------------------------

 * finished run on 2024/06/05 at 20:00:15.126
