   * xtb version 6.6.1 (8d0f1dd) compiled by 'conda@1efc2f54142f' on 2023-08-01
          program call               : xtb xtbopt.xyz --opt crude --input .xc2 --gfn2

   ID    Z sym.   atoms
    1    6 C      1, 3, 5-7, 10, 11, 14
    2    7 N      2, 4, 9, 13
    3    8 O      8, 12
    4    1 H      15-25

          :  Hamiltonian                  GFN2-xTB          :
 * total energy  :   -42.1692835 Eh     change       -0.1776357E-12 Eh
   *** GEOMETRY OPTIMIZATION CONVERGED AFTER 1 ITERATIONS ***

 final structure:
================
25
 xtb: 6.6.1 (8d0f1dd)
C            3.20283782984448        1.17279652361060        0.01841416475977
N            2.21380127057629        0.13375813657208        0.00029299937016
C            2.42791380106730       -1.20104341421972       -0.00419222470301
N            1.31054829103502       -1.89906805200519       -0.00408565325959
C            0.31185549320729       -0.99413460340337        0.00162804660180
C            0.85640256479111        0.29932962959506        0.00546545828254
C            0.02926007840112        1.47543854774237       -0.00271133929006
O            0.42133506860128        2.62410244157779       -0.01456919519481
N           -1.32955266967273        1.14836904065101        0.00162903004290
C           -2.28309017197502        2.24144016090384       -0.00196354445570
C           -1.88935080327952       -0.12474081174574        0.00342467645993
O           -3.08608899959429       -0.27623467921508        0.00545592242489
N           -1.02007599286912       -1.21449957685545        0.00150417500905
C           -1.55595761514457       -2.55485503600663       -0.00138058920124
H            3.71330599452899        1.19505766598049        0.98436408240379
H            3.94548187626634        1.00041001482874       -0.76178015520836
H            2.71483624787034        2.13433061611781       -0.14422305060860
H            3.40207890103917       -1.65005087691369       -0.00894358939002
H           -1.72974490206192        3.18000602869957        0.00532987751519
H           -2.91662457770328        2.18400972940973       -0.88979523976804
H           -2.93022817070319        2.17688089139279        0.87535947067308
H           -1.20466598705845       -3.09684685844854        0.87795573088624
H           -1.21996811993189       -3.08737023694220       -0.89258409172490
H           -2.64377254721307       -2.49171758923327        0.00779481118410
H            2.41989465407833       -4.55712915049304       -0.03121815490911

          :  Hamiltonian                  GFN2-xTB          :
         :: total energy             -42.169283534632 Eh    ::
         :: gradient norm              0.001849820883 Eh/a0 ::
         :: HOMO-LUMO gap              1.171939223235 eV    ::
         :: SCC energy               -42.677674217654 Eh    ::
         :: -> dispersion             -0.022425323740 Eh    ::
         :: repulsion energy           0.508297676895 Eh    ::

    * Orbital Energies and Occupations

         #    Occupation            Energy/Eh            Energy/eV
      -------------------------------------------------------------
         1        2.0000           -0.8943960             -24.3378
       ...           ...                  ...                  ...
        25        1.9963           -0.6687384             -18.1973
        26        1.9945           -0.6589632             -17.9313
        27        1.9918           -0.6496005             -17.6765
        28        1.9893           -0.6432962             -17.5050
        29        1.9810           -0.6295159             -17.1300
        30        1.9735           -0.6214807             -16.9114
        31        1.9658           -0.6153423             -16.7443
        32        1.9500           -0.6061209             -16.4934
        33        1.9375           -0.6006770             -16.3453
        34        1.8880           -0.5862131             -15.9517
        35        1.8680           -0.5820503             -15.8384
        36        1.8532           -0.5793369             -15.7646
        37        1.6630           -0.5570287             -15.1575 (HOMO)
        38        0.8919           -0.5139608             -13.9856 (LUMO)
        39        0.0527           -0.4333760             -11.7928
        40        0.0094           -0.3919156             -10.6646
        41        0.0047           -0.3752721             -10.2117
        42        0.0002           -0.2965124              -8.0685
        43        0.0000           -0.2090678              -5.6890
        44        0.0000           -0.1603302              -4.3628
        45        0.0000           -0.1406899              -3.8284
        46                         -0.0801132              -2.1800
        47                         -0.0614420              -1.6719
        48                         -0.0415670              -1.1311
       ...                                ...                  ...
        67                          0.5249018              14.2833
      -------------------------------------------------------------
                  HL-Gap            0.0430680 Eh            1.1719 eV

     #   Z          covCN         q      C6AA      α(0)
     1   6 C        3.689    -0.081    22.247     6.751
     2   7 N        2.827     0.051    20.353     6.701
     3   6 C        3.174     0.094    25.546     8.255
     4   7 N        1.900    -0.196    26.072     7.570
     5   6 C        3.156     0.132    24.845     8.150
     6   6 C        3.117    -0.008    28.055     8.676
     7   6 C        2.764     0.270    22.439     7.758
     8   8 O        0.858    -0.331    20.344     6.047
     9   7 N        2.746    -0.066    22.510     7.047
    10   6 C        3.708    -0.061    21.820     6.677
    11   6 C        2.729     0.315    21.640     7.616
    12   8 O        0.860    -0.329    20.305     6.042
    13   7 N        2.738    -0.020    21.645     6.910
    14   6 C        3.700    -0.071    22.029     6.712
    15   1 H        0.924     0.113     1.669     2.020
    16   1 H        0.924     0.111     1.688     2.032
    17   1 H        0.924     0.130     1.538     1.939
    18   1 H        0.926     0.112     1.683     2.029
    19   1 H        0.925     0.129     1.543     1.942
    20   1 H        0.924     0.120     1.611     1.985
    21   1 H        0.924     0.121     1.609     1.983
    22   1 H        0.924     0.116     1.644     2.005
    23   1 H        0.924     0.116     1.643     2.005
    24   1 H        0.925     0.131     1.525     1.931
    25   1 H        0.000     0.101     4.428     3.848

Wiberg/Mayer (AO) data.
largest (>0.10) Wiberg bond orders for each atom

     #   Z sym  total        # sym  WBO       # sym  WBO       # sym  WBO
 ---------------------------------------------------------------------------
     1   6 C    3.886 --     2 N    0.997    17 H    0.953    16 H    0.951
                            15 H    0.943
     2   7 N    3.616 --     3 C    1.276     6 C    1.192     1 C    0.997
     3   6 C    3.843 --     4 N    1.460     2 N    1.276    18 H    0.952
     4   7 N    2.938 --     3 C    1.460     5 C    1.275
     5   6 C    3.885 --     4 N    1.275     6 C    1.258    13 N    1.187
     6   6 C    3.785 --     5 C    1.258     2 N    1.192     7 C    1.088
     7   6 C    3.921 --     8 O    1.649     9 N    1.090     6 C    1.088
     8   8 O    1.921 --     7 C    1.649     9 N    0.118
     9   7 N    3.473 --    11 C    1.104     7 C    1.090    10 C    0.982
                             8 O    0.118    12 O    0.111
    10   6 C    3.846 --     9 N    0.982    19 H    0.949    21 H    0.937
                            20 H    0.937
    11   6 C    3.941 --    12 O    1.663     9 N    1.104    13 N    1.084
    12   8 O    1.945 --    11 C    1.663     9 N    0.111    13 N    0.103
    13   7 N    3.480 --     5 C    1.187    11 C    1.084    14 C    0.982
                            12 O    0.103
    14   6 C    3.865 --    13 N    0.982    24 H    0.953    22 H    0.944
                            23 H    0.943
    15   1 H    0.967 --     1 C    0.943
    16   1 H    0.972 --     1 C    0.951
    17   1 H    0.971 --     1 C    0.953
    18   1 H    0.983 --     3 C    0.952
    19   1 H    0.968 --    10 C    0.949
    20   1 H    0.953 --    10 C    0.937
    21   1 H    0.954 --    10 C    0.937
    22   1 H    0.959 --    14 C    0.944
    23   1 H    0.959 --    14 C    0.943
    24   1 H    0.971 --    14 C    0.953
    25   1 H    0.007
 ---------------------------------------------------------------------------

molecular dipole:
                 x           y           z       tot (Debye)
 q only:        1.476      -1.168       0.010
   full:        1.734      -1.058       0.016       5.164

           -------------------------------------------------
          | TOTAL ENERGY              -42.169283534632 Eh   |
          | GRADIENT NORM               0.001849820883 Eh/α |
          | HOMO-LUMO GAP               1.171939223235 eV   |
           -------------------------------------------------

 * finished run on 2024/06/05 at 19:58:47.706
