   * xtb version 6.6.1 (8d0f1dd) compiled by 'conda@1efc2f54142f' on 2023-08-01
          program call               : xtb struc.xyz --opt loose --input .xc1 --gfn2

   ID    Z sym.   atoms
    1    6 C      1, 3, 5-7, 10, 11, 14
    2    7 N      2, 4, 9, 13
    3    8 O      8, 12
    4    1 H      15-25
constraining bond 5 25 to    4.1400000 Å, actual value:    2.1289605 Å

          :  Hamiltonian                  GFN2-xTB          :
 * total energy  :   -27.8054758 Eh     change       -0.6650680E-10 Eh
 * total energy  :   -34.9712772 Eh     change       -0.7165801E+01 Eh
 * total energy  :   -39.3502914 Eh     change       -0.4379014E+01 Eh
 * total energy  :   -41.3570305 Eh     change       -0.2006739E+01 Eh
 * total energy  :   -41.7986512 Eh     change       -0.4416207E+00 Eh
 * total energy  :   -41.8183550 Eh     change       -0.1970376E-01 Eh
 * total energy  :   -41.8296871 Eh     change       -0.1133215E-01 Eh
 * total energy  :   -41.8572701 Eh     change       -0.2758301E-01 Eh
 * total energy  :   -41.8880840 Eh     change       -0.3081385E-01 Eh
 * total energy  :   -41.9057725 Eh     change       -0.1768849E-01 Eh
 * total energy  :   -42.1313833 Eh     change       -0.1121765E-02 Eh
 * total energy  :   -42.1318247 Eh     change       -0.4414126E-03 Eh
 * total energy  :   -42.1319481 Eh     change       -0.1233348E-03 Eh
 * total energy  :   -42.1320269 Eh     change       -0.7885245E-04 Eh
 * total energy  :   -42.1320742 Eh     change       -0.4730813E-04 Eh
 * total energy  :   -42.1321163 Eh     change       -0.4204715E-04 Eh
 * total energy  :   -42.1321519 Eh     change       -0.3561909E-04 Eh
 * total energy  :   -42.1321792 Eh     change       -0.2734186E-04 Eh
 * total energy  :   -42.1322025 Eh     change       -0.2326125E-04 Eh
   *** GEOMETRY OPTIMIZATION CONVERGED AFTER 32 ITERATIONS ***

 final structure:
================
25
 xtb: 6.6.1 (8d0f1dd)
C            3.19411053909255        1.18572351998564        0.02482075481783
N            2.21194579019535        0.13964533201603        0.00953445722097
C            2.43247600365093       -1.19650518089012        0.01114299612461
N            1.32453212272502       -1.90203506400624        0.00892066405089
C            0.31936670888973       -0.99927318376248        0.00816545679329
C            0.85989050049293        0.29718807784761        0.00869042282100
C            0.02912924884311        1.47564690181934       -0.00065811543536
O            0.42441453864562        2.62023674665915       -0.00860534544247
N           -1.32494852468853        1.14659849201646       -0.00218716112794
C           -2.28624290502547        2.23556941161655       -0.00989369156889
C           -1.88279819401404       -0.12638007888714        0.00632138312515
O           -3.07510323779160       -0.28637292795159        0.01331331041470
N           -1.00777065733381       -1.22001037960113        0.00494721918856
C           -1.55211400285445       -2.55553808668536        0.01112886406159
H            3.70295033596029        1.21325755346679        0.99082390260619
H            3.93793002478410        1.01513916849948       -0.75416725056843
H            2.69888414907998        2.14239153354172       -0.14109487554543
H            3.41574700468851       -1.62577967509232        0.01281531932605
H           -1.74033700812516        3.17681479981947       -0.00526488283607
H           -2.91756011891263        2.16688766767299       -0.89747176821425
H           -2.93278506757927        2.16581883093004        0.86658119291456
H           -1.19702913473955       -3.09628997167373        0.88912886787971
H           -1.22866182112900       -3.09297796624640       -0.88129150897470
H           -2.63865150497903       -2.48288243185295        0.02888493662542
H            2.39305672422440       -4.57863454764183       -0.16341353035698

          :  Hamiltonian                  GFN2-xTB          :
         :: total energy             -42.132202483309 Eh    ::
         :: gradient norm              0.002760546159 Eh/a0 ::
         :: HOMO-LUMO gap              0.705023705161 eV    ::
         :: SCC energy               -42.643649499988 Eh    ::
         :: -> dispersion             -0.022448513625 Eh    ::
         :: repulsion energy           0.511353224249 Eh    ::

    * Orbital Energies and Occupations

         #    Occupation            Energy/Eh            Energy/eV
      -------------------------------------------------------------
         1        2.0000           -0.8927988             -24.2943
       ...           ...                  ...                  ...
        25        1.9996           -0.6673149             -18.1586
        26        1.9991           -0.6569508             -17.8765
        27        1.9982           -0.6455803             -17.5671
        28        1.9976           -0.6405896             -17.4313
        29        1.9943           -0.6269564             -17.0604
        30        1.9891           -0.6165731             -16.7778
        31        1.9871           -0.6138597             -16.7040
        32        1.9780           -0.6053806             -16.4732
        33        1.9647           -0.5977640             -16.2660
        34        1.9167           -0.5837607             -15.8849
        35        1.8851           -0.5784053             -15.7392
        36        1.8792           -0.5775717             -15.7165
        37        1.5732           -0.5547678             -15.0960 (HOMO)
        38        0.8356           -0.5288587             -14.3910 (LUMO)
        39        0.0030           -0.4311339             -11.7318
        40        0.0002           -0.3896207             -10.6021
        41        0.0001           -0.3739075             -10.1745
        42        0.0000           -0.2948477              -8.0232
        43                         -0.2057624              -5.5991
        44                         -0.1576074              -4.2887
        45                         -0.1373396              -3.7372
        46                         -0.0801978              -2.1823
        47                         -0.0589300              -1.6036
        48                         -0.0380288              -1.0348
       ...                                ...                  ...
        67                          0.5347244              14.5506
      -------------------------------------------------------------
                  HL-Gap            0.0259091 Eh            0.7050 eV

     #   Z          covCN         q      C6AA      α(0)
     1   6 C        3.689    -0.082    22.273     6.754
     2   7 N        2.829     0.051    20.341     6.698
     3   6 C        3.185     0.097    25.432     8.229
     4   7 N        1.898    -0.208    26.357     7.611
     5   6 C        3.163     0.134    24.774     8.135
     6   6 C        3.121    -0.007    28.008     8.667
     7   6 C        2.763     0.274    22.375     7.747
     8   8 O        0.858    -0.332    20.360     6.050
     9   7 N        2.746    -0.068    22.563     7.055
    10   6 C        3.708    -0.062    21.843     6.680
    11   6 C        2.729     0.317    21.619     7.612
    12   8 O        0.860    -0.330    20.335     6.046
    13   7 N        2.739    -0.018    21.600     6.903
    14   6 C        3.700    -0.073    22.064     6.717
    15   1 H        0.924     0.110     1.699     2.038
    16   1 H        0.924     0.107     1.724     2.053
    17   1 H        0.925     0.126     1.562     1.954
    18   1 H        0.926     0.108     1.716     2.048
    19   1 H        0.925     0.123     1.593     1.974
    20   1 H        0.924     0.115     1.653     2.010
    21   1 H        0.924     0.116     1.649     2.008
    22   1 H        0.924     0.113     1.673     2.023
    23   1 H        0.924     0.113     1.674     2.023
    24   1 H        0.925     0.128     1.551     1.948
    25   1 H        0.000     0.151     3.453     3.398

Wiberg/Mayer (AO) data.
largest (>0.10) Wiberg bond orders for each atom

     #   Z sym  total        # sym  WBO       # sym  WBO       # sym  WBO
 ---------------------------------------------------------------------------
     1   6 C    3.904 --     2 N    0.995    17 H    0.959    16 H    0.957
                            15 H    0.948
     2   7 N    3.637 --     3 C    1.268     6 C    1.217     1 C    0.995
     3   6 C    3.869 --     4 N    1.488     2 N    1.268    18 H    0.955
     4   7 N    2.970 --     3 C    1.488     5 C    1.266
     5   6 C    3.900 --     4 N    1.266     6 C    1.255    13 N    1.209
     6   6 C    3.797 --     5 C    1.255     2 N    1.217     7 C    1.076
     7   6 C    3.946 --     8 O    1.671     9 N    1.102     6 C    1.076
     8   8 O    1.959 --     7 C    1.671     9 N    0.127
     9   7 N    3.502 --    11 C    1.107     7 C    1.102    10 C    0.979
                             8 O    0.127    12 O    0.117
    10   6 C    3.868 --     9 N    0.979    19 H    0.960    21 H    0.944
                            20 H    0.943
    11   6 C    3.951 --    12 O    1.685     9 N    1.107    13 N    1.068
    12   8 O    1.975 --    11 C    1.685     9 N    0.117    13 N    0.101
    13   7 N    3.483 --     5 C    1.209    11 C    1.068    14 C    0.984
                            12 O    0.101
    14   6 C    3.885 --    13 N    0.984    24 H    0.961    22 H    0.947
                            23 H    0.946
    15   1 H    0.974 --     1 C    0.948
    16   1 H    0.978 --     1 C    0.957
    17   1 H    0.978 --     1 C    0.959
    18   1 H    0.986 --     3 C    0.955
    19   1 H    0.978 --    10 C    0.960
    20   1 H    0.961 --    10 C    0.943
    21   1 H    0.961 --    10 C    0.944
    22   1 H    0.964 --    14 C    0.947
    23   1 H    0.963 --    14 C    0.946
    24   1 H    0.980 --    14 C    0.961
    25   1 H    0.014
 ---------------------------------------------------------------------------

molecular dipole:
                 x           y           z       tot (Debye)
 q only:        1.693      -1.596      -0.025
   full:        1.965      -1.477      -0.019       6.249

           -------------------------------------------------
          | TOTAL ENERGY              -42.132202483309 Eh   |
          | GRADIENT NORM               0.002760546159 Eh/α |
          | HOMO-LUMO GAP               0.705023705161 eV   |
           -------------------------------------------------

 * finished run on 2024/06/05 at 19:59:12.935
