   * xtb version 6.6.1 (8d0f1dd) compiled by 'conda@1efc2f54142f' on 2023-08-01
          program call               : xtb xtbopt.xyz --opt crude --input .xc2 --gfn2

   ID    Z sym.   atoms
    1    6 C      1, 3, 5-7, 10, 11, 14
    2    7 N      2, 4, 9, 13
    3    8 O      8, 12
    4    1 H      15-25

          :  Hamiltonian                  GFN2-xTB          :
 * total energy  :   -42.1322027 Eh     change        0.0000000E+00 Eh
 * total energy  :   -42.1322903 Eh     change       -0.8764356E-04 Eh
   *** GEOMETRY OPTIMIZATION CONVERGED AFTER 2 ITERATIONS ***

 final structure:
================
25
 xtb: 6.6.1 (8d0f1dd)
C            3.19547502889549        1.18502171228331        0.02525356351082
N            2.21254322685569        0.13953022537833        0.00959055149060
C            2.43366513512922       -1.19626129205913        0.00979330065031
N            1.32604456887586       -1.90243601163264        0.00750767911408
C            0.32061054957480       -1.00002011139573        0.00779796032099
C            0.86037699181009        0.29673956777118        0.00894187029562
C            0.02843776122259        1.47490292313407       -0.00090012602790
O            0.42198289469071        2.61999322512701       -0.00988833812244
N           -1.32537723689420        1.14468495733520       -0.00206251546850
C           -2.28570960443316        2.23427674187743       -0.00977827032636
C           -1.88256365871606       -0.12847979609939        0.00636670460965
O           -3.07496487965089       -0.28849743580159        0.01232706330659
N           -1.00652526748686       -1.22133971073262        0.00571506020637
C           -1.54846872698106       -2.55800900950745        0.01099846576966
H            3.70502580648161        1.21111267055145        0.99093309871119
H            3.93841078787254        1.01443675328787       -0.75447585704909
H            2.70112194627844        2.14230718278672       -0.13921746332368
H            3.41637102109756       -1.62636082764492        0.01134559857033
H           -1.73820735494651        3.17474744204315       -0.00520722728304
H           -2.91746347283435        2.16719930661445       -0.89719721684007
H           -2.93238773901433        2.16619771789201        0.86669237779082
H           -1.19168810590126       -3.09875662902765        0.88840157163767
H           -1.22326205376150       -3.09405763564076       -0.88167703622613
H           -2.63531410528884       -2.48827124506937        0.02906964644399
H            2.36229800122292       -4.55042217987123       -0.15915884386168

          :  Hamiltonian                  GFN2-xTB          :
         :: total energy             -42.132290307297 Eh    ::
         :: gradient norm              0.001682404701 Eh/a0 ::
         :: HOMO-LUMO gap              0.708444107462 eV    ::
         :: SCC energy               -42.643667907048 Eh    ::
         :: -> dispersion             -0.022458016306 Eh    ::
         :: repulsion energy           0.511283680685 Eh    ::

    * Orbital Energies and Occupations

         #    Occupation            Energy/Eh            Energy/eV
      -------------------------------------------------------------
         1        2.0000           -0.8929078             -24.2973
       ...           ...                  ...                  ...
        25        1.9996           -0.6674071             -18.1611
        26        1.9991           -0.6570486             -17.8792
        27        1.9982           -0.6456163             -17.5681
        28        1.9976           -0.6406883             -17.4340
        29        1.9944           -0.6270830             -17.0638
        30        1.9891           -0.6165781             -16.7779
        31        1.9871           -0.6139433             -16.7062
        32        1.9781           -0.6055127             -16.4768
        33        1.9648           -0.5978628             -16.2687
        34        1.9173           -0.5839498             -15.8901
        35        1.8849           -0.5784390             -15.7401
        36        1.8803           -0.5777903             -15.7225
        37        1.5740           -0.5548714             -15.0988 (HOMO)
        38        0.8330           -0.5288365             -14.3904 (LUMO)
        39        0.0030           -0.4311999             -11.7335
        40        0.0002           -0.3896974             -10.6042
        41        0.0001           -0.3740412             -10.1782
        42        0.0000           -0.2949808              -8.0268
        43                         -0.2058743              -5.6021
        44                         -0.1578212              -4.2945
        45                         -0.1373457              -3.7374
        46                         -0.0803101              -2.1853
        47                         -0.0589682              -1.6046
        48                         -0.0379658              -1.0331
       ...                                ...                  ...
        67                          0.5345825              14.5467
      -------------------------------------------------------------
                  HL-Gap            0.0260348 Eh            0.7084 eV

     #   Z          covCN         q      C6AA      α(0)
     1   6 C        3.689    -0.082    22.273     6.754
     2   7 N        2.829     0.052    20.338     6.698
     3   6 C        3.186     0.096    25.432     8.229
     4   7 N        1.898    -0.208    26.360     7.612
     5   6 C        3.163     0.134    24.773     8.135
     6   6 C        3.121    -0.007    28.011     8.668
     7   6 C        2.764     0.274    22.375     7.747
     8   8 O        0.858    -0.331    20.358     6.049
     9   7 N        2.746    -0.068    22.561     7.054
    10   6 C        3.708    -0.062    21.844     6.680
    11   6 C        2.728     0.317    21.618     7.612
    12   8 O        0.860    -0.330    20.333     6.046
    13   7 N        2.739    -0.018    21.603     6.903
    14   6 C        3.700    -0.073    22.063     6.717
    15   1 H        0.924     0.110     1.699     2.038
    16   1 H        0.924     0.107     1.723     2.053
    17   1 H        0.925     0.126     1.563     1.955
    18   1 H        0.926     0.108     1.715     2.048
    19   1 H        0.925     0.123     1.592     1.973
    20   1 H        0.924     0.115     1.652     2.010
    21   1 H        0.924     0.116     1.649     2.008
    22   1 H        0.924     0.113     1.674     2.023
    23   1 H        0.924     0.113     1.674     2.024
    24   1 H        0.925     0.128     1.552     1.948
    25   1 H        0.000     0.151     3.453     3.398

Wiberg/Mayer (AO) data.
largest (>0.10) Wiberg bond orders for each atom

     #   Z sym  total        # sym  WBO       # sym  WBO       # sym  WBO
 ---------------------------------------------------------------------------
     1   6 C    3.904 --     2 N    0.995    17 H    0.959    16 H    0.957
                            15 H    0.948
     2   7 N    3.638 --     3 C    1.269     6 C    1.217     1 C    0.995
     3   6 C    3.869 --     4 N    1.488     2 N    1.269    18 H    0.955
     4   7 N    2.972 --     3 C    1.488     5 C    1.266
     5   6 C    3.900 --     4 N    1.266     6 C    1.255    13 N    1.209
     6   6 C    3.798 --     5 C    1.255     2 N    1.217     7 C    1.076
     7   6 C    3.946 --     8 O    1.671     9 N    1.102     6 C    1.076
     8   8 O    1.959 --     7 C    1.671     9 N    0.127
     9   7 N    3.502 --    11 C    1.107     7 C    1.102    10 C    0.979
                             8 O    0.127    12 O    0.117
    10   6 C    3.868 --     9 N    0.979    19 H    0.960    21 H    0.944
                            20 H    0.943
    11   6 C    3.951 --    12 O    1.685     9 N    1.107    13 N    1.068
    12   8 O    1.975 --    11 C    1.685     9 N    0.117    13 N    0.101
    13   7 N    3.483 --     5 C    1.209    11 C    1.068    14 C    0.984
                            12 O    0.101
    14   6 C    3.885 --    13 N    0.984    24 H    0.962    22 H    0.948
                            23 H    0.947
    15   1 H    0.974 --     1 C    0.948
    16   1 H    0.978 --     1 C    0.957
    17   1 H    0.978 --     1 C    0.959
    18   1 H    0.986 --     3 C    0.955
    19   1 H    0.978 --    10 C    0.960
    20   1 H    0.961 --    10 C    0.943
    21   1 H    0.961 --    10 C    0.944
    22   1 H    0.964 --    14 C    0.948
    23   1 H    0.963 --    14 C    0.947
    24   1 H    0.980 --    14 C    0.962
    25   1 H    0.017
 ---------------------------------------------------------------------------

molecular dipole:
                 x           y           z       tot (Debye)
 q only:        1.689      -1.588      -0.023
   full:        1.962      -1.470      -0.016       6.230

           -------------------------------------------------
          | TOTAL ENERGY              -42.132290307297 Eh   |
          | GRADIENT NORM               0.001682404701 Eh/α |
          | HOMO-LUMO GAP               0.708444107462 eV   |
           -------------------------------------------------

 * finished run on 2024/06/05 at 19:59:13.102
