   * xtb version 6.6.1 (8d0f1dd) compiled by 'conda@1efc2f54142f' on 2023-08-01
          program call               : xtb struc.xyz --opt loose --input .xc1 --gfn2

   ID    Z sym.   atoms
    1    7 N      1, 17
    2    6 C      2-6, 8, 9, 11-16, 18-23, 25, 26, 28-33
    3    8 O      7, 10, 24, 27
    4    1 H      34-72
constraining bond 4 67 to    4.7133300 Å, actual value:    2.5331810 Å

          :  Hamiltonian                  GFN2-xTB          :
 * total energy  :  -100.2528031 Eh     change       -0.4035485E-08 Eh
 * total energy  :  -100.8684442 Eh     change       -0.6156410E+00 Eh
 * total energy  :  -101.6037449 Eh     change       -0.7353008E+00 Eh
 * total energy  :   -99.9727419 Eh     change        0.1631003E+01 Eh
 * total energy  :  -101.8533894 Eh     change       -0.1880648E+01 Eh
 * total energy  :  -101.8938422 Eh     change       -0.4045279E-01 Eh
 * total energy  :  -101.9189666 Eh     change       -0.2512434E-01 Eh
 * total energy  :  -101.9288113 Eh     change       -0.9844752E-02 Eh
 * total energy  :  -101.9326535 Eh     change       -0.3842202E-02 Eh
 * total energy  :  -101.9352985 Eh     change       -0.2645016E-02 Eh
 * total energy  :  -101.9507814 Eh     change       -0.2248746E-03 Eh
 * total energy  :  -101.9509702 Eh     change       -0.1888008E-03 Eh
 * total energy  :  -101.9511287 Eh     change       -0.1584618E-03 Eh
 * total energy  :  -101.9512798 Eh     change       -0.1511017E-03 Eh
 * total energy  :  -101.9513813 Eh     change       -0.1015740E-03 Eh
 * total energy  :  -101.9514715 Eh     change       -0.9013359E-04 Eh
 * total energy  :  -101.9515426 Eh     change       -0.7116631E-04 Eh
 * total energy  :  -101.9515977 Eh     change       -0.5505797E-04 Eh
 * total energy  :  -101.9516274 Eh     change       -0.2971703E-04 Eh
   *** GEOMETRY OPTIMIZATION CONVERGED AFTER 44 ITERATIONS ***

 final structure:
================
72
 xtb: 6.6.1 (8d0f1dd)
N           -2.15824140893596        2.72822705559591        2.41674054949509
C           -2.04176156041052        2.12984461660921        1.32034492988369
C           -3.17564837256023        1.95536898306386        0.36508844960532
C           -4.13709538858684        0.78183048333844        0.96912940072999
C           -5.01621614768192        0.24580793924104       -0.11782074557553
C           -5.05664529233037       -1.05736416650693       -0.50362851642217
O           -5.82787572529125       -1.56443427910926       -1.49185813701892
C           -6.71808330654132       -0.71060971420500       -2.17135871547212
C           -4.25927536887823       -2.04196127877900        0.17387801617695
O           -4.39237715680254       -3.30491244118074       -0.26553464978182
C           -3.76561176270989       -4.35362755493885        0.43614008089091
C           -3.43797056640562       -1.62589628809042        1.23334201249822
C           -3.34196406208737       -0.31696894953037        1.59443683855604
C           -2.66501509597346        1.63570531800545       -1.04695191275664
C           -1.72971971865305        0.42621225837163       -1.16486321253426
C           -0.34288432133935        0.71245433503672       -0.72867017326027
N            0.49685770081294       -0.21096600826629       -0.26166505298114
C            1.88833040521012        0.09919754129239       -0.03822481654006
C            2.77043470087906       -0.31575634851116       -1.23244528374909
C            4.21782120692531       -0.10855301074515       -0.88645989078671
C            4.84594586915804        1.09908038599938       -1.13765161715574
C            6.16827168402694        1.29968814692821       -0.77080429162729
C            6.88730392017748        0.29542756829706       -0.13958694312840
O            8.16841360392774        0.38293775187532        0.26806395392909
C            8.87176628474232        1.58655662963656        0.06514619584570
C            6.25266243965423       -0.95038608223454        0.11615795588107
O            7.02464200883225       -1.87666417469067        0.72252216548712
C            6.48750091875039       -3.14948366488356        0.98923245963681
C            4.93042149620283       -1.12661460984070       -0.25624490136660
C            0.07610829245494       -1.57597865473598       -0.06028474480939
C           -4.09286059030635        3.22820793637769        0.29918834564507
C           -4.90434733564684        3.38466813825112        1.51953935857365
C           -3.27551125921637        4.51769543682194        0.09009393879180
H           -5.67835560884327        0.96283379262610       -0.57495878407422
H           -7.46546455716724       -0.29043172756201       -1.49212334706086
H           -7.21354588656983       -1.33565984152472       -2.91115195704224
H           -6.18880542904846        0.10127650162830       -2.68024136475711
H           -4.10071739527521       -4.39438609788614        1.47652833569534
H           -4.06387068175422       -5.26671153169119       -0.07472060948855
H           -2.67490625211691       -4.26326654554553        0.40687833875860
H           -2.87408256723789       -2.36560886526024        1.78208623025943
H           -2.71858469800937       -0.04155646972780        2.43119460862560
H           -3.52958742435751        1.45327194919950       -1.68550224483852
H           -2.14791639271585        2.51414105085746       -1.43761933363342
H           -2.15301156546190       -0.41476174061802       -0.61945892394138
H           -1.70066693287355        0.14239111485023       -2.22609209021585
H           -1.10281545569873        1.65622891926234        0.97003295039918
H            0.08479349082136        1.67458237235381       -0.96672463709249
H            2.22825374092704       -0.42364520361744        0.85956041643708
H            1.99938686763557        1.17200180779362        0.13136995616989
H            2.49759208920994        0.28451826140771       -2.10147940316393
H            2.58937479626368       -1.36545238256863       -1.46845706726118
H            4.31060438781283        1.89504801508930       -1.63253780187628
H            6.63281405207966        2.24796489013538       -0.98554786979867
H            8.39006944666856        2.42366575749728        0.57969529844034
H            8.96972793891534        1.81907083960489       -0.99956977106426
H            9.85984735534602        1.42216622154398        0.49064559205586
H            7.29228391358795       -3.71490094163137        1.45489942044432
H            5.64069881403073       -3.09162341759738        1.68115232046363
H            6.17576614964494       -3.65503762117414        0.06975280211043
H            4.44040278611869       -2.06969039974032       -0.07008783569448
H           -0.30887085078547       -2.00810766212102       -0.98614453003894
H           -0.70825670662563       -1.62376490722585        0.69842373498745
H            0.92269012455281       -2.16791032401021        0.27688348753446
H           -4.74704924590017        3.10579724462989       -0.56927963737858
H           -4.40381101629582        3.50155618254453        2.46060677091394
H           -4.52957708659246        1.15404083275239        1.48022449065905
H           -5.96974795966802        3.49602095511296        1.46906605151543
H           -2.62987101156721        4.69836648206414        0.94378831136032
H           -2.67378824176459        4.46561257299996       -0.81391580840605
H           -3.95744564608135        5.35833291534151       -0.00707781356363
H           -1.33441783560206        2.78903322419848        3.00617550950778

          :  Hamiltonian                  GFN2-xTB          :
         :: total energy            -101.951627421958 Eh    ::
         :: gradient norm              0.002309609333 Eh/a0 ::
         :: HOMO-LUMO gap              0.357770351577 eV    ::
         :: SCC energy              -100.681893368364 Eh    ::
         :: -> dispersion             -0.075603065124 Eh    ::
         :: repulsion energy           1.541947510365 Eh    ::

    * Orbital Energies and Occupations

         #    Occupation            Energy/Eh            Energy/eV
      -------------------------------------------------------------
         1        2.0000           -0.8178618             -22.2552
       ...           ...                  ...                  ...
        78        1.9992           -0.5324334             -14.4883
        79        1.9990           -0.5290642             -14.3966
        80        1.9989           -0.5273373             -14.3496
        81        1.9988           -0.5257204             -14.3056
        82        1.9986           -0.5232689             -14.2389
        83        1.9980           -0.5180129             -14.0958
        84        1.9976           -0.5146783             -14.0051
        85        1.9972           -0.5122789             -13.9398
        86        1.9819           -0.4827240             -13.1356
        87        1.9763           -0.4784177             -13.0184
        88        1.9678           -0.4734980             -12.8845
        89        1.8692           -0.4504887             -12.2584
        90        1.0786           -0.4108668             -11.1803 (HOMO)
        91        0.6758           -0.3977190             -10.8225 (LUMO)
        92        0.4304           -0.3878852             -10.5549
        93        0.0261           -0.3398745              -9.2485
        94        0.0047           -0.3125195              -8.5041
        95        0.0033           -0.3067175              -8.3462
        96        0.0027           -0.3039616              -8.2712
        97        0.0000           -0.2298058              -6.2533
        98        0.0000           -0.1815430              -4.9400
        99                         -0.1308554              -3.5608
       100                         -0.0863959              -2.3510
       101                         -0.0738640              -2.0099
       ...                                ...                  ...
       171                          1.4501962              39.4618
      -------------------------------------------------------------
                  HL-Gap            0.0131478 Eh            0.3578 eV

     #   Z          covCN         q      C6AA      α(0)
     1   7 N        1.775    -0.284    28.185     7.862
     2   6 C        2.819     0.094    25.904     8.339
     3   6 C        3.888     0.006    20.433     6.426
     4   6 C        3.851    -0.049    21.419     6.583
     5   6 C        2.904    -0.091    30.288     9.024
     6   6 C        2.848     0.131    25.124     8.215
     7   8 O        1.706    -0.241    17.997     5.728
     8   6 C        3.645     0.027    20.453     6.500
     9   6 C        2.862     0.123    25.299     8.245
    10   8 O        1.705    -0.214    17.558     5.657
    11   6 C        3.645     0.025    20.490     6.506
    12   6 C        2.899    -0.070    29.755     8.944
    13   6 C        2.905    -0.054    29.349     8.883
    14   6 C        3.807    -0.070    21.825     6.650
    15   6 C        3.803    -0.070    21.833     6.652
    16   6 C        2.843    -0.001    28.051     8.680
    17   7 N        2.729     0.002    21.237     6.844
    18   6 C        3.754    -0.016    20.909     6.520
    19   6 C        3.808    -0.070    21.836     6.652
    20   6 C        2.970    -0.002    28.066     8.690
    21   6 C        2.922    -0.049    29.227     8.866
    22   6 C        2.914    -0.068    29.697     8.936
    23   6 C        2.865     0.132    25.106     8.213
    24   8 O        1.706    -0.226    17.743     5.687
    25   6 C        3.645     0.026    20.469     6.502
    26   6 C        2.863     0.132    25.119     8.215
    27   8 O        1.706    -0.229    17.790     5.695
    28   6 C        3.645     0.029    20.425     6.496
    29   6 C        2.920    -0.081    30.017     8.985
    30   6 C        3.700    -0.068    21.964     6.702
    31   6 C        3.852    -0.005    20.637     6.461
    32   6 C        2.843    -0.098    30.465     9.046
    33   6 C        3.758    -0.108    22.612     6.779
    34   1 H        0.926     0.051     2.303     2.373
    35   1 H        0.924     0.053     2.286     2.365
    36   1 H        0.925     0.080     1.979     2.200
    37   1 H        0.924     0.044     2.395     2.420
    38   1 H        0.924     0.059     2.207     2.323
    39   1 H        0.925     0.084     1.940     2.178
    40   1 H        0.924     0.047     2.363     2.404
    41   1 H        0.926     0.047     2.364     2.404
    42   1 H        0.926     0.041     2.434     2.440
    43   1 H        0.925     0.056     2.250     2.346
    44   1 H        0.924     0.054     2.272     2.357
    45   1 H        0.925     0.069     2.094     2.263
    46   1 H        0.923     0.075     2.030     2.228
    47   1 H        0.922     0.009     2.900     2.663
    48   1 H        0.926     0.066     2.126     2.280
    49   1 H        0.924     0.066     2.126     2.280
    50   1 H        0.924     0.066     2.132     2.283
    51   1 H        0.924     0.054     2.274     2.358
    52   1 H        0.924     0.053     2.278     2.360
    53   1 H        0.926     0.044     2.397     2.421
    54   1 H        0.926     0.057     2.236     2.338
    55   1 H        0.924     0.052     2.292     2.368
    56   1 H        0.924     0.054     2.265     2.354
    57   1 H        0.925     0.081     1.973     2.197
    58   1 H        0.925     0.080     1.979     2.200
    59   1 H        0.924     0.046     2.371     2.408
    60   1 H        0.924     0.050     2.314     2.379
    61   1 H        0.926     0.044     2.400     2.422
    62   1 H        0.924     0.073     2.057     2.243
    63   1 H        0.924     0.074     2.045     2.237
    64   1 H        0.925     0.079     1.989     2.205
    65   1 H        0.924     0.046     2.373     2.409
    66   1 H        0.926     0.080     1.976     2.198
    67   1 H        0.931     0.140     1.458     1.888
    68   1 H        0.926     0.056     2.246     2.344
    69   1 H        0.925     0.057     2.229     2.335
    70   1 H        0.925     0.041     2.434     2.440
    71   1 H        0.925     0.056     2.246     2.344
    72   1 H        0.860     0.153     1.380     1.840

Wiberg/Mayer (AO) data.
largest (>0.10) Wiberg bond orders for each atom

     #   Z sym  total        # sym  WBO       # sym  WBO       # sym  WBO
 ---------------------------------------------------------------------------
     1   7 N    3.006 --     2 C    1.923    72 H    0.945
     2   6 C    3.911 --     1 N    1.923     3 C    1.018    47 H    0.895
     3   6 C    3.882 --     2 C    1.018    14 C    0.992    31 C    0.923
                             4 C    0.830
     4   6 C    3.966 --    13 C    1.051     5 C    1.045    67 H    0.916
                             3 C    0.830
     5   6 C    3.788 --     6 C    1.560     4 C    1.045    34 H    0.960
                             7 O    0.101
     6   6 C    3.930 --     5 C    1.560     9 C    1.149     7 O    1.086
     7   8 O    2.253 --     6 C    1.086     8 C    0.979     5 C    0.101
     8   6 C    3.935 --     7 O    0.979    36 H    0.977    37 H    0.975
                            35 H    0.974
     9   6 C    3.665 --    12 C    1.282     6 C    1.149    10 O    1.121
    10   8 O    2.230 --     9 C    1.121    11 C    0.976
    11   6 C    3.931 --    39 H    0.977    10 O    0.976    40 H    0.973
                            38 H    0.973
    12   6 C    3.975 --    13 C    1.587     9 C    1.282    41 H    0.959
    13   6 C    3.725 --    12 C    1.587     4 C    1.051    42 H    0.967
    14   6 C    3.980 --    15 C    0.992     3 C    0.992    43 H    0.968
                            44 H    0.964
    15   6 C    3.986 --    16 C    1.056    14 C    0.992    45 H    0.953
                            46 H    0.926
    16   6 C    3.562 --    17 N    1.374    15 C    1.056    48 H    0.957
    17   7 N    3.453 --    16 C    1.374    30 C    1.000    18 C    0.990
    18   6 C    3.957 --    17 N    0.990    50 H    0.969    19 C    0.966
                            49 H    0.965
    19   6 C    3.976 --    20 C    1.008    51 H    0.973    52 H    0.971
                            18 C    0.966
    20   6 C    3.949 --    21 C    1.415    29 C    1.376    19 C    1.008
    21   6 C    3.955 --    20 C    1.415    22 C    1.414    53 H    0.968
    22   6 C    3.963 --    21 C    1.414    23 C    1.387    54 H    0.963
    23   6 C    3.901 --    22 C    1.387    26 C    1.224    24 O    1.105
    24   8 O    2.255 --    23 C    1.105    25 C    0.977
    25   6 C    3.930 --    57 H    0.977    24 O    0.977    55 H    0.973
                            56 H    0.973
    26   6 C    3.904 --    29 C    1.400    23 C    1.224    27 O    1.098
    27   8 O    2.253 --    26 C    1.098    28 C    0.980
    28   6 C    3.935 --    27 O    0.980    58 H    0.977    59 H    0.974
                            60 H    0.974
    29   6 C    3.962 --    26 C    1.400    20 C    1.376    61 H    0.963
    30   6 C    3.961 --    17 N    1.000    64 H    0.978    62 H    0.970
                            63 H    0.963
    31   6 C    3.981 --    32 C    1.085    65 H    0.962    33 C    0.961
                             3 C    0.923
    32   6 C    3.123 --    31 C    1.085    68 H    0.982    66 H    0.974
    33   6 C    3.942 --    71 H    0.984    69 H    0.983    70 H    0.975
                            31 C    0.961
    34   1 H    0.996 --     5 C    0.960
    35   1 H    0.995 --     8 C    0.974
    36   1 H    0.993 --     8 C    0.977
    37   1 H    0.996 --     8 C    0.975
    38   1 H    0.990 --    11 C    0.973
    39   1 H    0.992 --    11 C    0.977
    40   1 H    0.991 --    11 C    0.973
    41   1 H    0.996 --    12 C    0.959
    42   1 H    0.998 --    13 C    0.967
    43   1 H    0.995 --    14 C    0.968
    44   1 H    0.995 --    14 C    0.964
    45   1 H    0.991 --    15 C    0.953
    46   1 H    0.965 --    15 C    0.926
    47   1 H    0.991 --     2 C    0.895
    48   1 H    0.995 --    16 C    0.957
    49   1 H    0.991 --    18 C    0.965
    50   1 H    0.994 --    18 C    0.969
    51   1 H    0.996 --    19 C    0.973
    52   1 H    0.996 --    19 C    0.971
    53   1 H    0.998 --    21 C    0.968
    54   1 H    0.995 --    22 C    0.963
    55   1 H    0.993 --    25 C    0.973
    56   1 H    0.992 --    25 C    0.973
    57   1 H    0.993 --    25 C    0.977
    58   1 H    0.993 --    28 C    0.977
    59   1 H    0.994 --    28 C    0.974
    60   1 H    0.994 --    28 C    0.974
    61   1 H    0.997 --    29 C    0.963
    62   1 H    0.986 --    30 C    0.970
    63   1 H    0.986 --    30 C    0.963
    64   1 H    0.994 --    30 C    0.978
    65   1 H    0.996 --    31 C    0.962
    66   1 H    0.992 --    32 C    0.974
    67   1 H    0.962 --     4 C    0.916
    68   1 H    0.995 --    32 C    0.982
    69   1 H    0.996 --    33 C    0.983
    70   1 H    0.991 --    33 C    0.975
    71   1 H    0.996 --    33 C    0.984
    72   1 H    0.972 --     1 N    0.945
 ---------------------------------------------------------------------------

molecular dipole:
                 x           y           z       tot (Debye)
 q only:       -0.343      -0.051      -0.270
   full:       -0.103      -0.082      -0.378       1.017

           -------------------------------------------------
          | TOTAL ENERGY             -101.951627421958 Eh   |
          | GRADIENT NORM               0.002309609333 Eh/α |
          | HOMO-LUMO GAP               0.357770351577 eV   |
           -------------------------------------------------

 * finished run on 2024/04/06 at 11:15:48.650
