   * xtb version 6.6.1 (8d0f1dd) compiled by 'conda@1efc2f54142f' on 2023-08-01
          program call               : xtb xtbopt.xyz --opt crude --input .xc2 --gfn2

   ID    Z sym.   atoms
    1    7 N      1, 17
    2    6 C      2-6, 8, 9, 11-16, 18-23, 25, 26, 28-33
    3    8 O      7, 10, 24, 27
    4    1 H      34-72
########################################################################
[WARNING] Please study the warnings concerning your input carefully
-1- readin_getIntValue: could not parse ''
########################################################################

          :  Hamiltonian                  GFN2-xTB          :
 * total energy  :   -99.1386701 Eh     change       -0.4415313E-10 Eh
 * total energy  :   -99.3017692 Eh     change       -0.1630991E+00 Eh
 * total energy  :   -99.3052388 Eh     change       -0.3469678E-02 Eh
 * total energy  :   -99.3073833 Eh     change       -0.2144430E-02 Eh
 * total energy  :   -99.3096832 Eh     change       -0.2299968E-02 Eh
 * total energy  :   -99.3231598 Eh     change       -0.1347651E-01 Eh
 * total energy  :   -99.3289872 Eh     change       -0.5827466E-02 Eh
 * total energy  :   -99.3559059 Eh     change       -0.2691866E-01 Eh
 * total energy  :   -99.3619913 Eh     change       -0.6085418E-02 Eh
 * total energy  :   -99.3681511 Eh     change       -0.6159769E-02 Eh
 * total energy  :   -99.3935394 Eh     change       -0.4904463E-02 Eh
 * total energy  :   -99.3965520 Eh     change       -0.3012619E-02 Eh
 * total energy  :   -99.3980275 Eh     change       -0.1475448E-02 Eh
 * total energy  :   -99.3992621 Eh     change       -0.1234667E-02 Eh
 * total energy  :   -99.4001479 Eh     change       -0.8858140E-03 Eh
 * total energy  :   -99.4011515 Eh     change       -0.1003587E-02 Eh
 * total energy  :   -99.4020622 Eh     change       -0.9106394E-03 Eh
 * total energy  :   -99.4025658 Eh     change       -0.5036028E-03 Eh
 * total energy  :   -99.4030262 Eh     change       -0.4604693E-03 Eh
   *** GEOMETRY OPTIMIZATION CONVERGED AFTER 23 ITERATIONS ***

 final structure:
================
72
 xtb: 6.6.1 (8d0f1dd)
N           -2.11899763495301        2.72229240759412        2.35175452023794
C           -1.97965678036236        2.10721687099358        1.27475385077546
C           -3.07327217910389        1.91563703674675        0.25872125651259
C           -3.67804879722572        0.52432315834096        0.41563793125530
C           -4.69567613899779        0.11567503368421       -0.44926959472881
C           -5.14484203473744       -1.19354569565823       -0.47386994214673
O           -6.11487513211120       -1.66964844427544       -1.27816707918115
C           -6.82449178594083       -0.77982841400582       -2.10772728080490
C           -4.53005853000629       -2.15631880464482        0.37047795682023
O           -4.93253972874029       -3.43156850413627        0.19234006062661
C           -4.18040702502654       -4.46691309866393        0.78168592711198
C           -3.57960426892290       -1.72841000609730        1.28360859713780
C           -3.16416868507733       -0.40435947076882        1.30918883312404
C           -2.41145941994386        1.95642776817195       -1.14672560626267
C           -1.48699512457659        0.76442744149367       -1.44473370645451
C           -0.15519087095053        0.88051390031337       -0.80852646336476
N            0.55186830492931       -0.13309128552330       -0.32029702863724
C            1.95071713545728        0.04284634469466       -0.00886032031312
C            2.84542319862029       -0.36642237265871       -1.19564527714791
C            4.28929107464109       -0.14218265659031       -0.84715207051513
C            4.89330554595223        1.08131917764597       -1.08643014969783
C            6.21452200029712        1.30179320525454       -0.72961463296837
C            6.95814647557855        0.30146861833692       -0.11986281563592
O            8.24116254631975        0.40504402108379        0.27206538098625
C            8.93024203482963        1.61536690612214        0.05755296959788
C            6.34683858836837       -0.95893724990699        0.12797844154025
O            7.13998035707261       -1.87617941590111        0.71614511245027
C            6.63000386663662       -3.16217573463346        0.97571193511485
C            5.02422968116252       -1.15497342247848       -0.23585830511148
C            0.00144114805810       -1.46247887991830       -0.20969487410099
C           -4.16672133861676        3.01977782553450        0.34687068301096
C           -4.98966332117719        2.89211858320849        1.62445226543204
C           -3.59961353562234        4.43160560051850        0.24511483193815
H           -5.14065157068742        0.83231024347832       -1.11914551437269
H           -7.34933132174337       -0.01993145213360       -1.52112666485788
H           -7.55170073376723       -1.39294569313264       -2.63634269745771
H           -6.16846496090758       -0.29384279862460       -2.83642711654876
H           -4.33183752842326       -4.51615930869679        1.86525716231227
H           -4.54373140360155       -5.38581949303145        0.32753746906381
H           -3.11423637420106       -4.35234326700613        0.56572144159346
H           -3.15020984098715       -2.42656014078270        1.98484058577989
H           -2.43210239211493       -0.10586244313239        2.04514368094046
H           -3.20399630392202        1.96443601676872       -1.89408876720559
H           -1.84403368505746        2.88054393603453       -1.25282580194792
H           -1.98433957646464       -0.16474685603998       -1.17181151343751
H           -1.32872889695753        0.74459054152743       -2.53099034125669
H           -1.02327657799314        1.64874370620729        0.94583221195642
H            0.36451376726673        1.82273577853468       -0.90665673200038
H            2.20491941866153       -0.56056174953658        0.86537168212465
H            2.13999912225476        1.09084216599698        0.23268019563437
H            2.57225926239480        0.23503856773589       -2.06437243974002
H            2.67346788079708       -1.41674360576724       -1.43485790384340
H            4.33904944089875        1.87369937954602       -1.56615848033749
H            6.65949047751200        2.26142476829073       -0.93517694701703
H            8.45945002632572        2.44463765381105        0.59434505412040
H            8.99276605858726        1.85727236025535       -1.00758510778361
H            9.93218722195152        1.45400728506687        0.45042692591669
H            7.44952558357975       -3.71534782424901        1.43010758505741
H            5.78777182784103       -3.12658236606887        1.67429556979046
H            6.32131790391687       -3.66511358011513        0.05396430210022
H            4.55269150219875       -2.10889594606014       -0.05833935401150
H           -0.24058337716802       -1.87525960669861       -1.19101926068712
H           -0.90912740524668       -1.44591962996109        0.39391339082946
H            0.72705884421851       -2.11324772219859        0.27122872739105
H           -4.83598942491583        2.87318755701812       -0.50632498507274
H           -4.37751490585100        3.14496886956310        2.48314584881138
H           -5.36122762822319        1.87667789751465        1.74929260500495
H           -5.83606606287376        3.57242624963939        1.58793569393058
H           -2.93842955886905        4.63999809846365        1.08101980965552
H           -3.06175810569691        4.59405859670266       -0.68309377679110
H           -4.41921379355443        5.14416832427427        0.27878244105173
H           -1.31429093800732        2.80343456541656        2.96514045731273

          :  Hamiltonian                  GFN2-xTB          :
         :: total energy             -99.403026247171 Eh    ::
         :: gradient norm              0.005314496200 Eh/a0 ::
         :: HOMO-LUMO gap              1.666734078517 eV    ::
         :: SCC energy              -100.782646478863 Eh    ::
         :: -> dispersion             -0.074938670228 Eh    ::
         :: repulsion energy           1.378479567866 Eh    ::

    * Orbital Energies and Occupations

         #    Occupation            Energy/Eh            Energy/eV
      -------------------------------------------------------------
         1        2.0000           -0.8088683             -22.0104
       ...           ...                  ...                  ...
        78        1.9984           -0.5300487             -14.4234
        79        1.9983           -0.5290870             -14.3972
        80        1.9982           -0.5281825             -14.3726
        81        1.9977           -0.5244082             -14.2699
        82        1.9971           -0.5203550             -14.1596
        83        1.9958           -0.5146669             -14.0048
        84        1.9952           -0.5125010             -13.9459
        85        1.9941           -0.5092304             -13.8569
        86        1.9802           -0.4900200             -13.3341
        87        1.9785           -0.4887559             -13.2997
        88        1.9394           -0.4720238             -12.8444
        89        1.8709           -0.4594673             -12.5027
        90        1.8433           -0.4561661             -12.4129 (HOMO)
        91        0.3945           -0.3949147             -10.7462 (LUMO)
        92        0.0154           -0.3401830              -9.2569
        93        0.0036           -0.3170686              -8.6279
        94        0.0029           -0.3137754              -8.5383
        95        0.0027           -0.3126162              -8.5067
        96        0.0023           -0.3102549              -8.4425
        97        0.0000           -0.1929185              -5.2496
        98        0.0000           -0.1877019              -5.1076
        99                         -0.1362008              -3.7062
       100                         -0.0688532              -1.8736
       101                         -0.0631133              -1.7174
       ...                                ...                  ...
       171                          0.5765390              15.6884
      -------------------------------------------------------------
                  HL-Gap            0.0612514 Eh            1.6667 eV

     #   Z          covCN         q      C6AA      α(0)
     1   7 N        1.774    -0.265    27.692     7.793
     2   6 C        2.823     0.102    25.730     8.312
     3   6 C        3.907     0.007    20.408     6.421
     4   6 C        2.974     0.006    27.878     8.661
     5   6 C        2.921    -0.078    29.946     8.974
     6   6 C        2.862     0.131    25.122     8.216
     7   8 O        1.706    -0.228    17.776     5.692
     8   6 C        3.645     0.027    20.460     6.501
     9   6 C        2.866     0.128    25.190     8.227
    10   8 O        1.706    -0.230    17.809     5.698
    11   6 C        3.646     0.028    20.437     6.496
    12   6 C        2.914    -0.075    29.864     8.961
    13   6 C        2.921    -0.054    29.334     8.882
    14   6 C        3.813    -0.067    21.781     6.643
    15   6 C        3.802    -0.069    21.817     6.650
    16   6 C        2.844     0.006    27.871     8.652
    17   7 N        2.729     0.008    21.115     6.825
    18   6 C        3.756    -0.017    20.925     6.522
    19   6 C        3.808    -0.070    21.835     6.652
    20   6 C        2.969    -0.000    28.031     8.684
    21   6 C        2.922    -0.049    29.207     8.863
    22   6 C        2.914    -0.067    29.678     8.933
    23   6 C        2.865     0.134    25.077     8.208
    24   8 O        1.706    -0.221    17.675     5.676
    25   6 C        3.645     0.025    20.491     6.506
    26   6 C        2.863     0.133    25.086     8.210
    27   8 O        1.706    -0.224    17.723     5.684
    28   6 C        3.645     0.027    20.452     6.500
    29   6 C        2.920    -0.080    29.991     8.981
    30   6 C        3.699    -0.070    22.011     6.710
    31   6 C        3.852    -0.007    20.676     6.467
    32   6 C        3.756    -0.120    22.855     6.816
    33   6 C        3.756    -0.116    22.773     6.804
    34   1 H        0.926     0.055     2.259     2.351
    35   1 H        0.924     0.056     2.252     2.347
    36   1 H        0.925     0.082     1.963     2.191
    37   1 H        0.924     0.048     2.342     2.393
    38   1 H        0.924     0.056     2.246     2.344
    39   1 H        0.925     0.081     1.971     2.195
    40   1 H        0.924     0.043     2.411     2.428
    41   1 H        0.926     0.050     2.320     2.382
    42   1 H        0.926     0.036     2.501     2.473
    43   1 H        0.925     0.058     2.222     2.331
    44   1 H        0.925     0.053     2.280     2.362
    45   1 H        0.925     0.066     2.133     2.284
    46   1 H        0.924     0.079     1.987     2.205
    47   1 H        0.922     0.009     2.909     2.668
    48   1 H        0.926     0.070     2.090     2.261
    49   1 H        0.924     0.068     2.108     2.270
    50   1 H        0.924     0.068     2.112     2.273
    51   1 H        0.924     0.054     2.269     2.356
    52   1 H        0.924     0.055     2.259     2.350
    53   1 H        0.926     0.045     2.381     2.413
    54   1 H        0.926     0.059     2.214     2.327
    55   1 H        0.924     0.054     2.266     2.354
    56   1 H        0.924     0.056     2.245     2.343
    57   1 H        0.925     0.083     1.953     2.185
    58   1 H        0.925     0.082     1.958     2.188
    59   1 H        0.924     0.049     2.339     2.392
    60   1 H        0.924     0.052     2.289     2.366
    61   1 H        0.926     0.047     2.358     2.401
    62   1 H        0.924     0.074     2.043     2.235
    63   1 H        0.924     0.080     1.983     2.202
    64   1 H        0.925     0.080     1.982     2.202
    65   1 H        0.924     0.038     2.475     2.460
    66   1 H        0.925     0.073     2.053     2.241
    67   1 H        0.925     0.039     2.466     2.456
    68   1 H        0.925     0.050     2.318     2.381
    69   1 H        0.925     0.053     2.281     2.362
    70   1 H        0.925     0.033     2.542     2.493
    71   1 H        0.925     0.054     2.266     2.354
    72   1 H        0.860     0.158     1.348     1.819

Wiberg/Mayer (AO) data.
largest (>0.10) Wiberg bond orders for each atom

     #   Z sym  total        # sym  WBO       # sym  WBO       # sym  WBO
 ---------------------------------------------------------------------------
     1   7 N    3.044 --     2 C    1.961    72 H    0.941
     2   6 C    3.925 --     1 N    1.961     3 C    0.995    47 H    0.892
     3   6 C    3.975 --     2 C    0.995     4 C    0.964    14 C    0.958
                            31 C    0.945
     4   6 C    3.948 --    13 C    1.410     5 C    1.371     3 C    0.964
     5   6 C    3.961 --     6 C    1.400     4 C    1.371    34 H    0.956
     6   6 C    3.906 --     5 C    1.400     9 C    1.223     7 O    1.103
     7   8 O    2.257 --     6 C    1.103     8 C    0.977
     8   6 C    3.931 --     7 O    0.977    36 H    0.977    35 H    0.973
                            37 H    0.973
     9   6 C    3.900 --    12 C    1.391     6 C    1.223    10 O    1.098
    10   8 O    2.247 --     9 C    1.098    11 C    0.978
    11   6 C    3.933 --    10 O    0.978    39 H    0.977    40 H    0.976
                            38 H    0.972
    12   6 C    3.963 --    13 C    1.406     9 C    1.391    41 H    0.964
    13   6 C    3.953 --     4 C    1.410    12 C    1.406    42 H    0.962
    14   6 C    3.976 --    15 C    0.987    43 H    0.971    44 H    0.971
                             3 C    0.958
    15   6 C    3.986 --    16 C    1.058    14 C    0.987    45 H    0.959
                            46 H    0.924
    16   6 C    3.596 --    17 N    1.395    15 C    1.058    48 H    0.957
    17   7 N    3.476 --    16 C    1.395    30 C    0.999    18 C    0.988
    18   6 C    3.955 --    17 N    0.988    50 H    0.967    49 H    0.966
                            19 C    0.965
    19   6 C    3.976 --    20 C    1.008    51 H    0.972    52 H    0.972
                            18 C    0.965
    20   6 C    3.944 --    21 C    1.409    29 C    1.379    19 C    1.008
    21   6 C    3.950 --    22 C    1.417    20 C    1.409    53 H    0.968
    22   6 C    3.959 --    21 C    1.417    23 C    1.383    54 H    0.963
    23   6 C    3.895 --    22 C    1.383    26 C    1.219    24 O    1.111
    24   8 O    2.255 --    23 C    1.111    25 C    0.976
    25   6 C    3.928 --    57 H    0.977    24 O    0.976    55 H    0.973
                            56 H    0.972
    26   6 C    3.899 --    29 C    1.395    23 C    1.219    27 O    1.104
    27   8 O    2.254 --    26 C    1.104    28 C    0.979
    28   6 C    3.932 --    27 O    0.979    58 H    0.977    59 H    0.973
                            60 H    0.973
    29   6 C    3.959 --    26 C    1.395    20 C    1.379    61 H    0.962
    30   6 C    3.958 --    17 N    0.999    64 H    0.978    62 H    0.967
                            63 H    0.961
    31   6 C    3.974 --    33 C    1.010    32 C    1.008    65 H    0.958
                             3 C    0.945
    32   6 C    3.977 --    31 C    1.008    68 H    0.981    67 H    0.981
                            66 H    0.973
    33   6 C    3.986 --    31 C    1.010    70 H    0.982    71 H    0.981
                            69 H    0.980
    34   1 H    0.996 --     5 C    0.956
    35   1 H    0.993 --     8 C    0.973
    36   1 H    0.993 --     8 C    0.977
    37   1 H    0.994 --     8 C    0.973
    38   1 H    0.992 --    11 C    0.972
    39   1 H    0.992 --    11 C    0.977
    40   1 H    0.995 --    11 C    0.976
    41   1 H    0.996 --    12 C    0.964
    42   1 H    0.998 --    13 C    0.962
    43   1 H    0.996 --    14 C    0.971
    44   1 H    0.996 --    14 C    0.971
    45   1 H    0.994 --    15 C    0.959
    46   1 H    0.966 --    15 C    0.924
    47   1 H    0.987 --     2 C    0.892
    48   1 H    0.995 --    16 C    0.957
    49   1 H    0.992 --    18 C    0.966
    50   1 H    0.994 --    18 C    0.967
    51   1 H    0.996 --    19 C    0.972
    52   1 H    0.996 --    19 C    0.972
    53   1 H    0.997 --    21 C    0.968
    54   1 H    0.995 --    22 C    0.963
    55   1 H    0.992 --    25 C    0.973
    56   1 H    0.991 --    25 C    0.972
    57   1 H    0.992 --    25 C    0.977
    58   1 H    0.993 --    28 C    0.977
    59   1 H    0.993 --    28 C    0.973
    60   1 H    0.993 --    28 C    0.973
    61   1 H    0.997 --    29 C    0.962
    62   1 H    0.985 --    30 C    0.967
    63   1 H    0.987 --    30 C    0.961
    64   1 H    0.994 --    30 C    0.978
    65   1 H    0.993 --    31 C    0.958
    66   1 H    0.990 --    32 C    0.973
    67   1 H    0.996 --    32 C    0.981
    68   1 H    0.994 --    32 C    0.981
    69   1 H    0.995 --    33 C    0.980
    70   1 H    0.997 --    33 C    0.982
    71   1 H    0.994 --    33 C    0.981
    72   1 H    0.970 --     1 N    0.941
 ---------------------------------------------------------------------------

molecular dipole:
                 x           y           z       tot (Debye)
 q only:        0.786      -0.154      -0.694
   full:        1.114      -0.215      -0.860       3.618

           -------------------------------------------------
          | TOTAL ENERGY              -99.403026247171 Eh   |
          | GRADIENT NORM               0.005314496200 Eh/α |
          | HOMO-LUMO GAP               1.666734078517 eV   |
           -------------------------------------------------

 * finished run on 2024/04/06 at 11:15:52.756
