   * xtb version 6.6.1 (8d0f1dd) compiled by 'conda@1efc2f54142f' on 2023-08-01
          program call               : xtb struc.xyz --opt loose --input .xc1 --gfn2

   ID    Z sym.   atoms
    1    6 C      1, 3, 5-7, 10, 11, 14
    2    7 N      2, 4, 9, 13
    3    8 O      8, 12
    4    1 H      15-25
constraining bond 9 10 to    3.9200000 Å, actual value:    1.4599811 Å

          :  Hamiltonian                  GFN2-xTB          :
 * total energy  :   -20.6368748 Eh     change       -0.6650680E-10 Eh
 * total energy  :   -30.0318808 Eh     change       -0.9395006E+01 Eh
 * total energy  :   -36.5149312 Eh     change       -0.6483050E+01 Eh
 * total energy  :   -40.1565710 Eh     change       -0.3641640E+01 Eh
 * total energy  :   -41.3975973 Eh     change       -0.1241026E+01 Eh
 * total energy  :   -41.5528046 Eh     change       -0.1552072E+00 Eh
 * total energy  :   -41.5787579 Eh     change       -0.2595337E-01 Eh
 * total energy  :   -41.6295274 Eh     change       -0.5076950E-01 Eh
 * total energy  :   -41.6694676 Eh     change       -0.3994021E-01 Eh
 * total energy  :   -41.7224699 Eh     change       -0.5300222E-01 Eh
 * total energy  :   -42.1174464 Eh     change       -0.9668665E-04 Eh
 * total energy  :   -42.1175260 Eh     change       -0.7962092E-04 Eh
 * total energy  :   -42.1175868 Eh     change       -0.6078890E-04 Eh
 * total energy  :   -42.1176393 Eh     change       -0.5248058E-04 Eh
 * total energy  :   -42.1176850 Eh     change       -0.4571920E-04 Eh
 * total energy  :   -42.1177354 Eh     change       -0.5037891E-04 Eh
 * total energy  :   -42.1177739 Eh     change       -0.3852432E-04 Eh
 * total energy  :   -42.1178161 Eh     change       -0.4217878E-04 Eh
 * total energy  :   -42.1178388 Eh     change       -0.2276815E-04 Eh
   *** GEOMETRY OPTIMIZATION CONVERGED AFTER 44 ITERATIONS ***

 final structure:
================
25
 xtb: 6.6.1 (8d0f1dd)
C            3.43785659316022        0.90958603825046        0.06965167343493
N            2.50238325344735       -0.18147998375463        0.00422911915560
C            2.78399450104934       -1.46769514381594       -0.12899870944390
N            1.64387897844645       -2.19135480072243       -0.11965056913978
C            0.59384898326301       -1.32447144777426        0.02603806283236
C            1.14381614786775       -0.05111919330893        0.10300802435731
C            0.26595604157756        1.13565144950796        0.20981888055956
O            0.69977345857830        2.26968101308300        0.22962989282220
N           -1.02704260080480        0.78967829621865        0.25902786011262
C           -3.64268704607703        3.65635057156351       -0.29476980227643
C           -1.60034400234607       -0.40414683866154        0.22375104830809
O           -2.78187462060724       -0.61707859723093        0.28422812374599
N           -0.71450664799349       -1.56955398180126        0.08533773217461
C           -1.28225351005450       -2.89523934713230        0.03955854786944
H            3.97960707794799        0.88456062848939        1.01626362852218
H            4.15447326216577        0.84657125771890       -0.74825070315333
H            2.88181047968400        1.84605372313472        0.00702400543324
H            3.76831348081091       -1.88216647611458       -0.23022785928563
H           -2.75274039175823        4.25456388282216       -0.25949842523861
H           -4.04409024780627        3.34516156133178       -1.23964439957344
H           -4.10499523841619        3.32687337216403        0.61513689015916
H           -0.89607606720153       -3.50872656601755        0.85491515437809
H           -1.07555174441725       -3.37371329672123       -0.91936253515412
H           -2.36077151449162       -2.78394499211816        0.15553239656089
H            1.58765288807563       -3.19580258751071       -0.21157641926110

          :  Hamiltonian                  GFN2-xTB          :
         :: total energy             -42.117838848387 Eh    ::
         :: gradient norm              0.002762441469 Eh/a0 ::
         :: HOMO-LUMO gap              1.017950086194 eV    ::
         :: SCC energy               -42.649812649262 Eh    ::
         :: -> dispersion             -0.020558789519 Eh    ::
         :: repulsion energy           0.531928314278 Eh    ::

    * Orbital Energies and Occupations

         #    Occupation            Energy/Eh            Energy/eV
      -------------------------------------------------------------
         1        2.0000           -0.9093668             -24.7451
       ...           ...                  ...                  ...
        25        1.9998           -0.6522824             -17.7495
        26        1.9998           -0.6449224             -17.5492
        27        1.9994           -0.6302559             -17.1501
        28        1.9985           -0.6165959             -16.7784
        29        1.9985           -0.6161044             -16.7651
        30        1.9983           -0.6140073             -16.7080
        31        1.9981           -0.6127807             -16.6746
        32        1.9980           -0.6120893             -16.6558
        33        1.9698           -0.5684948             -15.4695
        34        1.9056           -0.5499230             -14.9642
        35        1.9027           -0.5494166             -14.9504
        36        1.8635           -0.5437244             -14.7955
        37        1.6831           -0.5287834             -14.3889 (HOMO)
        38        0.6669           -0.4913744             -13.3710 (LUMO)
        39        0.0167           -0.4266628             -11.6101
        40        0.0013           -0.3860119             -10.5039
        41        0.0002           -0.3565650              -9.7026
        42        0.0000           -0.2599395              -7.0733
        43                         -0.1943954              -5.2898
        44                         -0.1733882              -4.7181
        45                         -0.1388365              -3.7779
        46                         -0.0808618              -2.2004
        47                         -0.0551573              -1.5009
        48                         -0.0347460              -0.9455
       ...                                ...                  ...
        67                          0.5717886              15.5592
      -------------------------------------------------------------
                  HL-Gap            0.0374090 Eh            1.0180 eV

     #   Z          covCN         q      C6AA      α(0)
     1   6 C        3.692    -0.094    22.484     6.785
     2   7 N        2.835     0.089    19.697     6.592
     3   6 C        3.061     0.056    26.678     8.470
     4   7 N        2.798    -0.064    22.481     7.042
     5   6 C        3.034     0.123    25.270     8.245
     6   6 C        3.133    -0.018    28.229     8.698
     7   6 C        2.761     0.299    21.928     7.669
     8   8 O        0.858    -0.344    20.599     6.085
     9   7 N        1.844    -0.246    27.272     7.740
    10   6 C        2.779    -0.067    29.638     8.917
    11   6 C        2.707     0.338    21.264     7.548
    12   8 O        0.860    -0.338    20.473     6.066
    13   7 N        2.735    -0.071    22.611     7.062
    14   6 C        3.693    -0.066    21.960     6.705
    15   1 H        0.924     0.110     1.693     2.035
    16   1 H        0.925     0.106     1.733     2.059
    17   1 H        0.924     0.140     1.459     1.889
    18   1 H        0.926     0.125     1.574     1.962
    19   1 H        0.926     0.135     1.496     1.913
    20   1 H        0.926     0.132     1.520     1.928
    21   1 H        0.926     0.136     1.490     1.909
    22   1 H        0.924     0.080     1.977     2.199
    23   1 H        0.924     0.081     1.967     2.193
    24   1 H        0.924     0.127     1.557     1.951
    25   1 H        0.860     0.229     0.969     1.542

Wiberg/Mayer (AO) data.
largest (>0.10) Wiberg bond orders for each atom

     #   Z sym  total        # sym  WBO       # sym  WBO       # sym  WBO
 ---------------------------------------------------------------------------
     1   6 C    3.908 --     2 N    0.984    16 H    0.963    17 H    0.956
                            15 H    0.954
     2   7 N    3.716 --     3 C    1.406     6 C    1.181     1 C    0.984
     3   6 C    3.884 --     2 N    1.406     4 N    1.284    18 H    0.952
     4   7 N    3.590 --     3 C    1.284     5 C    1.171    25 H    0.919
     5   6 C    3.950 --     6 C    1.337    13 N    1.267     4 N    1.171
     6   6 C    3.806 --     5 C    1.337     2 N    1.181     7 C    0.990
     7   6 C    3.947 --     8 O    1.636     9 N    1.240     6 C    0.990
     8   8 O    1.929 --     7 C    1.636     9 N    0.133
     9   7 N    2.862 --    11 C    1.278     7 C    1.240     8 O    0.133
                            12 O    0.114
    10   6 C    2.938 --    20 H    0.980    19 H    0.979    21 H    0.979
    11   6 C    3.946 --    12 O    1.677     9 N    1.278    13 N    0.911
    12   8 O    1.975 --    11 C    1.677     9 N    0.114
    13   7 N    3.460 --     5 C    1.267    14 C    0.987    11 C    0.911
    14   6 C    3.917 --    13 N    0.987    22 H    0.965    23 H    0.963
                            24 H    0.960
    15   1 H    0.986 --     1 C    0.954
    16   1 H    0.987 --     1 C    0.963
    17   1 H    0.979 --     1 C    0.956
    18   1 H    0.983 --     3 C    0.952
    19   1 H    0.981 --    10 C    0.979
    20   1 H    0.981 --    10 C    0.980
    21   1 H    0.980 --    10 C    0.979
    22   1 H    0.982 --    14 C    0.965
    23   1 H    0.981 --    14 C    0.963
    24   1 H    0.981 --    14 C    0.960
    25   1 H    0.947 --     4 N    0.919
 ---------------------------------------------------------------------------

molecular dipole:
                 x           y           z       tot (Debye)
 q only:        2.018      -1.269      -0.451
   full:        2.461      -1.957      -0.514       8.099

           -------------------------------------------------
          | TOTAL ENERGY              -42.117838848387 Eh   |
          | GRADIENT NORM               0.002762441469 Eh/α |
          | HOMO-LUMO GAP               1.017950086194 eV   |
           -------------------------------------------------

 * finished run on 2024/06/05 at 19:59:16.755
