   * xtb version 6.6.1 (8d0f1dd) compiled by 'conda@1efc2f54142f' on 2023-08-01
          program call               : xtb xtbopt.xyz --opt crude --input .xc2 --gfn2

   ID    Z sym.   atoms
    1    6 C      1, 3, 5-7, 10, 11, 14
    2    7 N      2, 4, 9, 13
    3    8 O      8, 12
    4    1 H      15-25
########################################################################
[WARNING] Please study the warnings concerning your input carefully
-1- readin_getIntValue: could not parse ''
########################################################################

          :  Hamiltonian                  GFN2-xTB          :
 * total energy  :   -42.0087193 Eh     change       -0.4405365E-12 Eh
   *** GEOMETRY OPTIMIZATION CONVERGED AFTER 1 ITERATIONS ***

 final structure:
================
25
 xtb: 6.6.1 (8d0f1dd)
C            3.00651537931020        1.66538248467798       -0.21689220055497
N            2.34738815829692        0.44623825907281       -0.44190932283609
C            1.70721603105197       -2.69493300945022        1.59388786650359
N            0.64664530266365       -2.17138788843604        1.10820584681147
C            0.45656184136161       -1.08546314546295        0.18491206004334
C            1.40489800894999       -0.19915614596279       -0.08840726009547
C           -0.65337405198935        2.21324044233730       -0.91912936627059
O           -0.21857750254550        2.94154545814259       -1.70029249112298
N           -1.03266476547484        1.27493027785931       -0.17261889175960
C           -1.49227492569729        1.46267723180564        1.20951243067705
C           -1.54028699545884       -0.03868807584305       -0.80239676635603
O           -2.52831925846544        0.00667511202799       -1.46118432147940
N           -0.79209734144189       -1.09878436431093       -0.49127979638431
C           -1.24919268630626       -2.38259983682063       -1.02897241038664
H            2.62350136802109        2.22008001497450        0.64288497731564
H            4.06591736659946        1.44535443038995       -0.07674948776353
H            2.91671813892344        2.26753429622446       -1.12337821867145
H            2.66685985409717       -2.28069597651634        1.29681990472425
H           -1.17110961619882        2.43201770027115        1.58205561337858
H           -2.58267768547796        1.40635670512807        1.23854170579317
H           -1.06925961155874        0.67490444130197        1.83224378183651
H           -1.93794484308297       -2.87207306620604       -0.33899803394716
H           -0.39246982981605       -3.02474873289015       -1.21902026432461
H           -1.77923398050533       -2.20434073972143       -1.96371584481980
H           -0.24230683929233       -2.58582732779367        1.38705210658517

          :  Hamiltonian                  GFN2-xTB          :
         :: total energy             -42.008719338088 Eh    ::
         :: gradient norm              0.006422490171 Eh/a0 ::
         :: HOMO-LUMO gap              1.391561002145 eV    ::
         :: SCC energy               -42.598054354235 Eh    ::
         :: -> dispersion             -0.021908921402 Eh    ::
         :: repulsion energy           0.589012762827 Eh    ::

    * Orbital Energies and Occupations

         #    Occupation            Energy/Eh            Energy/eV
      -------------------------------------------------------------
         1        2.0000           -0.9399483             -25.5773
       ...           ...                  ...                  ...
        25        2.0000           -0.6824546             -18.5705
        26        2.0000           -0.6718323             -18.2815
        27        2.0000           -0.6611538             -17.9909
        28        2.0000           -0.6584639             -17.9177
        29        1.9999           -0.6351826             -17.2842
        30        1.9999           -0.6329771             -17.2242
        31        1.9998           -0.6227105             -16.9448
        32        1.9998           -0.6202223             -16.8771
        33        1.9995           -0.6081876             -16.5496
        34        1.9993           -0.6025271             -16.3956
        35        1.9984           -0.5896135             -16.0442
        36        1.9068           -0.5247957             -14.2804
        37        1.6712           -0.5027521             -13.6806 (HOMO)
        38        0.3349           -0.4516132             -12.2890 (LUMO)
        39        0.0428           -0.4164859             -11.3332
        40        0.0273           -0.4092649             -11.1367
        41        0.0140           -0.3986104             -10.8467
        42        0.0064           -0.3860604             -10.5052
        43        0.0002           -0.3270212              -8.8987
        44        0.0000           -0.2516001              -6.8464
        45                         -0.1905666              -5.1856
        46                         -0.1267102              -3.4480
        47                         -0.0972363              -2.6459
        48                         -0.0752640              -2.0480
       ...                                ...                  ...
        67                          0.9607160              26.1424
      -------------------------------------------------------------
                  HL-Gap            0.0511389 Eh            1.3916 eV

     #   Z          covCN         q      C6AA      α(0)
     1   6 C        3.689    -0.053    21.716     6.669
     2   7 N        1.820    -0.046    22.841     7.081
     3   6 C        1.841    -0.099    33.904     9.406
     4   7 N        2.684    -0.013    21.519     6.890
     5   6 C        2.818     0.039    27.118     8.532
     6   6 C        1.908     0.062    29.533     8.777
     7   6 C        1.793     0.307    24.280     7.964
     8   8 O        0.856    -0.126    16.903     5.512
     9   7 N        2.717    -0.063    22.467     7.040
    10   6 C        3.698    -0.062    21.854     6.686
    11   6 C        2.710     0.314    21.661     7.618
    12   8 O        0.858    -0.324    20.212     6.028
    13   7 N        2.736    -0.056    22.316     7.016
    14   6 C        3.711    -0.068    21.946     6.695
    15   1 H        0.924     0.073     2.049     2.239
    16   1 H        0.924     0.118     1.634     1.999
    17   1 H        0.924     0.110     1.693     2.035
    18   1 H        0.925     0.076     2.022     2.224
    19   1 H        0.925     0.101     1.778     2.085
    20   1 H        0.924     0.110     1.696     2.036
    21   1 H        0.925     0.094     1.842     2.122
    22   1 H        0.924     0.087     1.912     2.162
    23   1 H        0.925     0.092     1.862     2.134
    24   1 H        0.925     0.109     1.709     2.045
    25   1 H        0.860     0.218     1.019     1.581

Wiberg/Mayer (AO) data.
largest (>0.10) Wiberg bond orders for each atom

     #   Z sym  total        # sym  WBO       # sym  WBO       # sym  WBO
 ---------------------------------------------------------------------------
     1   6 C    3.942 --     2 N    1.029    15 H    0.963    16 H    0.944
                            17 H    0.940
     2   7 N    3.429 --     6 C    2.131     1 C    1.029     5 C    0.141
     3   6 C    2.807 --     4 N    1.684    18 H    0.939
     4   7 N    3.637 --     3 C    1.684     5 C    0.979    25 H    0.907
     5   6 C    3.790 --     6 C    1.530    13 N    0.993     4 N    0.979
                             2 N    0.141
     6   6 C    3.900 --     2 N    2.131     5 C    1.530
     7   6 C    3.645 --     8 O    2.039     9 N    1.526
     8   8 O    2.327 --     7 C    2.039     9 N    0.217
     9   7 N    3.531 --     7 C    1.526    10 C    0.926    11 C    0.747
                             8 O    0.217
    10   6 C    3.889 --    19 H    0.976    21 H    0.972    20 H    0.967
                             9 N    0.926
    11   6 C    3.898 --    12 O    1.764    13 N    1.273     9 N    0.747
    12   8 O    2.142 --    11 C    1.764    13 N    0.196
    13   7 N    3.521 --    11 C    1.273     5 C    0.993    14 C    0.955
                            12 O    0.196
    14   6 C    3.922 --    23 H    0.976    22 H    0.970    24 H    0.967
                            13 N    0.955
    15   1 H    0.987 --     1 C    0.963
    16   1 H    0.982 --     1 C    0.944
    17   1 H    0.983 --     1 C    0.940
    18   1 H    0.962 --     3 C    0.939
    19   1 H    0.989 --    10 C    0.976
    20   1 H    0.987 --    10 C    0.967
    21   1 H    0.990 --    10 C    0.972
    22   1 H    0.990 --    14 C    0.970
    23   1 H    0.990 --    14 C    0.976
    24   1 H    0.986 --    14 C    0.967
    25   1 H    0.941 --     4 N    0.907
 ---------------------------------------------------------------------------

molecular dipole:
                 x           y           z       tot (Debye)
 q only:        0.663       0.049       0.897
   full:        0.542       0.407       0.859       2.781

           -------------------------------------------------
          | TOTAL ENERGY              -42.008719338088 Eh   |
          | GRADIENT NORM               0.006422490171 Eh/α |
          | HOMO-LUMO GAP               1.391561002145 eV   |
           -------------------------------------------------

 * finished run on 2024/06/05 at 19:58:58.921
