   * xtb version 6.6.1 (8d0f1dd) compiled by 'conda@1efc2f54142f' on 2023-08-01
          program call               : xtb xtbopt.xyz --opt crude --input .xc2 --gfn2

   ID    Z sym.   atoms
    1    7 N      1, 17
    2    6 C      2-6, 8, 9, 11-16, 18-23, 25, 26, 28-33
    3    8 O      7, 10, 24, 27
    4    1 H      34-72

          :  Hamiltonian                  GFN2-xTB          :
 * total energy  :   -99.3607226 Eh     change       -0.3169021E-11 Eh
   *** GEOMETRY OPTIMIZATION CONVERGED AFTER 1 ITERATIONS ***

 final structure:
================
72
 xtb: 6.6.1 (8d0f1dd)
N           -2.07116867024218        2.51400758840995        2.03958998584323
C           -2.09946307689337        2.36154707280473        0.79543767306644
C           -3.37666938564568        2.06559825490272        0.03277821207460
C           -3.76334186188424        0.60243692317563        0.18114914506872
C           -4.79210572141997        0.09401725993408       -0.61282460389706
C           -5.20188981059834       -1.22665049466107       -0.51642984495057
O           -6.18540580531777       -1.79200309637062       -1.23941137257847
C           -6.89843273553030       -1.01304903532026       -2.17158262036920
C           -4.56077489906922       -2.09212945928007        0.41581274846268
O           -5.01847964215285       -3.35574439116966        0.44291903780335
C           -4.46363290869433       -4.27172902791189        1.35865899538124
C           -3.54514891799245       -1.57611930277565        1.20785797277987
C           -3.15303693556423       -0.25068692304939        1.09129390301775
C           -2.96771680831055        2.34139270395018       -1.43164275266843
C           -1.49433506628917        1.95272790768811       -1.49281778158371
C           -0.93901562735996        2.44447738353344       -0.16147205550038
N            0.85857622826502       -0.33804304257666       -0.18921602642901
C            1.99044378840250       -0.39967943190408        0.34082073158981
C            3.61474264619222       -1.00419984085387       -1.99018432589340
C            4.76962631162908       -0.62226483602540       -1.35116668459580
C            5.27196544524624        0.70515324703176       -1.46181883236420
C            6.43349064649685        1.08057769949056       -0.83970884308788
C            7.15955127323577        0.17128884540839       -0.06090042385401
O            8.30039459006825        0.43039845989547        0.57789184560944
C            8.89925016959344        1.70422297093548        0.46803546821391
C            6.66663487910102       -1.16848711390637        0.08779237683183
O            7.42773172521583       -1.95715499058773        0.87100557091371
C            7.03816276344931       -3.29417868032307        1.08151776300571
C            5.50936543921912       -1.54069760163044       -0.54754655725077
C            0.07535273378755       -1.50127277886280       -0.44213146432676
C           -4.56175686126584        2.95836586203201        0.50182038445411
C           -5.11703195834444        2.49004972023990        1.84379377172864
C           -4.18022205699445        4.43321643569382        0.60947868436715
H           -5.29646279638035        0.74823865373424       -1.30496585476348
H           -7.41057280808661       -0.17665115649633       -1.68676667441931
H           -7.63686191277510       -1.68285214045327       -2.60779797710676
H           -6.24282267734135       -0.63397548429674       -2.96161488916892
H           -4.62539263433604       -3.95147429273054        2.39162125033111
H           -4.98605841219673       -5.20981073946948        1.18491100424286
H           -3.39341482236459       -4.41412414416145        1.18365102025583
H           -3.05383890903670       -2.20242687736350        1.93512488418760
H           -2.37685958851064        0.11578268998693        1.74264551092892
H           -3.56725844817848        1.78353275932072       -2.14652652338060
H           -3.07697687839994        3.40252807924800       -1.65345463091729
H           -1.39319194662349        0.86908124211650       -1.55335749494949
H           -0.98441531146758        2.39471002497976       -2.34678667598377
H           -0.09373477968855        1.84785275863163        0.18405577436155
H           -0.62198270462418        3.48828317221333       -0.22362176246808
H            2.46379151279320       -1.32499757492109        0.68195443196743
H            2.54081536443727        0.51461319083156        0.50380052685113
H            3.06014055209030       -0.31306432656998       -2.59798834038002
H            3.25241650258357       -2.01520701095271       -1.94146118859217
H            4.72424233750288        1.41667930077961       -2.05976328677779
H            6.79309429014526        2.09107565286045       -0.95333200445235
H            8.27202102355951        2.47714309386595        0.91586541669975
H            9.10778335634392        1.95761425936398       -0.57210950823732
H            9.83356278634883        1.63593546616205        1.01828954093632
H            7.78447758138325       -3.71393797306281        1.75267890594946
H            6.05271741935488       -3.35409619218400        1.55273187932645
H            7.03143615198330       -3.86036613662949        0.14577104157098
H            5.13276342932528       -2.54733393058254       -0.46226869849097
H           -0.06720359827543       -1.58543884668764       -1.52054078055780
H           -0.90711762360243       -1.35814594267728        0.01083754446988
H            0.52892495298998       -2.42529561229883       -0.06260264456958
H           -5.34538357010993        2.86224916222176       -0.25849298372654
H           -4.32499189580460        2.50604980970542        2.58821720827556
H           -5.51578794942086        1.48073342130394        1.78052359738746
H           -5.91392203830974        3.15565390020179        2.16584548698904
H           -3.46283854081982        4.58042445977375        1.41221777725454
H           -3.75625816801999        4.81954697302676       -0.31385569288282
H           -5.06713014434239        5.01914026862157        0.83688020613543
H           -1.17685339550960        2.72108127719918        2.47214936539184

          :  Hamiltonian                  GFN2-xTB          :
         :: total energy             -99.360722617219 Eh    ::
         :: gradient norm              0.003805984292 Eh/a0 ::
         :: HOMO-LUMO gap              1.058480060092 eV    ::
         :: SCC energy              -100.765922491671 Eh    ::
         :: -> dispersion             -0.071314139059 Eh    ::
         :: repulsion energy           1.403772542961 Eh    ::

    * Orbital Energies and Occupations

         #    Occupation            Energy/Eh            Energy/eV
      -------------------------------------------------------------
         1        2.0000           -0.8236861             -22.4136
       ...           ...                  ...                  ...
        78        1.9960           -0.5279185             -14.3654
        79        1.9956           -0.5263426             -14.3225
        80        1.9946           -0.5232899             -14.2394
        81        1.9918           -0.5166188             -14.0579
        82        1.9894           -0.5124673             -13.9449
        83        1.9883           -0.5108478             -13.9009
        84        1.9864           -0.5085038             -13.8371
        85        1.9829           -0.5048424             -13.7375
        86        1.9570           -0.4900268             -13.3343
        87        1.9164           -0.4791697             -13.0389
        88        1.9129           -0.4784870             -13.0203
        89        1.8273           -0.4669207             -12.7056
        90        1.7405           -0.4597031             -12.5092 (HOMO)
        91        0.7301           -0.4208047             -11.4507 (LUMO)
        92        0.0072           -0.3404830              -9.2650
        93        0.0030           -0.3267374              -8.8910
        94        0.0017           -0.3175508              -8.6410
        95        0.0015           -0.3160419              -8.5999
        96        0.0013           -0.3131797              -8.5221
        97        0.0004           -0.2936083              -7.9895
        98        0.0000           -0.1911584              -5.2017
        99        0.0000           -0.1868557              -5.0846
       100                         -0.0726591              -1.9772
       101                         -0.0665762              -1.8116
       ...                                ...                  ...
       171                          0.5826924              15.8559
      -------------------------------------------------------------
                  HL-Gap            0.0388984 Eh            1.0585 eV

     #   Z          covCN         q      C6AA      α(0)
     1   7 N        1.776    -0.287    28.248     7.871
     2   6 C        2.904     0.140    24.942     8.189
     3   6 C        3.925     0.006    20.410     6.421
     4   6 C        2.971     0.020    27.553     8.610
     5   6 C        2.921    -0.073    29.819     8.955
     6   6 C        2.862     0.135    25.044     8.203
     7   8 O        1.706    -0.217    17.611     5.666
     8   6 C        3.644     0.024    20.502     6.508
     9   6 C        2.863     0.134    25.066     8.206
    10   8 O        1.706    -0.216    17.588     5.662
    11   6 C        3.645     0.024    20.506     6.508
    12   6 C        2.913    -0.069    29.713     8.938
    13   6 C        2.921    -0.043    29.063     8.841
    14   6 C        3.839    -0.067    21.747     6.634
    15   6 C        3.827    -0.062    21.662     6.623
    16   6 C        3.825    -0.083    22.064     6.684
    17   7 N        1.819    -0.177    25.622     7.500
    18   6 C        2.794     0.032    27.276     8.555
    19   6 C        2.852    -0.084    30.089     8.990
    20   6 C        2.959     0.025    27.455     8.594
    21   6 C        2.920    -0.034    28.854     8.809
    22   6 C        2.906    -0.062    29.531     8.911
    23   6 C        2.864     0.145    24.851     8.171
    24   8 O        1.706    -0.196    17.276     5.612
    25   6 C        3.646     0.019    20.589     6.521
    26   6 C        2.856     0.137    24.999     8.195
    27   8 O        1.706    -0.225    17.727     5.685
    28   6 C        3.646     0.025    20.484     6.504
    29   6 C        2.917    -0.075    29.883     8.964
    30   6 C        3.714    -0.035    21.321     6.597
    31   6 C        3.852    -0.005    20.640     6.462
    32   6 C        3.756    -0.119    22.837     6.814
    33   6 C        3.756    -0.112    22.697     6.793
    34   1 H        0.926     0.059     2.210     2.325
    35   1 H        0.924     0.058     2.222     2.331
    36   1 H        0.925     0.085     1.931     2.173
    37   1 H        0.924     0.055     2.256     2.349
    38   1 H        0.924     0.060     2.203     2.321
    39   1 H        0.925     0.085     1.932     2.173
    40   1 H        0.924     0.054     2.273     2.358
    41   1 H        0.926     0.057     2.238     2.340
    42   1 H        0.926     0.057     2.230     2.335
    43   1 H        0.925     0.044     2.394     2.419
    44   1 H        0.925     0.052     2.298     2.371
    45   1 H        0.925     0.047     2.358     2.401
    46   1 H        0.925     0.048     2.350     2.397
    47   1 H        0.924     0.071     2.078     2.254
    48   1 H        0.924     0.067     2.118     2.276
    49   1 H        0.924     0.028     2.608     2.526
    50   1 H        0.926     0.057     2.239     2.340
    51   1 H        0.926     0.060     2.199     2.319
    52   1 H        0.926     0.057     2.232     2.336
    53   1 H        0.926     0.062     2.171     2.304
    54   1 H        0.926     0.063     2.160     2.298
    55   1 H        0.924     0.064     2.158     2.297
    56   1 H        0.924     0.065     2.144     2.290
    57   1 H        0.925     0.090     1.883     2.146
    58   1 H        0.925     0.084     1.936     2.176
    59   1 H        0.924     0.052     2.296     2.369
    60   1 H        0.924     0.057     2.233     2.337
    61   1 H        0.926     0.059     2.211     2.325
    62   1 H        0.924     0.067     2.122     2.278
    63   1 H        0.924     0.064     2.148     2.292
    64   1 H        0.924     0.034     2.524     2.484
    65   1 H        0.924     0.043     2.406     2.426
    66   1 H        0.925     0.073     2.052     2.240
    67   1 H        0.925     0.038     2.477     2.461
    68   1 H        0.925     0.054     2.271     2.356
    69   1 H        0.925     0.052     2.295     2.369
    70   1 H        0.925     0.039     2.459     2.452
    71   1 H        0.925     0.053     2.279     2.361
    72   1 H        0.860     0.159     1.343     1.815

Wiberg/Mayer (AO) data.
largest (>0.10) Wiberg bond orders for each atom

     #   Z sym  total        # sym  WBO       # sym  WBO       # sym  WBO
 ---------------------------------------------------------------------------
     1   7 N    2.985 --     2 C    1.894    72 H    0.935
     2   6 C    3.928 --     1 N    1.894    16 C    0.982     3 C    0.970
     3   6 C    3.958 --     4 C    0.970     2 C    0.970    14 C    0.967
                            31 C    0.936
     4   6 C    3.916 --    13 C    1.391     5 C    1.374     3 C    0.970
     5   6 C    3.945 --     6 C    1.390     4 C    1.374    34 H    0.956
     6   6 C    3.878 --     5 C    1.390     9 C    1.205     7 O    1.113
     7   8 O    2.247 --     6 C    1.113     8 C    0.976
     8   6 C    3.925 --    36 H    0.976     7 O    0.976    37 H    0.971
                            35 H    0.971
     9   6 C    3.868 --    12 C    1.377     6 C    1.205    10 O    1.115
    10   8 O    2.245 --     9 C    1.115    11 C    0.975
    11   6 C    3.926 --    39 H    0.976    10 O    0.975    40 H    0.972
                            38 H    0.971
    12   6 C    3.947 --    13 C    1.417     9 C    1.377    41 H    0.962
    13   6 C    3.921 --    12 C    1.417     4 C    1.391    42 H    0.961
    14   6 C    3.980 --    15 C    1.006    43 H    0.972     3 C    0.967
                            44 H    0.967
    15   6 C    3.985 --    14 C    1.006    16 C    1.004    45 H    0.975
                            46 H    0.974
    16   6 C    3.951 --    15 C    1.004     2 C    0.982    47 H    0.951
                            48 H    0.946
    17   7 N    3.054 --    18 C    1.946    30 C    1.044
    18   6 C    3.951 --    17 N    1.946    50 H    0.964    49 H    0.942
    19   6 C    3.554 --    20 C    1.493    51 H    0.978    52 H    0.978
    20   6 C    3.978 --    19 C    1.493    21 C    1.206    29 C    1.201
    21   6 C    3.812 --    22 C    1.526    20 C    1.206    53 H    0.966
    22   6 C    3.967 --    21 C    1.526    23 C    1.311    54 H    0.961
    23   6 C    3.773 --    22 C    1.311    26 C    1.166    24 O    1.155
    24   8 O    2.268 --    23 C    1.155    25 C    0.968
    25   6 C    3.920 --    57 H    0.976    56 H    0.971    55 H    0.970
                            24 O    0.968
    26   6 C    3.912 --    29 C    1.479    23 C    1.166    27 O    1.106
    27   8 O    2.258 --    26 C    1.106    28 C    0.976
    28   6 C    3.927 --    58 H    0.976    27 O    0.976    59 H    0.973
                            60 H    0.972
    29   6 C    3.853 --    26 C    1.479    20 C    1.201    61 H    0.961
    30   6 C    3.973 --    17 N    1.044    64 H    0.968    62 H    0.958
                            63 H    0.958
    31   6 C    3.965 --    32 C    1.008    33 C    1.008    65 H    0.955
                             3 C    0.936
    32   6 C    3.966 --    31 C    1.008    67 H    0.979    68 H    0.979
                            66 H    0.967
    33   6 C    3.978 --    31 C    1.008    69 H    0.979    71 H    0.979
                            70 H    0.977
    34   1 H    0.994 --     5 C    0.956
    35   1 H    0.990 --     8 C    0.971
    36   1 H    0.992 --     8 C    0.976
    37   1 H    0.990 --     8 C    0.971
    38   1 H    0.989 --    11 C    0.971
    39   1 H    0.992 --    11 C    0.976
    40   1 H    0.990 --    11 C    0.972
    41   1 H    0.994 --    12 C    0.962
    42   1 H    0.995 --    13 C    0.961
    43   1 H    0.996 --    14 C    0.972
    44   1 H    0.993 --    14 C    0.967
    45   1 H    0.995 --    15 C    0.975
    46   1 H    0.992 --    15 C    0.974
    47   1 H    0.993 --    16 C    0.951
    48   1 H    0.992 --    16 C    0.946
    49   1 H    0.982 --    18 C    0.942
    50   1 H    0.992 --    18 C    0.964
    51   1 H    0.995 --    19 C    0.978
    52   1 H    0.996 --    19 C    0.978
    53   1 H    0.995 --    21 C    0.966
    54   1 H    0.994 --    22 C    0.961
    55   1 H    0.988 --    25 C    0.970
    56   1 H    0.989 --    25 C    0.971
    57   1 H    0.991 --    25 C    0.976
    58   1 H    0.992 --    28 C    0.976
    59   1 H    0.992 --    28 C    0.973
    60   1 H    0.992 --    28 C    0.972
    61   1 H    0.995 --    29 C    0.961
    62   1 H    0.994 --    30 C    0.958
    63   1 H    0.994 --    30 C    0.958
    64   1 H    0.988 --    30 C    0.968
    65   1 H    0.986 --    31 C    0.955
    66   1 H    0.986 --    32 C    0.967
    67   1 H    0.994 --    32 C    0.979
    68   1 H    0.992 --    32 C    0.979
    69   1 H    0.993 --    33 C    0.979
    70   1 H    0.995 --    33 C    0.977
    71   1 H    0.993 --    33 C    0.979
    72   1 H    0.963 --     1 N    0.935
 ---------------------------------------------------------------------------

molecular dipole:
                 x           y           z       tot (Debye)
 q only:        1.214      -0.008      -0.334
   full:        1.709      -0.146      -0.464       4.517

           -------------------------------------------------
          | TOTAL ENERGY              -99.360722617219 Eh   |
          | GRADIENT NORM               0.003805984292 Eh/α |
          | HOMO-LUMO GAP               1.058480060092 eV   |
           -------------------------------------------------

 * finished run on 2024/04/06 at 11:13:24.300
