   * xtb version 6.6.1 (8d0f1dd) compiled by 'conda@1efc2f54142f' on 2023-08-01
          program call               : xtb struc.xyz --opt loose --input .xc1 --gfn2

   ID    Z sym.   atoms
    1    6 C      1, 3, 5-7, 10, 11, 14
    2    7 N      2, 4, 9, 13
    3    8 O      8, 12
    4    1 H      15-25
constraining bond 7 20 to    3.7133300 Å, actual value:    3.1456537 Å

          :  Hamiltonian                  GFN2-xTB          :
 * total energy  :   -42.8232577 Eh     change       -0.6650680E-10 Eh
 * total energy  :   -45.1073678 Eh     change       -0.2284110E+01 Eh
 * total energy  :   -49.0440050 Eh     change       -0.3936637E+01 Eh
 * total energy  :   -54.8442214 Eh     change       -0.5800216E+01 Eh
 * total energy  :   -57.1597887 Eh     change       -0.2315567E+01 Eh
 * total energy  :   -58.0456335 Eh     change       -0.8858447E+00 Eh
 * total energy  :   -58.7888271 Eh     change       -0.7431937E+00 Eh
 * total energy  :   -58.3667723 Eh     change        0.4220548E+00 Eh
 * total energy  :   -59.2768748 Eh     change       -0.9101025E+00 Eh
 * total energy  :   -59.3783019 Eh     change       -0.1014272E+00 Eh
 * total energy  :   -59.7327855 Eh     change       -0.8732899E-04 Eh
 * total energy  :   -59.7328360 Eh     change       -0.5055549E-04 Eh
 * total energy  :   -59.7328722 Eh     change       -0.3618601E-04 Eh
 * total energy  :   -59.7329138 Eh     change       -0.4159910E-04 Eh
 * total energy  :   -59.7329648 Eh     change       -0.5097961E-04 Eh
 * total energy  :   -59.7329619 Eh     change        0.2934871E-05 Eh
 * total energy  :   -59.7322855 Eh     change        0.6763814E-03 Eh
 * total energy  :   -59.7330286 Eh     change       -0.7431379E-03 Eh
 * total energy  :   -59.7330449 Eh     change       -0.1631389E-04 Eh
   *** GEOMETRY OPTIMIZATION CONVERGED AFTER 47 ITERATIONS ***

 final structure:
================
25
 xtb: 6.6.1 (8d0f1dd)
C            3.12916831355536        1.18806158130270       -0.19375736434241
N            2.14295663959370        0.14370067117576       -0.09094055536835
C            2.37671405455965       -1.12297095373549        0.22625600398921
N            1.21262872227472       -1.79524623480636        0.23526535913490
C            0.20728536968161       -0.92374771922208       -0.09332943366254
C            0.80517743373050        0.30024220941951       -0.31583783346878
C            0.07258481543304        1.60943127371021       -0.78914649211756
O            0.44839774542928        2.63536328333882       -0.17731337681499
N           -1.59007793878049        1.02904688452610        0.12434802715601
C           -2.21094891628563        1.98286640726167        0.69073188453659
C           -2.10820337760567       -0.27864872210996        0.05047665774203
O           -3.27425499226563       -0.54612075971420        0.11797098144555
N           -1.12125526961046       -1.24514168655718       -0.11201906400311
C           -1.52629382009311       -2.63935492386900       -0.13771416747602
H            3.86048012408442        1.08905511961497        0.60610492894365
H            3.64423915812744        1.13196609302531       -1.15382641629468
H            2.63130170775390        2.15382877918703       -0.11060450488292
H            3.33751091793462       -1.54704137481253        0.44104322344433
H           -1.73377094099439        2.95574869851982        0.67699622133955
H           -0.13667458097238        1.57756016350366       -1.15690766287554
H           -3.16784059800221        1.85286471942377        1.18304138824780
H           -1.32431644172851       -3.12926323407354        0.81692603621824
H           -1.01773323203467       -3.16202146231898       -0.94711793900469
H           -2.60075333630412       -2.66664947493334       -0.31444479364442
H            1.10410995661973       -2.77529079625783        0.45497050965817

          :  Hamiltonian                  GFN2-xTB          :
         :: total energy             -59.733044925570 Eh    ::
         :: gradient norm              0.002342686166 Eh/a0 ::
         :: HOMO-LUMO gap              2.335385468917 eV    ::
         :: SCC energy               -42.687356177694 Eh    ::
         :: -> dispersion             -0.023096645665 Eh    ::
         :: repulsion energy           2.269204992169 Eh    ::

    * Orbital Energies and Occupations

         #    Occupation            Energy/Eh            Energy/eV
      -------------------------------------------------------------
         1        2.0000           -0.9091205             -24.7384
       ...           ...                  ...                  ...
        25        2.0000           -0.6723560             -18.2957
        26        2.0000           -0.6658441             -18.1185
        27        2.0000           -0.6589442             -17.9308
        28        1.9998           -0.6347827             -17.2733
        29        1.9998           -0.6334106             -17.2360
        30        1.9997           -0.6281543             -17.0929
        31        1.9996           -0.6242517             -16.9868
        32        1.9993           -0.6163712             -16.7723
        33        1.9992           -0.6129300             -16.6787
        34        1.9962           -0.5891327             -16.0311
        35        1.9795           -0.5622648             -15.3000
        36        1.9426           -0.5456361             -14.8475
        37        1.8992           -0.5363565             -14.5950 (HOMO)
        38        0.1540           -0.4505327             -12.2596 (LUMO)
        39        0.0226           -0.4190482             -11.4029
        40        0.0083           -0.4030295             -10.9670
        41        0.0003           -0.3495987              -9.5131
        42        0.0001           -0.3282430              -8.9319
        43                         -0.1925823              -5.2404
        44                         -0.1868107              -5.0834
        45                         -0.1561001              -4.2477
        46                         -0.1004335              -2.7329
        47                         -0.0667629              -1.8167
        48                         -0.0506887              -1.3793
       ...                                ...                  ...
        67                         10.4982869             285.6729
      -------------------------------------------------------------
                  HL-Gap            0.0858238 Eh            2.3354 eV

     #   Z          covCN         q      C6AA      α(0)
     1   6 C        3.693    -0.095    22.498     6.787
     2   7 N        2.853     0.090    19.685     6.590
     3   6 C        3.048     0.048    26.874     8.502
     4   7 N        2.810    -0.057    22.342     7.020
     5   6 C        3.033     0.105    25.642     8.306
     6   6 C        3.099    -0.021    28.399     8.733
     7   6 C        3.138     0.154    24.455     8.094
     8   8 O        0.863    -0.392    21.515     6.219
     9   7 N        2.210    -0.153    24.730     7.380
    10   6 C        2.791     0.054    26.768     8.475
    11   6 C        2.729     0.330    21.395     7.573
    12   8 O        0.858    -0.340    20.515     6.073
    13   7 N        2.738    -0.060    22.395     7.029
    14   6 C        3.700    -0.072    22.044     6.714
    15   1 H        0.925     0.105     1.744     2.065
    16   1 H        0.924     0.107     1.723     2.052
    17   1 H        0.925     0.137     1.483     1.904
    18   1 H        0.926     0.124     1.584     1.968
    19   1 H        0.925     0.139     1.470     1.896
    20   1 H        0.939     0.166     1.285     1.772
    21   1 H        0.925     0.118     1.626     1.994
    22   1 H        0.924     0.078     1.998     2.210
    23   1 H        0.925     0.081     1.971     2.196
    24   1 H        0.925     0.123     1.592     1.973
    25   1 H        0.860     0.229     0.967     1.541

Wiberg/Mayer (AO) data.
largest (>0.10) Wiberg bond orders for each atom

     #   Z sym  total        # sym  WBO       # sym  WBO       # sym  WBO
 ---------------------------------------------------------------------------
     1   6 C    3.915 --     2 N    0.984    15 H    0.967    17 H    0.958
                            16 H    0.956
     2   7 N    3.718 --     3 C    1.385     6 C    1.208     1 C    0.984
     3   6 C    3.896 --     2 N    1.385     4 N    1.301    18 H    0.952
     4   7 N    3.604 --     3 C    1.301     5 C    1.182    25 H    0.917
     5   6 C    3.933 --     6 C    1.427     4 N    1.182    13 N    1.139
     6   6 C    3.870 --     5 C    1.427     2 N    1.208     7 C    0.909
     7   6 C    3.913 --     8 O    1.669    20 H    0.948     6 C    0.909
                             9 N    0.310
     8   8 O    1.946 --     7 C    1.669     9 N    0.129
     9   7 N    3.365 --    10 C    1.782    11 C    1.014     7 C    0.310
                             8 O    0.129
    10   6 C    3.751 --     9 N    1.782    19 H    0.944    21 H    0.943
    11   6 C    3.923 --    12 O    1.730    13 N    1.094     9 N    1.014
    12   8 O    2.054 --    11 C    1.730    13 N    0.142
    13   7 N    3.515 --     5 C    1.139    11 C    1.094    14 C    0.976
                            12 O    0.142
    14   6 C    3.929 --    13 N    0.976    23 H    0.974    22 H    0.969
                            24 H    0.965
    15   1 H    0.988 --     1 C    0.967
    16   1 H    0.987 --     1 C    0.956
    17   1 H    0.981 --     1 C    0.958
    18   1 H    0.984 --     3 C    0.952
    19   1 H    0.977 --    10 C    0.944
    20   1 H    0.964 --     7 C    0.948
    21   1 H    0.979 --    10 C    0.943
    22   1 H    0.990 --    14 C    0.969
    23   1 H    0.990 --    14 C    0.974
    24   1 H    0.984 --    14 C    0.965
    25   1 H    0.946 --     4 N    0.917
 ---------------------------------------------------------------------------

molecular dipole:
                 x           y           z       tot (Debye)
 q only:        2.223      -1.632       0.072
   full:        2.252      -2.022       0.182       7.708

           -------------------------------------------------
          | TOTAL ENERGY              -59.733044925570 Eh   |
          | GRADIENT NORM               0.002342686166 Eh/α |
          | HOMO-LUMO GAP               2.335385468917 eV   |
           -------------------------------------------------

 * finished run on 2024/06/05 at 19:58:11.865
