   * xtb version 6.6.1 (8d0f1dd) compiled by 'conda@1efc2f54142f' on 2023-08-01
          program call               : xtb xtbopt.xyz --opt crude --input .xc2 --gfn2

   ID    Z sym.   atoms
    1    6 C      1, 3, 5-7, 10, 11, 14
    2    7 N      2, 4, 9, 13
    3    8 O      8, 12
    4    1 H      15-25

          :  Hamiltonian                  GFN2-xTB          :
 * total energy  :   -42.0448146 Eh     change       -0.7844392E-11 Eh
   *** GEOMETRY OPTIMIZATION CONVERGED AFTER 1 ITERATIONS ***

 final structure:
================
25
 xtb: 6.6.1 (8d0f1dd)
C            3.29684213844084        1.12452418140994        0.01666296760707
N            2.33201162074328        0.05518527925929       -0.00182181079790
C            2.65010240316103       -1.23346310238288       -0.01314019489801
N            1.54062649521823       -1.97787435942074       -0.00335272554028
C            0.42118862876112       -1.13099390223460        0.01443975684725
C            0.97142584833351        0.18187907201646        0.01579096078347
C            0.23841210689460        1.45607435308185        0.00340428008742
O            0.81870491705237        2.54540438039544       -0.04811336458561
N           -1.07653580915094        1.29805996592874        0.04771174522437
C           -2.01638554473439        2.32420628235630        0.04332280481107
C           -4.37252402375557        0.26391260836618       -0.25324382967468
O           -4.01730419200733       -0.79131825092981       -0.08598723511596
N           -0.81594264969125       -1.46530090561695        0.02281651795548
C           -1.31379914998718       -2.78498612677699        0.02617281648696
H            3.79077088976405        1.16547050961115        0.98844191958081
H            4.04685733525110        0.96419963516817       -0.75638822695550
H            2.78149946610952        2.07117173042504       -0.15437073959484
H            3.65314723815899       -1.61617018455348       -0.03122114450848
H           -1.55391152495824        3.32130260648314        0.01420451278237
H           -2.68030856865422        2.20642154186252       -0.82253241556975
H           -2.64620732526816        2.24247932991110        0.93687879329830
H           -0.98811532913172       -3.34321705374396        0.91212907470103
H           -1.00472240723910       -3.34029932525803       -0.86748855692266
H           -2.40206462835505       -2.73174739445561        0.03677627502837
H            1.50666357914461       -2.98668232930228       -0.00992056313044

          :  Hamiltonian                  GFN2-xTB          :
         :: total energy             -42.044814634784 Eh    ::
         :: gradient norm              0.004177797926 Eh/a0 ::
         :: HOMO-LUMO gap              0.292461281441 eV    ::
         :: SCC energy               -42.580790852763 Eh    ::
         :: -> dispersion             -0.020302722351 Eh    ::
         :: repulsion energy           0.535863652960 Eh    ::

    * Orbital Energies and Occupations

         #    Occupation            Energy/Eh            Energy/eV
      -------------------------------------------------------------
         1        2.0000           -0.8976028             -24.4250
       ...           ...                  ...                  ...
        25        1.9999           -0.6572146             -17.8837
        26        1.9998           -0.6562796             -17.8583
        27        1.9993           -0.6330706             -17.2267
        28        1.9991           -0.6289943             -17.1158
        29        1.9988           -0.6232607             -16.9598
        30        1.9982           -0.6174746             -16.8023
        31        1.9971           -0.6099158             -16.5967
        32        1.9957           -0.6033227             -16.4172
        33        1.9672           -0.5710032             -15.5378
        34        1.8995           -0.5527299             -15.0405
        35        1.7850           -0.5397028             -14.6861
        36        1.6644           -0.5315455             -14.4641
        37        1.4914           -0.5232292             -14.2378 (HOMO)
        38        1.1960           -0.5124814             -13.9453 (LUMO)
        39        0.0071           -0.4168954             -11.3443
        40        0.0007           -0.3796128             -10.3298
        41        0.0007           -0.3794842             -10.3263
        42        0.0003           -0.3679918             -10.0136
        43        0.0000           -0.2883230              -7.8457
        44                         -0.1829228              -4.9776
        45                         -0.1480520              -4.0287
        46                         -0.0750414              -2.0420
        47                         -0.0724489              -1.9714
        48                         -0.0237929              -0.6474
       ...                                ...                  ...
        67                          0.7188348              19.5605
      -------------------------------------------------------------
                  HL-Gap            0.0107478 Eh            0.2925 eV

     #   Z          covCN         q      C6AA      α(0)
     1   6 C        3.694    -0.096    22.519     6.789
     2   7 N        2.826     0.087    19.737     6.598
     3   6 C        3.010     0.068    26.461     8.438
     4   7 N        2.787    -0.081    22.806     7.093
     5   6 C        2.970     0.141    24.917     8.188
     6   6 C        3.093     0.006    27.775     8.638
     7   6 C        2.759     0.284    22.197     7.715
     8   8 O        0.858    -0.380    21.283     6.185
     9   7 N        1.838    -0.162    25.290     7.453
    10   6 C        3.693    -0.039    21.459     6.628
    11   6 C        0.856     0.064    33.232     9.619
    12   8 O        0.856    -0.033    15.560     5.289
    13   7 N        1.825    -0.159    25.240     7.444
    14   6 C        3.698    -0.045    21.555     6.640
    15   1 H        0.924     0.107     1.722     2.052
    16   1 H        0.925     0.102     1.763     2.077
    17   1 H        0.924     0.147     1.411     1.858
    18   1 H        0.926     0.120     1.614     1.987
    19   1 H        0.923     0.123     1.590     1.972
    20   1 H        0.924     0.125     1.573     1.961
    21   1 H        0.924     0.121     1.609     1.984
    22   1 H        0.924     0.083     1.947     2.182
    23   1 H        0.924     0.083     1.951     2.184
    24   1 H        0.925     0.112     1.677     2.025
    25   1 H        0.860     0.222     1.001     1.568

Wiberg/Mayer (AO) data.
largest (>0.10) Wiberg bond orders for each atom

     #   Z sym  total        # sym  WBO       # sym  WBO       # sym  WBO
 ---------------------------------------------------------------------------
     1   6 C    3.896 --     2 N    0.983    16 H    0.963    15 H    0.955
                            17 H    0.942
     2   7 N    3.710 --     3 C    1.366     6 C    1.212     1 C    0.983
     3   6 C    3.819 --     2 N    1.366     4 N    1.330    18 H    0.951
     4   7 N    3.522 --     3 C    1.330     5 C    1.070    25 H    0.922
     5   6 C    3.944 --    13 N    1.527     6 C    1.209     4 N    1.070
     6   6 C    3.690 --     2 N    1.212     5 C    1.209     7 C    1.032
     7   6 C    3.924 --     8 O    1.518     9 N    1.303     6 C    1.032
     8   8 O    1.748 --     7 C    1.518     9 N    0.112
     9   7 N    2.587 --     7 C    1.303    10 C    1.118     8 O    0.112
    10   6 C    3.856 --     9 N    1.118    21 H    0.903    19 H    0.901
                            20 H    0.896
    11   6 C    2.621 --    12 O    2.609
    12   8 O    2.615 --    11 C    2.609
    13   7 N    2.723 --     5 C    1.527    14 C    1.064
    14   6 C    3.910 --    13 N    1.064    24 H    0.950    22 H    0.930
                            23 H    0.929
    15   1 H    0.985 --     1 C    0.955
    16   1 H    0.986 --     1 C    0.963
    17   1 H    0.975 --     1 C    0.942
    18   1 H    0.983 --     3 C    0.951
    19   1 H    0.904 --    10 C    0.901
    20   1 H    0.922 --    10 C    0.896
    21   1 H    0.925 --    10 C    0.903
    22   1 H    0.947 --    14 C    0.930
    23   1 H    0.947 --    14 C    0.929
    24   1 H    0.963 --    14 C    0.950
    25   1 H    0.950 --     4 N    0.922
 ---------------------------------------------------------------------------

molecular dipole:
                 x           y           z       tot (Debye)
 q only:        1.476      -1.650       0.021
   full:        1.908      -2.391       0.068       7.777

           -------------------------------------------------
          | TOTAL ENERGY              -42.044814634784 Eh   |
          | GRADIENT NORM               0.004177797926 Eh/α |
          | HOMO-LUMO GAP               0.292461281441 eV   |
           -------------------------------------------------

 * finished run on 2024/06/05 at 19:59:11.812
