   * xtb version 6.6.1 (8d0f1dd) compiled by 'conda@1efc2f54142f' on 2023-08-01
          program call               : xtb struc.xyz --opt loose --input .xc1 --gfn2

   ID    Z sym.   atoms
    1    6 C      1, 3, 5-7, 10, 11, 14
    2    7 N      2, 4, 9, 13
    3    8 O      8, 12
    4    1 H      15-25
constraining bond 13 25 to    5.0600000 Å, actual value:    2.8316178 Å

          :  Hamiltonian                  GFN2-xTB          :
 * total energy  :   -33.3814649 Eh     change       -0.6650680E-10 Eh
 * total energy  :   -37.0500492 Eh     change       -0.3668584E+01 Eh
 * total energy  :   -39.5987266 Eh     change       -0.2548677E+01 Eh
 * total energy  :   -41.0552173 Eh     change       -0.1456491E+01 Eh
 * total energy  :   -41.6983170 Eh     change       -0.6430997E+00 Eh
 * total energy  :   -41.8432519 Eh     change       -0.1449349E+00 Eh
 * total energy  :   -41.8708369 Eh     change       -0.2758499E-01 Eh
 * total energy  :   -41.9166471 Eh     change       -0.4581018E-01 Eh
 * total energy  :   -41.9664753 Eh     change       -0.4982823E-01 Eh
 * total energy  :   -42.0016751 Eh     change       -0.3519980E-01 Eh
 * total energy  :   -42.1315502 Eh     change       -0.6017936E-04 Eh
 * total energy  :   -42.1316043 Eh     change       -0.5412821E-04 Eh
 * total energy  :   -42.1316666 Eh     change       -0.6227403E-04 Eh
 * total energy  :   -42.1317573 Eh     change       -0.9069784E-04 Eh
 * total energy  :   -42.1318137 Eh     change       -0.5644971E-04 Eh
 * total energy  :   -42.1318835 Eh     change       -0.6976069E-04 Eh
 * total energy  :   -42.1319306 Eh     change       -0.4716912E-04 Eh
 * total energy  :   -42.1319964 Eh     change       -0.6575813E-04 Eh
 * total energy  :   -42.1320335 Eh     change       -0.3712116E-04 Eh
   *** GEOMETRY OPTIMIZATION CONVERGED AFTER 34 ITERATIONS ***

 final structure:
================
25
 xtb: 6.6.1 (8d0f1dd)
C            3.18447209729273        1.20122812673138        0.01955375879604
N            2.20081136512756        0.15638266987421        0.00641692028974
C            2.42332624395505       -1.17939298974328        0.00692165691355
N            1.31720978672842       -1.88647441807107        0.00448055310015
C            0.31126395782282       -0.98603326356095        0.00317877058752
C            0.84851881015037        0.31251146309280        0.00469884396908
C            0.01125091071721        1.48695569320933       -0.00369904815238
O            0.39920536238406        2.63359719748090       -0.01125473488725
N           -1.34248249955505        1.15026930482239       -0.00403921593469
C           -2.30128090317556        2.24114503146201       -0.00788297343448
C           -1.89598058701063       -0.12597266394534       -0.00076127615335
O           -3.08732583954813       -0.29115040367800        0.00006085936196
N           -1.01450218641573       -1.21354387641866        0.00086784187019
C           -1.54147202429944       -2.55577792735060       -0.00050656623050
H            3.73697365821204        1.18843111932965        0.96153080339772
H            3.89211304595724        1.06264433113002       -0.79910408478208
H            2.68441276645788        2.16384767110263       -0.08715547345522
H            3.40623723931562       -1.60931650476046        0.00858823472680
H           -1.74983084748459        3.17984682879922       -0.00332100466175
H           -2.93543018031471        2.17939492440009       -0.89394894100957
H           -2.94561881202432        2.17580156180421        0.87044811106874
H           -1.17713664280034       -3.09619919556557        0.87420990866287
H           -1.20573781286844       -3.08407906359022       -0.89423015530726
H           -2.62851369533944       -2.50023901043337        0.01621751639388
H            2.56994830081662       -4.78563806452336       -0.04009868722968

          :  Hamiltonian                  GFN2-xTB          :
         :: total energy             -42.132033529592 Eh    ::
         :: gradient norm              0.002530192187 Eh/a0 ::
         :: HOMO-LUMO gap              0.693259163925 eV    ::
         :: SCC energy               -42.643484936128 Eh    ::
         :: -> dispersion             -0.022373636919 Eh    ::
         :: repulsion energy           0.511359158679 Eh    ::

    * Orbital Energies and Occupations

         #    Occupation            Energy/Eh            Energy/eV
      -------------------------------------------------------------
         1        2.0000           -0.8920225             -24.2732
       ...           ...                  ...                  ...
        25        1.9996           -0.6665788             -18.1385
        26        1.9991           -0.6562218             -17.8567
        27        1.9983           -0.6451059             -17.5542
        28        1.9976           -0.6400311             -17.4161
        29        1.9944           -0.6265243             -17.0486
        30        1.9891           -0.6159001             -16.7595
        31        1.9869           -0.6130922             -16.6831
        32        1.9779           -0.6046844             -16.4543
        33        1.9646           -0.5971341             -16.2488
        34        1.9152           -0.5828791             -15.8609
        35        1.8841           -0.5776839             -15.7196
        36        1.8750           -0.5764060             -15.6848
        37        1.5706           -0.5540625             -15.0768 (HOMO)
        38        0.8452           -0.5285857             -14.3835 (LUMO)
        39        0.0030           -0.4305160             -11.7149
        40        0.0002           -0.3888532             -10.5812
        41        0.0001           -0.3728335             -10.1453
        42        0.0000           -0.2943040              -8.0084
        43                         -0.2054437              -5.5904
        44                         -0.1574026              -4.2831
        45                         -0.1366710              -3.7190
        46                         -0.0784388              -2.1344
        47                         -0.0579869              -1.5779
        48                         -0.0381524              -1.0382
       ...                                ...                  ...
        67                          0.5357924              14.5797
      -------------------------------------------------------------
                  HL-Gap            0.0254768 Eh            0.6933 eV

     #   Z          covCN         q      C6AA      α(0)
     1   6 C        3.689    -0.082    22.270     6.754
     2   7 N        2.829     0.051    20.344     6.699
     3   6 C        3.187     0.097    25.412     8.225
     4   7 N        1.898    -0.208    26.350     7.610
     5   6 C        3.167     0.134    24.758     8.131
     6   6 C        3.120    -0.007    28.016     8.669
     7   6 C        2.764     0.274    22.374     7.746
     8   8 O        0.858    -0.332    20.360     6.050
     9   7 N        2.746    -0.069    22.578     7.057
    10   6 C        3.708    -0.062    21.845     6.681
    11   6 C        2.727     0.317    21.614     7.611
    12   8 O        0.860    -0.330    20.323     6.044
    13   7 N        2.739    -0.018    21.592     6.901
    14   6 C        3.700    -0.073    22.057     6.716
    15   1 H        0.924     0.109     1.706     2.042
    16   1 H        0.924     0.107     1.721     2.051
    17   1 H        0.925     0.126     1.565     1.956
    18   1 H        0.926     0.107     1.718     2.050
    19   1 H        0.925     0.123     1.591     1.973
    20   1 H        0.924     0.115     1.654     2.011
    21   1 H        0.924     0.115     1.653     2.011
    22   1 H        0.924     0.113     1.671     2.022
    23   1 H        0.924     0.113     1.671     2.022
    24   1 H        0.925     0.127     1.555     1.950
    25   1 H        0.000     0.151     3.450     3.396

Wiberg/Mayer (AO) data.
largest (>0.10) Wiberg bond orders for each atom

     #   Z sym  total        # sym  WBO       # sym  WBO       # sym  WBO
 ---------------------------------------------------------------------------
     1   6 C    3.904 --     2 N    0.995    17 H    0.960    16 H    0.955
                            15 H    0.949
     2   7 N    3.636 --     3 C    1.267     6 C    1.218     1 C    0.995
     3   6 C    3.869 --     4 N    1.489     2 N    1.267    18 H    0.955
     4   7 N    2.963 --     3 C    1.489     5 C    1.267
     5   6 C    3.900 --     4 N    1.267     6 C    1.253    13 N    1.209
     6   6 C    3.796 --     5 C    1.253     2 N    1.218     7 C    1.076
     7   6 C    3.946 --     8 O    1.672     9 N    1.101     6 C    1.076
     8   8 O    1.960 --     7 C    1.672     9 N    0.127
     9   7 N    3.501 --    11 C    1.105     7 C    1.101    10 C    0.979
                             8 O    0.127    12 O    0.117
    10   6 C    3.868 --     9 N    0.979    19 H    0.959    21 H    0.944
                            20 H    0.943
    11   6 C    3.951 --    12 O    1.686     9 N    1.105    13 N    1.068
    12   8 O    1.975 --    11 C    1.686     9 N    0.117    13 N    0.101
    13   7 N    3.483 --     5 C    1.209    11 C    1.068    14 C    0.984
                            12 O    0.101
    14   6 C    3.885 --    13 N    0.984    24 H    0.962    22 H    0.947
                            23 H    0.946
    15   1 H    0.975 --     1 C    0.949
    16   1 H    0.977 --     1 C    0.955
    17   1 H    0.978 --     1 C    0.960
    18   1 H    0.986 --     3 C    0.955
    19   1 H    0.978 --    10 C    0.959
    20   1 H    0.961 --    10 C    0.943
    21   1 H    0.961 --    10 C    0.944
    22   1 H    0.964 --    14 C    0.947
    23   1 H    0.963 --    14 C    0.946
    24   1 H    0.980 --    14 C    0.962
    25   1 H    0.004
 ---------------------------------------------------------------------------

molecular dipole:
                 x           y           z       tot (Debye)
 q only:        1.744      -1.652       0.003
   full:        2.015      -1.528       0.007       6.428

           -------------------------------------------------
          | TOTAL ENERGY              -42.132033529592 Eh   |
          | GRADIENT NORM               0.002530192187 Eh/α |
          | HOMO-LUMO GAP               0.693259163925 eV   |
           -------------------------------------------------

 * finished run on 2024/06/05 at 19:58:01.122
