   * xtb version 6.6.1 (8d0f1dd) compiled by 'conda@1efc2f54142f' on 2023-08-01
          program call               : xtb struc.xyz --opt loose --input .xc1 --gfn2

   ID    Z sym.   atoms
    1    6 C      1, 3, 5-7, 10, 11, 14
    2    7 N      2, 4, 9, 13
    3    8 O      8, 12
    4    1 H      15-25
constraining bond 11 21 to    3.7133300 Å, actual value:    2.6553777 Å

          :  Hamiltonian                  GFN2-xTB          :
 * total energy  :   -44.2585305 Eh     change       -0.2401990E-09 Eh
 * total energy  :   -47.9056924 Eh     change       -0.3647162E+01 Eh
 * total energy  :   -53.3890595 Eh     change       -0.5483367E+01 Eh
 * total energy  :   -59.4600738 Eh     change       -0.6071014E+01 Eh
 * total energy  :   -58.2449168 Eh     change        0.1215157E+01 Eh
 * total energy  :   -59.5592115 Eh     change       -0.1314295E+01 Eh
 * total energy  :   -59.5801665 Eh     change       -0.2095501E-01 Eh
 * total energy  :   -59.6296245 Eh     change       -0.4945797E-01 Eh
 * total energy  :   -59.6537795 Eh     change       -0.2415507E-01 Eh
 * total energy  :   -59.6741009 Eh     change       -0.2032138E-01 Eh
 * total energy  :   -59.7574976 Eh     change       -0.8582882E-04 Eh
 * total energy  :   -59.7575779 Eh     change       -0.8028986E-04 Eh
 * total energy  :   -59.7576260 Eh     change       -0.4812892E-04 Eh
 * total energy  :   -59.7576985 Eh     change       -0.7252408E-04 Eh
 * total energy  :   -59.7577506 Eh     change       -0.5208858E-04 Eh
 * total energy  :   -59.7578007 Eh     change       -0.5004859E-04 Eh
 * total energy  :   -59.7578354 Eh     change       -0.3470810E-04 Eh
 * total energy  :   -59.7578578 Eh     change       -0.2242496E-04 Eh
 * total energy  :   -59.7578779 Eh     change       -0.2010989E-04 Eh
   *** GEOMETRY OPTIMIZATION CONVERGED AFTER 58 ITERATIONS ***

 final structure:
================
25
 xtb: 6.6.1 (8d0f1dd)
C            3.22564358571688        1.14101171688565        0.08926374041366
N            2.22568100545634        0.10939660904022        0.07132140205845
C            2.45852516103588       -1.19922797474251        0.02954675873837
N            1.28542252272023       -1.86974132851309        0.05908231778133
C            0.25875864012897       -0.96160538690667        0.12792080732944
C            0.86118204853814        0.31202108409559        0.12531920669766
C            0.17854677249581        1.57125786252433       -0.08008016644572
O            0.71306156627909        2.65112636331801       -0.26660500575554
N           -1.21100908292286        1.38879121502604       -0.09723382151909
C           -2.05571283340498        2.23725666414825       -0.55235187639203
C           -1.97026307145410       -0.11552414258031        0.83845223986914
O           -3.12974517269160       -0.21866929007834        0.44382918373479
N           -1.04044433672050       -1.22601474971315        0.18483804717276
C           -1.63107109137850       -2.48482491610460       -0.16732730950369
H            3.56031200318639        1.32564228830580        1.11295500725286
H            4.08135923286640        0.84372250894185       -0.51497848628868
H            2.79414057428291        2.06460824390214       -0.29978004185515
H            3.42540352184428       -1.65846466055475       -0.02427234905741
H           -1.74939430401254        3.17704616851488       -0.99477545836755
H           -3.10267122664701        1.97145955365394       -0.49458179634800
H           -1.78735939332916        0.02567045021406        1.19411565499445
H           -1.49074689141243       -3.23201700148676        0.61894106524219
H           -1.22661513241195       -2.85726854206780       -1.10872244896307
H           -2.70146764746233       -2.30352366492729       -0.28702153842078
H            1.18889506339616       -2.87389052929610        0.02331648553175

          :  Hamiltonian                  GFN2-xTB          :
         :: total energy             -59.757877898554 Eh    ::
         :: gradient norm              0.001790507730 Eh/a0 ::
         :: HOMO-LUMO gap              2.087711936405 eV    ::
         :: SCC energy               -42.706715758433 Eh    ::
         :: -> dispersion             -0.022985022689 Eh    ::
         :: repulsion energy           2.266063606487 Eh    ::

    * Orbital Energies and Occupations

         #    Occupation            Energy/Eh            Energy/eV
      -------------------------------------------------------------
         1        2.0000           -0.9033344             -24.5810
       ...           ...                  ...                  ...
        25        1.9990           -0.6707378             -18.2517
        26        1.9986           -0.6630376             -18.0422
        27        1.9984           -0.6597908             -17.9538
        28        1.9954           -0.6344605             -17.2645
        29        1.9945           -0.6300632             -17.1449
        30        1.9938           -0.6270981             -17.0642
        31        1.9916           -0.6199293             -16.8691
        32        1.9891           -0.6138271             -16.7031
        33        1.9875           -0.6104771             -16.6119
        34        1.9493           -0.5767826             -15.6951
        35        1.9243           -0.5669295             -15.4269
        36        1.8744           -0.5542877             -15.0829
        37        1.7464           -0.5359126             -14.5829 (HOMO)
        38        0.4280           -0.4591906             -12.4952 (LUMO)
        39        0.0824           -0.4153365             -11.3019
        40        0.0428           -0.3992754             -10.8648
        41        0.0066           -0.3545717              -9.6484
        42        0.0009           -0.3058968              -8.3239
        43        0.0001           -0.2417384              -6.5780
        44        0.0000           -0.1879362              -5.1140
        45        0.0000           -0.1468943              -3.9972
        46        0.0000           -0.0979241              -2.6646
        47                         -0.0806282              -2.1940
        48                         -0.0377861              -1.0282
       ...                                ...                  ...
        67                         10.5939737             288.2767
      -------------------------------------------------------------
                  HL-Gap            0.0767220 Eh            2.0877 eV

     #   Z          covCN         q      C6AA      α(0)
     1   6 C        3.692    -0.093    22.462     6.782
     2   7 N        2.825     0.077    19.904     6.626
     3   6 C        3.019     0.050    26.856     8.501
     4   7 N        2.788    -0.067    22.528     7.049
     5   6 C        2.990     0.118    25.387     8.265
     6   6 C        3.090    -0.021    28.432     8.740
     7   6 C        2.768     0.269    22.457     7.761
     8   8 O        0.857    -0.349    20.693     6.099
     9   7 N        2.327    -0.129    24.018     7.276
    10   6 C        2.783     0.034    27.213     8.545
    11   6 C        3.172     0.200    23.424     7.906
    12   8 O        0.862    -0.344    20.589     6.084
    13   7 N        2.711    -0.097    23.149     7.146
    14   6 C        3.691    -0.065    21.939     6.703
    15   1 H        0.924     0.111     1.688     2.032
    16   1 H        0.925     0.103     1.758     2.074
    17   1 H        0.924     0.139     1.466     1.894
    18   1 H        0.926     0.120     1.610     1.984
    19   1 H        0.925     0.125     1.577     1.964
    20   1 H        0.925     0.135     1.495     1.912
    21   1 H        0.937     0.165     1.293     1.778
    22   1 H        0.924     0.084     1.935     2.176
    23   1 H        0.925     0.082     1.957     2.187
    24   1 H        0.924     0.125     1.571     1.960
    25   1 H        0.860     0.226     0.984     1.554

Wiberg/Mayer (AO) data.
largest (>0.10) Wiberg bond orders for each atom

     #   Z sym  total        # sym  WBO       # sym  WBO       # sym  WBO
 ---------------------------------------------------------------------------
     1   6 C    3.902 --     2 N    0.991    16 H    0.966    15 H    0.948
                            17 H    0.948
     2   7 N    3.640 --     3 C    1.366     6 C    1.151     1 C    0.991
     3   6 C    3.779 --     2 N    1.366     4 N    1.266    18 H    0.953
     4   7 N    3.554 --     3 C    1.266     5 C    1.165    25 H    0.921
     5   6 C    3.892 --    13 N    1.292     6 C    1.272     4 N    1.165
     6   6 C    3.808 --     5 C    1.272     2 N    1.151     7 C    1.092
     7   6 C    3.836 --     8 O    1.637     6 C    1.092     9 N    1.039
     8   8 O    1.875 --     7 C    1.637
     9   7 N    3.324 --    10 C    1.684     7 C    1.039    11 C    0.367
                            12 O    0.120
    10   6 C    3.624 --     9 N    1.684    20 H    0.940    19 H    0.933
    11   6 C    3.892 --    12 O    1.710    21 H    0.950    13 N    0.785
                             9 N    0.367
    12   8 O    2.004 --    11 C    1.710     9 N    0.120    13 N    0.107
    13   7 N    3.348 --     5 C    1.292    14 C    1.003    11 C    0.785
                            12 O    0.107
    14   6 C    3.912 --    13 N    1.003    23 H    0.961    24 H    0.952
                            22 H    0.951
    15   1 H    0.977 --     1 C    0.948
    16   1 H    0.984 --     1 C    0.966
    17   1 H    0.975 --     1 C    0.948
    18   1 H    0.984 --     3 C    0.953
    19   1 H    0.962 --    10 C    0.933
    20   1 H    0.968 --    10 C    0.940
    21   1 H    0.961 --    11 C    0.950
    22   1 H    0.968 --    14 C    0.951
    23   1 H    0.978 --    14 C    0.961
    24   1 H    0.975 --    14 C    0.952
    25   1 H    0.948 --     4 N    0.921
 ---------------------------------------------------------------------------

molecular dipole:
                 x           y           z       tot (Debye)
 q only:        2.047      -1.667       0.081
   full:        2.303      -1.960       0.073       7.688

           -------------------------------------------------
          | TOTAL ENERGY              -59.757877898554 Eh   |
          | GRADIENT NORM               0.001790507730 Eh/α |
          | HOMO-LUMO GAP               2.087711936405 eV   |
           -------------------------------------------------

 * finished run on 2024/06/05 at 19:59:00.460
