   * xtb version 6.6.1 (8d0f1dd) compiled by 'conda@1efc2f54142f' on 2023-08-01
          program call               : xtb xtbopt.xyz --opt crude --input .xc2 --gfn2

   ID    Z sym.   atoms
    1    6 C      1, 3, 5-7, 10, 11, 14
    2    7 N      2, 4, 9, 13
    3    8 O      8, 12
    4    1 H      15-25
########################################################################
[WARNING] Please study the warnings concerning your input carefully
-1- readin_getIntValue: could not parse ''
########################################################################

          :  Hamiltonian                  GFN2-xTB          :
 * total energy  :   -40.4404967 Eh     change       -0.1918465E-12 Eh
 * total energy  :   -42.1239504 Eh     change       -0.1683454E+01 Eh
 * total energy  :   -42.1606601 Eh     change       -0.3670973E-01 Eh
 * total energy  :   -42.1695316 Eh     change       -0.8871513E-02 Eh
 * total energy  :   -42.1719436 Eh     change       -0.2411959E-02 Eh
 * total energy  :   -42.1725084 Eh     change       -0.5647506E-03 Eh
 * total energy  :   -42.1737247 Eh     change       -0.1216387E-02 Eh
 * total energy  :   -42.1747562 Eh     change       -0.1031444E-02 Eh
 * total energy  :   -42.1757265 Eh     change       -0.9702647E-03 Eh
 * total energy  :   -42.1763307 Eh     change       -0.6042511E-03 Eh
 * total energy  :   -42.1766425 Eh     change       -0.3118464E-03 Eh
 * total energy  :   -42.1769540 Eh     change       -0.3114218E-03 Eh
 * total energy  :   -42.1773536 Eh     change       -0.3996199E-03 Eh
 * total energy  :   -42.1778078 Eh     change       -0.4542177E-03 Eh
 * total energy  :   -42.1782840 Eh     change       -0.4762124E-03 Eh
 * total energy  :   -42.1785790 Eh     change       -0.2950197E-03 Eh
   *** GEOMETRY OPTIMIZATION CONVERGED AFTER 16 ITERATIONS ***

 final structure:
================
25
 xtb: 6.6.1 (8d0f1dd)
C            3.21349887860413        1.15131837862201        0.15687648254248
N            2.23912311440507        0.10010483326797        0.07299873276499
C            2.47664929320728       -1.20774493854053        0.00335416068060
N            1.30315926185878       -1.88731628669663       -0.02355607070822
C            0.28080000784971       -0.98367784209303        0.03888014685126
C            0.87199010513039        0.29017614955331        0.09560897281345
C            0.13575914309398        1.50945655571185       -0.10224953553720
O            0.58291283376026        2.61944504285408       -0.30418714318218
N           -1.27050350113439        1.25182548308612       -0.12988315774374
C           -2.10736242563949        2.14220152797698       -0.58254081846500
C           -1.85962808539527       -0.01152667466693        0.58218066468072
O           -3.08581103799791       -0.14544325891228        0.42481690611993
N           -1.02996482507217       -1.18131934800102        0.06140089940552
C           -1.68448604329170       -2.44303650427227       -0.15842320186099
H            3.47532333534749        1.34317294684192        1.20051048031707
H            4.11435574783781        0.87501179803718       -0.38784322661814
H            2.78779634105972        2.06454737486060       -0.26059511247104
H            3.44698775988822       -1.66066733055888       -0.03157611562902
H           -1.71184756489357        3.06934031363428       -0.96040382958115
H           -3.16082248267231        1.91957329591837       -0.55460260042564
H           -1.46682990557345        0.14744326250797        1.62063131455443
H           -1.50405510088315       -3.14187860753267        0.66396864201836
H           -1.35350288100144       -2.88011857351792       -1.10084805451800
H           -2.75530459856394       -2.23119945061630       -0.20869187357539
H            1.22219414417549       -2.89144960586473       -0.08465504453296

          :  Hamiltonian                  GFN2-xTB          :
         :: total energy             -42.178579041403 Eh    ::
         :: gradient norm              0.009464564626 Eh/a0 ::
         :: HOMO-LUMO gap              1.868539524727 eV    ::
         :: SCC energy               -42.686845885598 Eh    ::
         :: -> dispersion             -0.022968268001 Eh    ::
         :: repulsion energy           0.508114861977 Eh    ::

    * Orbital Energies and Occupations

         #    Occupation            Energy/Eh            Energy/eV
      -------------------------------------------------------------
         1        2.0000           -0.9078420             -24.7036
       ...           ...                  ...                  ...
        25        1.9991           -0.6735022             -18.3269
        26        1.9986           -0.6639417             -18.0668
        27        1.9980           -0.6545704             -17.8118
        28        1.9959           -0.6381907             -17.3661
        29        1.9955           -0.6354772             -17.2922
        30        1.9921           -0.6224427             -16.9375
        31        1.9909           -0.6189512             -16.8425
        32        1.9896           -0.6157610             -16.7557
        33        1.9882           -0.6128185             -16.6756
        34        1.9500           -0.5779869             -15.7278
        35        1.8862           -0.5576632             -15.1748
        36        1.8433           -0.5495173             -14.9531
        37        1.7164           -0.5337341             -14.5236 (HOMO)
        38        0.5030           -0.4650665             -12.6551 (LUMO)
        39        0.1139           -0.4242940             -11.5456
        40        0.0409           -0.3990542             -10.8588
        41        0.0012           -0.3154242              -8.5831
        42        0.0000           -0.2307470              -6.2789
        43        0.0000           -0.2038915              -5.5482
        44        0.0000           -0.1797614              -4.8916
        45        0.0000           -0.1515710              -4.1245
        46        0.0000           -0.0964734              -2.6252
        47                         -0.0847568              -2.3064
        48                         -0.0439558              -1.1961
       ...                                ...                  ...
        67                          0.5139522              13.9854
      -------------------------------------------------------------
                  HL-Gap            0.0686676 Eh            1.8685 eV

     #   Z          covCN         q      C6AA      α(0)
     1   6 C        3.691    -0.092    22.450     6.780
     2   7 N        2.822     0.077    19.900     6.625
     3   6 C        3.030     0.048    26.897     8.507
     4   7 N        2.784    -0.064    22.482     7.042
     5   6 C        3.009     0.116    25.425     8.271
     6   6 C        3.096    -0.028    28.575     8.761
     7   6 C        2.770     0.256    22.697     7.803
     8   8 O        0.857    -0.343    20.584     6.083
     9   7 N        2.725    -0.042    22.045     6.973
    10   6 C        2.791     0.013    27.714     8.624
    11   6 C        3.592     0.262    17.114     5.992
    12   8 O        0.856    -0.412    21.919     6.277
    13   7 N        2.727    -0.077    22.739     7.082
    14   6 C        3.690    -0.066    21.961     6.707
    15   1 H        0.924     0.112     1.680     2.027
    16   1 H        0.925     0.105     1.741     2.063
    17   1 H        0.924     0.135     1.494     1.912
    18   1 H        0.926     0.123     1.592     1.973
    19   1 H        0.926     0.140     1.465     1.892
    20   1 H        0.926     0.150     1.392     1.845
    21   1 H        0.919     0.054     2.268     2.356
    22   1 H        0.924     0.087     1.912     2.163
    23   1 H        0.924     0.087     1.912     2.162
    24   1 H        0.924     0.133     1.514     1.925
    25   1 H        0.860     0.228     0.975     1.547

Wiberg/Mayer (AO) data.
largest (>0.10) Wiberg bond orders for each atom

     #   Z sym  total        # sym  WBO       # sym  WBO       # sym  WBO
 ---------------------------------------------------------------------------
     1   6 C    3.907 --     2 N    0.991    16 H    0.967    17 H    0.953
                            15 H    0.948
     2   7 N    3.632 --     3 C    1.365     6 C    1.146     1 C    0.991
     3   6 C    3.767 --     2 N    1.365     4 N    1.253    18 H    0.953
     4   7 N    3.553 --     3 C    1.253     5 C    1.176    25 H    0.920
     5   6 C    3.900 --    13 N    1.294     6 C    1.265     4 N    1.176
     6   6 C    3.821 --     5 C    1.265     2 N    1.146     7 C    1.112
     7   6 C    3.840 --     8 O    1.656     6 C    1.112     9 N    0.992
     8   8 O    1.903 --     7 C    1.656
     9   7 N    3.512 --    10 C    1.546     7 C    0.992    11 C    0.770
    10   6 C    3.521 --     9 N    1.546    19 H    0.947    20 H    0.945
    11   6 C    3.933 --    12 O    1.396    21 H    0.868    13 N    0.824
                             9 N    0.770
    12   8 O    1.615 --    11 C    1.396
    13   7 N    3.368 --     5 C    1.294    14 C    0.996    11 C    0.824
    14   6 C    3.903 --    13 N    0.996    23 H    0.960    22 H    0.953
                            24 H    0.952
    15   1 H    0.977 --     1 C    0.948
    16   1 H    0.984 --     1 C    0.967
    17   1 H    0.976 --     1 C    0.953
    18   1 H    0.983 --     3 C    0.953
    19   1 H    0.973 --    10 C    0.947
    20   1 H    0.972 --    10 C    0.945
    21   1 H    0.915 --    11 C    0.868
    22   1 H    0.970 --    14 C    0.953
    23   1 H    0.976 --    14 C    0.960
    24   1 H    0.975 --    14 C    0.952
    25   1 H    0.947 --     4 N    0.920
 ---------------------------------------------------------------------------

molecular dipole:
                 x           y           z       tot (Debye)
 q only:        2.360      -1.550      -0.199
   full:        2.650      -1.921      -0.101       8.322

           -------------------------------------------------
          | TOTAL ENERGY              -42.178579041403 Eh   |
          | GRADIENT NORM               0.009464564626 Eh/α |
          | HOMO-LUMO GAP               1.868539524727 eV   |
           -------------------------------------------------

 * finished run on 2024/06/05 at 19:59:01.029
