   * xtb version 6.6.1 (8d0f1dd) compiled by 'conda@1efc2f54142f' on 2023-08-01
          program call               : xtb struc.xyz --opt loose --input .xc1 --gfn2

   ID    Z sym.   atoms
    1    6 C      1, 3, 5-7, 10, 11, 14
    2    7 N      2, 4, 9, 13
    3    8 O      8, 12
    4    1 H      15-25
constraining bond 10 13 to    5.9200000 Å, actual value:    3.6911810 Å

          :  Hamiltonian                  GFN2-xTB          :
 * total energy  :    -6.7683780 Eh     change       -0.6650680E-10 Eh
 * total energy  :   -24.8182888 Eh     change       -0.1804991E+02 Eh
 * total energy  :   -35.0393921 Eh     change       -0.1022110E+02 Eh
 * total energy  :   -40.1680189 Eh     change       -0.5128627E+01 Eh
 * total energy  :   -41.6455675 Eh     change       -0.1477549E+01 Eh
 * total energy  :   -41.7461434 Eh     change       -0.1005759E+00 Eh
 * total energy  :   -41.7647344 Eh     change       -0.1859101E-01 Eh
 * total energy  :   -41.8319087 Eh     change       -0.6717425E-01 Eh
 * total energy  :   -41.8687826 Eh     change       -0.3687391E-01 Eh
 * total energy  :   -41.9049789 Eh     change       -0.3619633E-01 Eh
 * total energy  :   -42.1339438 Eh     change       -0.2653595E-03 Eh
 * total energy  :   -42.1340866 Eh     change       -0.1428394E-03 Eh
 * total energy  :   -42.1341513 Eh     change       -0.6468837E-04 Eh
 * total energy  :   -42.1342303 Eh     change       -0.7898297E-04 Eh
 * total energy  :   -42.1343137 Eh     change       -0.8338617E-04 Eh
 * total energy  :   -42.1343954 Eh     change       -0.8174077E-04 Eh
 * total energy  :   -42.1344538 Eh     change       -0.5844937E-04 Eh
 * total energy  :   -42.1345144 Eh     change       -0.6052604E-04 Eh
 * total energy  :   -42.1345462 Eh     change       -0.3180715E-04 Eh
   *** GEOMETRY OPTIMIZATION CONVERGED AFTER 69 ITERATIONS ***

 final structure:
================
25
 xtb: 6.6.1 (8d0f1dd)
C            2.81204143356671        1.21788965036795       -0.04299235674535
N            2.24046746209518       -0.10260543205428       -0.05732852137482
C            2.97910236378162       -1.19939745747555       -0.12708541515332
N            2.19430448231315       -2.27261675239402       -0.12397906831871
C            0.86293979887009       -1.88416828227950       -0.05168238122275
C            0.90343605933399       -0.44094191038719       -0.01082474449902
C           -0.10398584415721        0.64591243094525        0.10477320795191
O            0.27662276503359        1.79964625956223        0.25913680379461
N           -1.39365652638087        0.27332215510528        0.04011856369101
C           -2.50822701163752        2.55759755722949        0.04248196865109
C           -2.52892524846830        1.00850772073420        0.11897838971507
O           -3.60450565762635        0.46900652199477        0.21766953237923
N           -0.03069681927654       -2.81681553786860       -0.02525585477343
C           -1.40843303713644       -2.62253477727452        0.02233329838727
H            2.56811069114311        1.72836735217443        0.88934676562985
H            3.89215783856132        1.14060209955312       -0.14690137664850
H            2.40691846916336        1.81882331850809       -0.85713075518837
H            4.05181249114868       -1.21694909653625       -0.17958131863285
H           -1.54880354389105        2.94678333626630        0.37120324490517
H           -2.68682721333468        2.82312836676988       -0.99775783997577
H           -3.32530716775076        2.92645837677401        0.65450114468421
H           -1.81930790498385       -3.12366210940499        0.90438878974400
H           -1.87207091208127       -3.08276877501765       -0.85642703082261
H           -1.67977289746982       -1.53489483564241        0.04899762165918
H            2.48303744328521       -3.24045163805837       -0.16581104993790

          :  Hamiltonian                  GFN2-xTB          :
         :: total energy             -42.134546181060 Eh    ::
         :: gradient norm              0.001822077376 Eh/a0 ::
         :: HOMO-LUMO gap              0.091939932548 eV    ::
         :: SCC energy               -42.650643101546 Eh    ::
         :: -> dispersion             -0.020980953893 Eh    ::
         :: repulsion energy           0.515985677066 Eh    ::

    * Orbital Energies and Occupations

         #    Occupation            Energy/Eh            Energy/eV
      -------------------------------------------------------------
         1        2.0000           -0.9079053             -24.7054
       ...           ...                  ...                  ...
        25        1.9998           -0.6620530             -18.0154
        26        1.9996           -0.6518588             -17.7380
        27        1.9994           -0.6446756             -17.5425
        28        1.9990           -0.6374638             -17.3463
        29        1.9967           -0.6181983             -16.8220
        30        1.9956           -0.6136429             -16.6981
        31        1.9937           -0.6078253             -16.5398
        32        1.9910           -0.6020566             -16.3828
        33        1.9490           -0.5743231             -15.6281
        34        1.9297           -0.5690806             -15.4855
        35        1.8996           -0.5631902             -15.3252
        36        1.7580           -0.5480295             -14.9126
        37        1.2897           -0.5260716             -14.3151 (HOMO)
        38        1.1892           -0.5226929             -14.2232 (LUMO)
        39        0.0090           -0.4312021             -11.7336
        40        0.0010           -0.3963978             -10.7865
        41        0.0001           -0.3535958              -9.6218
        42        0.0000           -0.2951671              -8.0319
        43                         -0.1893633              -5.1528
        44                         -0.1640337              -4.4636
        45                         -0.0954941              -2.5985
        46                         -0.0649258              -1.7667
        47                         -0.0586426              -1.5957
        48                         -0.0454898              -1.2378
       ...                                ...                  ...
        67                          0.5014964              13.6464
      -------------------------------------------------------------
                  HL-Gap            0.0033787 Eh            0.0919 eV

     #   Z          covCN         q      C6AA      α(0)
     1   6 C        3.696    -0.087    22.335     6.760
     2   7 N        2.832     0.089    19.705     6.593
     3   6 C        2.999     0.070    26.423     8.432
     4   7 N        2.799    -0.054    22.287     7.012
     5   6 C        2.976     0.141    24.931     8.190
     6   6 C        3.052    -0.008    28.179     8.706
     7   6 C        2.753     0.298    21.948     7.672
     8   8 O        0.859    -0.376    21.207     6.174
     9   7 N        1.832    -0.238    27.074     7.711
    10   6 C        3.749    -0.128    23.021     6.843
    11   6 C        2.746     0.318    21.592     7.609
    12   8 O        0.861    -0.280    19.420     5.908
    13   7 N        1.833    -0.149    25.011     7.411
    14   6 C        3.696    -0.052    21.691     6.662
    15   1 H        0.924     0.131     1.531     1.935
    16   1 H        0.925     0.098     1.806     2.101
    17   1 H        0.925     0.126     1.563     1.955
    18   1 H        0.926     0.126     1.563     1.955
    19   1 H        0.925     0.119     1.617     1.989
    20   1 H        0.925     0.112     1.680     2.027
    21   1 H        0.925     0.114     1.666     2.019
    22   1 H        0.924     0.129     1.543     1.943
    23   1 H        0.924     0.130     1.537     1.939
    24   1 H        0.920     0.133     1.516     1.926
    25   1 H        0.860     0.240     0.923     1.505

Wiberg/Mayer (AO) data.
largest (>0.10) Wiberg bond orders for each atom

     #   Z sym  total        # sym  WBO       # sym  WBO       # sym  WBO
 ---------------------------------------------------------------------------
     1   6 C    3.910 --     2 N    0.989    16 H    0.971    17 H    0.950
                            15 H    0.946
     2   7 N    3.703 --     3 C    1.376     6 C    1.193     1 C    0.989
     3   6 C    3.851 --     2 N    1.376     4 N    1.344    18 H    0.949
     4   7 N    3.557 --     3 C    1.344     5 C    1.111    25 H    0.914
     5   6 C    3.940 --    13 N    1.489     6 C    1.189     4 N    1.111
     6   6 C    3.656 --     2 N    1.193     5 C    1.189     7 C    1.029
     7   6 C    3.938 --     8 O    1.592     9 N    1.233     6 C    1.029
     8   8 O    1.894 --     7 C    1.592     9 N    0.127
     9   7 N    2.864 --     7 C    1.233    11 C    1.215     8 O    0.127
                            12 O    0.110
    10   6 C    3.758 --    21 H    0.957    19 H    0.944    20 H    0.938
                            11 C    0.876
    11   6 C    3.882 --    12 O    1.725     9 N    1.215    10 C    0.876
    12   8 O    1.957 --    11 C    1.725     9 N    0.110
    13   7 N    2.751 --     5 C    1.489    14 C    1.116
    14   6 C    3.799 --    13 N    1.116    22 H    0.909    23 H    0.905
                            24 H    0.818
    15   1 H    0.978 --     1 C    0.946
    16   1 H    0.987 --     1 C    0.971
    17   1 H    0.979 --     1 C    0.950
    18   1 H    0.983 --     3 C    0.949
    19   1 H    0.967 --    10 C    0.944
    20   1 H    0.977 --    10 C    0.938
    21   1 H    0.974 --    10 C    0.957
    22   1 H    0.935 --    14 C    0.909
    23   1 H    0.932 --    14 C    0.905
    24   1 H    0.923 --    14 C    0.818
    25   1 H    0.941 --     4 N    0.914
 ---------------------------------------------------------------------------

molecular dipole:
                 x           y           z       tot (Debye)
 q only:        2.876      -1.581      -0.307
   full:        3.127      -1.464      -0.339       8.817

           -------------------------------------------------
          | TOTAL ENERGY              -42.134546181060 Eh   |
          | GRADIENT NORM               0.001822077376 Eh/α |
          | HOMO-LUMO GAP               0.091939932548 eV   |
           -------------------------------------------------

 * finished run on 2024/06/05 at 20:00:17.907
