   * xtb version 6.6.1 (8d0f1dd) compiled by 'conda@1efc2f54142f' on 2023-08-01
          program call               : xtb xtbopt.xyz --opt crude --input .xc2 --gfn2

   ID    Z sym.   atoms
    1    6 C      1, 3, 5-7, 10, 11, 14
    2    7 N      2, 4, 9, 13
    3    8 O      8, 12
    4    1 H      15-25
########################################################################
[WARNING] Please study the warnings concerning your input carefully
-1- readin_getIntValue: could not parse ''
########################################################################

          :  Hamiltonian                  GFN2-xTB          :
 * total energy  :   -42.1345652 Eh     change       -0.2273737E-12 Eh
 * total energy  :   -42.1366508 Eh     change       -0.2085544E-02 Eh
 * total energy  :   -42.1381332 Eh     change       -0.1482475E-02 Eh
 * total energy  :   -42.1384830 Eh     change       -0.3497321E-03 Eh
   *** GEOMETRY OPTIMIZATION CONVERGED AFTER 4 ITERATIONS ***

 final structure:
================
25
 xtb: 6.6.1 (8d0f1dd)
C            2.86162715934554        1.23492822467850       -0.04355560080111
N            2.27855696924674       -0.07906563012198       -0.05858554588592
C            2.97884937307455       -1.20099130532342       -0.12734243712916
N            2.15506108151118       -2.24900939113496       -0.12557447560008
C            0.83665582365162       -1.80782877175027       -0.05475403702724
C            0.93752246754492       -0.38041801530974       -0.01344845145328
C           -0.07398119113388        0.67924971655435        0.09941930231742
O            0.27189017892395        1.84495002500350        0.24093364892155
N           -1.34066628771698        0.22638462201514        0.04875144563421
C           -2.48588054206235        2.41191091398505        0.04664861021405
C           -2.51123392768020        0.89238179769474        0.12769823916202
O           -3.56736227978205        0.31322737680888        0.21683162174505
N           -0.10983492945971       -2.67918625151477       -0.03028341858588
C           -1.48104488579372       -2.51683178688904        0.02393538253068
H            2.61413349951169        1.74706330808438        0.88750346394799
H            3.94126512028523        1.15268006473417       -0.14474513341249
H            2.45810162924306        1.83672500831284       -0.85872785759837
H            4.05059446322725       -1.25305074941404       -0.17832790479950
H           -1.54162384073042        2.81683071792433        0.40422007124116
H           -2.62702018026845        2.68576020988442       -0.99982424866866
H           -3.32341553417065        2.79797905825514        0.62586141051769
H           -1.87644968529407       -3.01913516356108        0.91318350179401
H           -1.94060390551216       -2.98278865379341       -0.85460176148915
H           -1.75539183317874       -1.42744893576217        0.05223781586341
H            2.41068277131899       -3.22607784776887       -0.16628202353921

          :  Hamiltonian                  GFN2-xTB          :
         :: total energy             -42.138482980656 Eh    ::
         :: gradient norm              0.007526633477 Eh/a0 ::
         :: HOMO-LUMO gap              0.244586603802 eV    ::
         :: SCC energy               -42.662798005688 Eh    ::
         :: -> dispersion             -0.021282338481 Eh    ::
         :: repulsion energy           0.524215722386 Eh    ::

    * Orbital Energies and Occupations

         #    Occupation            Energy/Eh            Energy/eV
      -------------------------------------------------------------
         1        2.0000           -0.9070175             -24.6812
       ...           ...                  ...                  ...
        25        1.9998           -0.6636247             -18.0581
        26        1.9997           -0.6547313             -17.8161
        27        1.9995           -0.6465620             -17.5938
        28        1.9993           -0.6398690             -17.4117
        29        1.9970           -0.6172410             -16.7960
        30        1.9963           -0.6139882             -16.7075
        31        1.9951           -0.6096491             -16.5894
        32        1.9916           -0.6010524             -16.3555
        33        1.9570           -0.5749097             -15.6441
        34        1.9425           -0.5701756             -15.5153
        35        1.8996           -0.5610033             -15.2657
        36        1.7800           -0.5475503             -14.8996
        37        1.3500           -0.5260213             -14.3138 (HOMO)
        38        1.0815           -0.5170329             -14.0692 (LUMO)
        39        0.0102           -0.4309765             -11.7275
        40        0.0011           -0.3951614             -10.7529
        41        0.0001           -0.3507251              -9.5437
        42        0.0000           -0.2916140              -7.9352
        43                         -0.1878318              -5.1112
        44                         -0.1583052              -4.3077
        45                         -0.0903514              -2.4586
        46                         -0.0535977              -1.4585
        47                         -0.0410316              -1.1165
        48                         -0.0223541              -0.6083
       ...                                ...                  ...
        67                          0.5175434              14.0831
      -------------------------------------------------------------
                  HL-Gap            0.0089884 Eh            0.2446 eV

     #   Z          covCN         q      C6AA      α(0)
     1   6 C        3.694    -0.087    22.343     6.762
     2   7 N        2.830     0.089    19.698     6.592
     3   6 C        3.006     0.069    26.437     8.434
     4   7 N        2.800    -0.057    22.342     7.020
     5   6 C        2.967     0.141    24.929     8.190
     6   6 C        3.077    -0.010    28.180     8.703
     7   6 C        2.755     0.297    21.961     7.674
     8   8 O        0.858    -0.377    21.230     6.178
     9   7 N        1.843    -0.242    27.180     7.726
    10   6 C        3.752    -0.132    23.104     6.854
    11   6 C        2.750     0.319    21.579     7.607
    12   8 O        0.860    -0.295    19.697     5.950
    13   7 N        1.831    -0.145    24.924     7.398
    14   6 C        3.688    -0.052    21.711     6.669
    15   1 H        0.924     0.129     1.543     1.942
    16   1 H        0.925     0.098     1.800     2.098
    17   1 H        0.924     0.126     1.568     1.958
    18   1 H        0.926     0.126     1.565     1.957
    19   1 H        0.925     0.123     1.590     1.972
    20   1 H        0.924     0.112     1.679     2.026
    21   1 H        0.925     0.112     1.679     2.026
    22   1 H        0.924     0.131     1.525     1.931
    23   1 H        0.924     0.132     1.521     1.929
    24   1 H        0.923     0.156     1.351     1.817
    25   1 H        0.860     0.238     0.932     1.512

Wiberg/Mayer (AO) data.
largest (>0.10) Wiberg bond orders for each atom

     #   Z sym  total        # sym  WBO       # sym  WBO       # sym  WBO
 ---------------------------------------------------------------------------
     1   6 C    3.912 --     2 N    0.989    16 H    0.972    17 H    0.951
                            15 H    0.948
     2   7 N    3.703 --     3 C    1.379     6 C    1.187     1 C    0.989
     3   6 C    3.851 --     2 N    1.379     4 N    1.337    18 H    0.949
     4   7 N    3.553 --     3 C    1.337     5 C    1.106    25 H    0.915
     5   6 C    3.942 --    13 N    1.490     6 C    1.193     4 N    1.106
     6   6 C    3.668 --     5 C    1.193     2 N    1.187     7 C    1.043
     7   6 C    3.939 --     8 O    1.594     9 N    1.217     6 C    1.043
     8   8 O    1.906 --     7 C    1.594     9 N    0.128
     9   7 N    2.911 --     7 C    1.217    11 C    1.211    24 H    0.130
                             8 O    0.128    12 O    0.118
    10   6 C    3.776 --    21 H    0.954    19 H    0.938    20 H    0.934
                            11 C    0.898
    11   6 C    3.892 --    12 O    1.715     9 N    1.211    10 C    0.898
    12   8 O    1.966 --    11 C    1.715     9 N    0.118
    13   7 N    2.790 --     5 C    1.490    14 C    1.133
    14   6 C    3.772 --    13 N    1.133    22 H    0.908    23 H    0.906
                            24 H    0.762
    15   1 H    0.979 --     1 C    0.948
    16   1 H    0.988 --     1 C    0.972
    17   1 H    0.980 --     1 C    0.951
    18   1 H    0.982 --     3 C    0.949
    19   1 H    0.967 --    10 C    0.938
    20   1 H    0.978 --    10 C    0.934
    21   1 H    0.972 --    10 C    0.954
    22   1 H    0.934 --    14 C    0.908
    23   1 H    0.932 --    14 C    0.906
    24   1 H    0.912 --    14 C    0.762     9 N    0.130
    25   1 H    0.942 --     4 N    0.915
 ---------------------------------------------------------------------------

molecular dipole:
                 x           y           z       tot (Debye)
 q only:        2.846      -1.669      -0.296
   full:        3.087      -1.583      -0.328       8.857

           -------------------------------------------------
          | TOTAL ENERGY              -42.138482980656 Eh   |
          | GRADIENT NORM               0.007526633477 Eh/α |
          | HOMO-LUMO GAP               0.244586603802 eV   |
           -------------------------------------------------

 * finished run on 2024/06/05 at 20:00:18.117
