   * xtb version 6.6.1 (8d0f1dd) compiled by 'conda@1efc2f54142f' on 2023-08-01
          program call               : xtb struc.xyz --opt loose --input .xc1 --gfn2

   ID    Z sym.   atoms
    1    6 C      1, 3, 5-7, 10, 11, 14
    2    7 N      2, 4, 9, 13
    3    8 O      8, 12
    4    1 H      15-25
constraining bond 6 17 to    5.1400000 Å, actual value:    2.5833586 Å

          :  Hamiltonian                  GFN2-xTB          :
 * total energy  :   -30.5890717 Eh     change       -0.2401990E-09 Eh
 * total energy  :   -34.9540821 Eh     change       -0.4365010E+01 Eh
 * total energy  :   -38.2476051 Eh     change       -0.3293523E+01 Eh
 * total energy  :   -40.3399657 Eh     change       -0.2092361E+01 Eh
 * total energy  :   -41.4078160 Eh     change       -0.1067850E+01 Eh
 * total energy  :   -41.7235087 Eh     change       -0.3156927E+00 Eh
 * total energy  :   -41.7851606 Eh     change       -0.6165186E-01 Eh
 * total energy  :   -41.8205484 Eh     change       -0.3538781E-01 Eh
 * total energy  :   -41.8837088 Eh     change       -0.6316042E-01 Eh
 * total energy  :   -41.9234570 Eh     change       -0.3974819E-01 Eh
 * total energy  :   -42.1402487 Eh     change       -0.1022840E-02 Eh
 * total energy  :   -42.1406209 Eh     change       -0.3721861E-03 Eh
 * total energy  :   -42.1409156 Eh     change       -0.2946947E-03 Eh
 * total energy  :   -42.1410782 Eh     change       -0.1625708E-03 Eh
 * total energy  :   -42.1412267 Eh     change       -0.1485480E-03 Eh
 * total energy  :   -42.1413141 Eh     change       -0.8736228E-04 Eh
 * total energy  :   -42.1413813 Eh     change       -0.6725336E-04 Eh
 * total energy  :   -42.1414148 Eh     change       -0.3344336E-04 Eh
 * total energy  :   -42.1414375 Eh     change       -0.2272207E-04 Eh
   *** GEOMETRY OPTIMIZATION CONVERGED AFTER 41 ITERATIONS ***

 final structure:
================
25
 xtb: 6.6.1 (8d0f1dd)
C            3.17360139447932        0.86371815962336        0.05488625589457
N            2.26847465474264       -0.10906874677548        0.02975369073463
C            2.48785746243447       -1.44585757278338        0.00887818369108
N            1.29569564771573       -2.11222034645384       -0.00863596577947
C            0.29733028151578       -1.19195591757796       -0.00055951855132
C            0.88595113523070        0.06631786141482        0.02436416323646
C            0.10478326872961        1.27400164563758        0.04114300703081
O            0.53637158267006        2.40669493936966        0.05872187837132
N           -1.26909114416810        0.99380012791971        0.03454868899181
C           -2.18178566273134        2.12377585567911        0.06867399504068
C           -1.87689227253703       -0.24787976454379        0.00914369023720
O           -3.07325772945883       -0.37447521564509        0.00474903770012
N           -1.03683993282931       -1.37776479299484       -0.01115008322655
C           -1.63232050976609       -2.69794756077042       -0.03732295887428
H            2.83333318459193        1.88347635361617        0.07028710384911
H            4.21690652439721        0.61102419418487        0.03789973283656
H            4.10978098104661        4.04352863344393       -0.43379402275710
H            3.44843988761719       -1.91543845548964        0.01297846113558
H           -1.58964949157286        3.03641112043678        0.10384240430947
H           -2.81621379834416        2.11938380790992       -0.81924546732490
H           -2.82575715407929        2.05508219289192        0.94588775543520
H           -1.32652248417228       -3.27251601325926        0.83802721518295
H           -1.35114426694938       -3.22656956001303       -0.94940760082337
H           -2.71486781957529       -2.57165292659553       -0.01985066120924
H            1.19624777511279       -3.11562947762575       -0.03264736723129

          :  Hamiltonian                  GFN2-xTB          :
         :: total energy             -42.141437481603 Eh    ::
         :: gradient norm              0.002074546579 Eh/a0 ::
         :: HOMO-LUMO gap              0.435465601034 eV    ::
         :: SCC energy               -42.660321172054 Eh    ::
         :: -> dispersion             -0.022696668381 Eh    ::
         :: repulsion energy           0.518795176071 Eh    ::

    * Orbital Energies and Occupations

         #    Occupation            Energy/Eh            Energy/eV
      -------------------------------------------------------------
         1        2.0000           -0.9061498             -24.6576
       ...           ...                  ...                  ...
        25        1.9990           -0.6716897             -18.2776
        26        1.9988           -0.6678654             -18.1735
        27        1.9984           -0.6612893             -17.9946
        28        1.9955           -0.6363992             -17.3173
        29        1.9947           -0.6327206             -17.2172
        30        1.9938           -0.6289375             -17.1143
        31        1.9906           -0.6189599             -16.8428
        32        1.9837           -0.6058675             -16.4865
        33        1.9618           -0.5852868             -15.9265
        34        1.9205           -0.5673976             -15.4397
        35        1.9179           -0.5666013             -15.4180
        36        1.8986           -0.5613546             -15.2752
        37        1.2802           -0.5054429             -13.7538 (HOMO)
        38        0.9511           -0.4894399             -13.3183 (LUMO)
        39        0.0661           -0.4115899             -11.1999
        40        0.0409           -0.3998971             -10.8818
        41        0.0113           -0.3688988             -10.0382
        42        0.0004           -0.2880861              -7.8392
        43        0.0000           -0.2082036              -5.6655
        44        0.0000           -0.1837422              -4.9999
        45        0.0000           -0.1444016              -3.9294
        46        0.0000           -0.1176247              -3.2007
        47                         -0.0791748              -2.1545
        48                         -0.0484513              -1.3184
       ...                                ...                  ...
        67                          0.5410554              14.7229
      -------------------------------------------------------------
                  HL-Gap            0.0160031 Eh            0.4355 eV

     #   Z          covCN         q      C6AA      α(0)
     1   6 C        2.789    -0.075    29.851     8.950
     2   7 N        2.805     0.126    19.095     6.490
     3   6 C        3.035     0.020    27.525     8.605
     4   7 N        2.775    -0.062    22.432     7.034
     5   6 C        3.020     0.114    25.459     8.277
     6   6 C        3.104    -0.033    28.684     8.776
     7   6 C        2.764     0.269    22.451     7.760
     8   8 O        0.858    -0.352    20.739     6.106
     9   7 N        2.746    -0.077    22.731     7.081
    10   6 C        3.709    -0.061    21.819     6.676
    11   6 C        2.728     0.315    21.641     7.616
    12   8 O        0.860    -0.346    20.635     6.090
    13   7 N        2.738    -0.049    22.191     6.996
    14   6 C        3.696    -0.072    22.063     6.719
    15   1 H        0.926     0.133     1.511     1.922
    16   1 H        0.926     0.106     1.728     2.055
    17   1 H        0.000     0.048     5.838     4.418
    18   1 H        0.927     0.119     1.621     1.991
    19   1 H        0.925     0.122     1.597     1.976
    20   1 H        0.924     0.109     1.704     2.041
    21   1 H        0.924     0.109     1.705     2.042
    22   1 H        0.924     0.089     1.890     2.150
    23   1 H        0.924     0.090     1.883     2.146
    24   1 H        0.925     0.131     1.530     1.934
    25   1 H        0.860     0.226     0.984     1.554

Wiberg/Mayer (AO) data.
largest (>0.10) Wiberg bond orders for each atom

     #   Z sym  total        # sym  WBO       # sym  WBO       # sym  WBO
 ---------------------------------------------------------------------------
     1   6 C    3.389 --     2 N    1.324    16 H    0.965    15 H    0.952
     2   7 N    3.742 --     1 C    1.324     3 C    1.237     6 C    1.088
     3   6 C    3.607 --     2 N    1.237     4 N    1.220    18 H    0.956
     4   7 N    3.512 --     3 C    1.220     5 C    1.201    25 H    0.921
     5   6 C    3.894 --     6 C    1.323    13 N    1.201     4 N    1.201
     6   6 C    3.807 --     5 C    1.323     7 C    1.101     2 N    1.088
     7   6 C    3.922 --     8 O    1.656     6 C    1.101     9 N    1.077
     8   8 O    1.955 --     7 C    1.656     9 N    0.123
     9   7 N    3.492 --    11 C    1.124     7 C    1.077    10 C    0.977
                            12 O    0.124     8 O    0.123
    10   6 C    3.875 --     9 N    0.977    19 H    0.957    21 H    0.950
                            20 H    0.949
    11   6 C    3.939 --    12 O    1.680     9 N    1.124    13 N    1.046
    12   8 O    1.997 --    11 C    1.680     9 N    0.124    13 N    0.112
    13   7 N    3.502 --     5 C    1.201    11 C    1.046    14 C    0.977
                            12 O    0.112
    14   6 C    3.909 --    13 N    0.977    22 H    0.964    23 H    0.964
                            24 H    0.959
    15   1 H    0.979 --     1 C    0.952
    16   1 H    0.985 --     1 C    0.965
    17   1 H    0.004
    18   1 H    0.984 --     3 C    0.956
    19   1 H    0.975 --    10 C    0.957
    20   1 H    0.967 --    10 C    0.949
    21   1 H    0.967 --    10 C    0.950
    22   1 H    0.981 --    14 C    0.964
    23   1 H    0.981 --    14 C    0.964
    24   1 H    0.979 --    14 C    0.959
    25   1 H    0.948 --     4 N    0.921
 ---------------------------------------------------------------------------

molecular dipole:
                 x           y           z       tot (Debye)
 q only:        1.956      -1.930      -0.024
   full:        2.191      -2.388      -0.035       8.239

           -------------------------------------------------
          | TOTAL ENERGY              -42.141437481603 Eh   |
          | GRADIENT NORM               0.002074546579 Eh/α |
          | HOMO-LUMO GAP               0.435465601034 eV   |
           -------------------------------------------------

 * finished run on 2024/06/05 at 19:58:49.057
