   * xtb version 6.6.1 (8d0f1dd) compiled by 'conda@1efc2f54142f' on 2023-08-01
          program call               : xtb xtbopt.xyz --opt crude --input .xc2 --gfn2

   ID    Z sym.   atoms
    1    6 C      1, 3, 5-7, 10, 11, 14
    2    7 N      2, 4, 9, 13
    3    8 O      8, 12
    4    1 H      15-25
########################################################################
[WARNING] Please study the warnings concerning your input carefully
-1- readin_getIntValue: could not parse ''
########################################################################

          :  Hamiltonian                  GFN2-xTB          :
 * total energy  :   -42.0622161 Eh     change       -0.3282707E-11 Eh
   *** GEOMETRY OPTIMIZATION CONVERGED AFTER 1 ITERATIONS ***

 final structure:
================
25
 xtb: 6.6.1 (8d0f1dd)
C            3.15106538335774        1.58960738477795        0.39970310192997
N            2.36577004182650        0.44403675179883        0.24023257014378
C            1.75275129937202       -3.17680301745590       -0.17697685772624
N            1.61896285802739       -1.93103629667376       -0.01189301660838
C            0.58134561956015       -0.98926296233389       -0.00632687780493
C            1.08310034841484        0.33720748397119        0.13357351893103
C            0.10431702632537        1.46716634829502        0.12545477457893
O            0.43349863537056        2.61660832865542        0.26899932965820
N           -1.20163928148529        1.08286949204411       -0.07997827542224
C           -2.21724567602133        2.13087072112385       -0.15967793527630
C           -1.68644293240107       -0.19974093280834       -0.17051044136511
O           -2.84854791004489       -0.45504844180709       -0.29361343869939
N           -0.72553361169540       -1.25424015679808       -0.11015831284174
C           -1.26169972862997       -2.59789567636657       -0.16478840862996
H            3.70714956100285        1.49275339829683        1.33809897244294
H            3.90286251637536        1.59897578813195       -0.39619833512154
H            2.58306929594665        2.52417504354816        0.39872913604410
H            0.98570149314647       -3.90962124459851       -0.36159311564008
H           -1.71345777343803        3.09122439672793       -0.23318424091116
H           -2.84220441452299        1.95818304783498       -1.03404531018766
H           -2.84574704695606        2.10849690074040        0.72994182694228
H           -0.89183972626780       -3.18717465920462        0.67414125475547
H           -1.00765485153925       -3.07355948466197       -1.11295240184462
H           -2.34817008849720       -2.52402115340448       -0.09929134374672
H            2.48102047687517       -1.32553251822994        0.13348544429836

          :  Hamiltonian                  GFN2-xTB          :
         :: total energy             -42.062216093766 Eh    ::
         :: gradient norm              0.002539552734 Eh/a0 ::
         :: HOMO-LUMO gap              0.176247145772 eV    ::
         :: SCC energy               -42.580163287162 Eh    ::
         :: -> dispersion             -0.022190624966 Eh    ::
         :: repulsion energy           0.517831821847 Eh    ::

    * Orbital Energies and Occupations

         #    Occupation            Energy/Eh            Energy/eV
      -------------------------------------------------------------
         1        2.0000           -0.8999402             -24.4886
       ...           ...                  ...                  ...
        25        2.0000           -0.6775904             -18.4382
        26        2.0000           -0.6748413             -18.3634
        27        2.0000           -0.6458283             -17.5739
        28        2.0000           -0.6440774             -17.5262
        29        2.0000           -0.6408274             -17.4378
        30        2.0000           -0.6358917             -17.3035
        31        2.0000           -0.6159286             -16.7603
        32        2.0000           -0.6086180             -16.5613
        33        1.9999           -0.6051355             -16.4666
        34        1.9998           -0.5965476             -16.2329
        35        1.9982           -0.5799532             -15.7813
        36        1.9580           -0.5547339             -15.0951
        37        1.2234           -0.5279227             -14.3655 (HOMO)
        38        0.8202           -0.5214457             -14.1893 (LUMO)
        39        0.0006           -0.4597246             -12.5097
        40        0.0000           -0.4041171             -10.9966
        41                         -0.3894713             -10.5981
        42                         -0.3035401              -8.2597
        43                         -0.2153119              -5.8589
        44                         -0.1689735              -4.5980
        45                         -0.1492955              -4.0625
        46                         -0.1167783              -3.1777
        47                         -0.0911198              -2.4795
        48                         -0.0360356              -0.9806
       ...                                ...                  ...
        67                          0.5519921              15.0205
      -------------------------------------------------------------
                  HL-Gap            0.0064770 Eh            0.1762 eV

     #   Z          covCN         q      C6AA      α(0)
     1   6 C        3.692    -0.053    21.714     6.668
     2   7 N        1.846    -0.151    25.053     7.418
     3   6 C        1.841    -0.050    32.501     9.210
     4   7 N        2.692     0.016    20.978     6.803
     5   6 C        2.855     0.093    25.933     8.347
     6   6 C        2.904     0.043    27.039     8.526
     7   6 C        2.765     0.272    22.413     7.753
     8   8 O        0.858    -0.323    20.201     6.026
     9   7 N        2.738    -0.072    22.646     7.068
    10   6 C        3.711    -0.064    21.861     6.682
    11   6 C        2.725     0.319    21.581     7.605
    12   8 O        0.859    -0.336    20.443     6.062
    13   7 N        2.736    -0.022    21.665     6.913
    14   6 C        3.699    -0.075    22.101     6.723
    15   1 H        0.924     0.124     1.581     1.967
    16   1 H        0.924     0.122     1.601     1.979
    17   1 H        0.924     0.115     1.657     2.013
    18   1 H        0.926     0.127     1.560     1.953
    19   1 H        0.925     0.113     1.669     2.020
    20   1 H        0.925     0.103     1.755     2.072
    21   1 H        0.925     0.100     1.782     2.088
    22   1 H        0.925     0.097     1.809     2.103
    23   1 H        0.924     0.101     1.777     2.085
    24   1 H        0.924     0.134     1.502     1.917
    25   1 H        0.856     0.267     0.822     1.420

Wiberg/Mayer (AO) data.
largest (>0.10) Wiberg bond orders for each atom

     #   Z sym  total        # sym  WBO       # sym  WBO       # sym  WBO
 ---------------------------------------------------------------------------
     1   6 C    3.904 --     2 N    1.097    17 H    0.927    16 H    0.910
                            15 H    0.904
     2   7 N    2.937 --     6 C    1.572     1 C    1.097
     3   6 C    2.788 --     4 N    1.705    18 H    0.917
     4   7 N    3.662 --     3 C    1.705     5 C    1.069    25 H    0.793
     5   6 C    3.702 --    13 N    1.294     6 C    1.181     4 N    1.069
     6   6 C    3.943 --     2 N    1.572     5 C    1.181     7 C    0.956
     7   6 C    3.924 --     8 O    1.729     9 N    1.140     6 C    0.956
     8   8 O    2.054 --     7 C    1.729     9 N    0.147
     9   7 N    3.577 --     7 C    1.140    11 C    1.132    10 C    0.957
                             8 O    0.147    12 O    0.134
    10   6 C    3.908 --    19 H    0.970    20 H    0.968    21 H    0.965
                             9 N    0.957
    11   6 C    3.939 --    12 O    1.725     9 N    1.132    13 N    0.996
    12   8 O    2.053 --    11 C    1.725     9 N    0.134
    13   7 N    3.507 --     5 C    1.294    11 C    0.996    14 C    0.980
    14   6 C    3.907 --    13 N    0.980    22 H    0.959    24 H    0.957
                            23 H    0.953
    15   1 H    0.949 --     1 C    0.904
    16   1 H    0.952 --     1 C    0.910
    17   1 H    0.950 --     1 C    0.927
    18   1 H    0.945 --     3 C    0.917
    19   1 H    0.987 --    10 C    0.970
    20   1 H    0.988 --    10 C    0.968
    21   1 H    0.988 --    10 C    0.965
    22   1 H    0.981 --    14 C    0.959
    23   1 H    0.978 --    14 C    0.953
    24   1 H    0.979 --    14 C    0.957
    25   1 H    0.915 --     4 N    0.793
 ---------------------------------------------------------------------------

molecular dipole:
                 x           y           z       tot (Debye)
 q only:        1.702      -1.562       0.022
   full:        1.545      -1.457       0.027       5.398

           -------------------------------------------------
          | TOTAL ENERGY              -42.062216093766 Eh   |
          | GRADIENT NORM               0.002539552734 Eh/α |
          | HOMO-LUMO GAP               0.176247145772 eV   |
           -------------------------------------------------

 * finished run on 2024/06/05 at 19:57:55.267
