   * xtb version 6.6.1 (8d0f1dd) compiled by 'conda@1efc2f54142f' on 2023-08-01
          program call               : xtb struc.xyz --opt loose --input .xc1 --gfn2

   ID    Z sym.   atoms
    1    7 N      1, 17
    2    6 C      2-6, 8, 9, 11-16, 18-23, 25, 26, 28-33
    3    8 O      7, 10, 24, 27
    4    1 H      34-72
constraining bond 1 65 to    4.6866700 Å, actual value:    3.9800742 Å

          :  Hamiltonian                  GFN2-xTB          :
 * total energy  :   -99.4932785 Eh     change       -0.4035485E-08 Eh
 * total energy  :   -99.6486325 Eh     change       -0.1553539E+00 Eh
 * total energy  :   -99.8300236 Eh     change       -0.1813911E+00 Eh
 * total energy  :  -100.0418605 Eh     change       -0.2118369E+00 Eh
 * total energy  :  -100.4317775 Eh     change       -0.3899170E+00 Eh
 * total energy  :  -100.8016853 Eh     change       -0.3699078E+00 Eh
 * total energy  :  -101.3226676 Eh     change       -0.5209824E+00 Eh
 * total energy  :  -100.6410826 Eh     change        0.6815851E+00 Eh
 * total energy  :  -101.5269723 Eh     change       -0.8858897E+00 Eh
 * total energy  :  -101.6097329 Eh     change       -0.8276068E-01 Eh
 * total energy  :  -101.9959953 Eh     change       -0.1573583E-03 Eh
 * total energy  :  -101.9960766 Eh     change       -0.8127123E-04 Eh
 * total energy  :  -101.9961740 Eh     change       -0.9738080E-04 Eh
 * total energy  :  -101.9962274 Eh     change       -0.5347077E-04 Eh
 * total energy  :  -101.9962844 Eh     change       -0.5695344E-04 Eh
 * total energy  :  -101.9963221 Eh     change       -0.3771785E-04 Eh
 * total energy  :  -101.9963801 Eh     change       -0.5799501E-04 Eh
 * total energy  :  -101.9964129 Eh     change       -0.3283362E-04 Eh
 * total energy  :  -101.9964481 Eh     change       -0.3520291E-04 Eh
   *** GEOMETRY OPTIMIZATION CONVERGED AFTER 62 ITERATIONS ***

 final structure:
================
72
 xtb: 6.6.1 (8d0f1dd)
N           -2.88368871916853        2.50098021821945        1.96845862815874
C           -2.34340647340626        2.60069941221683        0.60231443929694
C           -2.59803645225740        1.67354970385999       -0.33562287958083
C           -3.20859168371347        0.37813735087568       -0.01461488542907
C           -4.25999261989312       -0.12056448847802       -0.79510118559008
C           -4.86302655535643       -1.32772166530704       -0.49760283382005
O           -5.89373712915029       -1.87470901237421       -1.17751324818268
C           -6.45718013743147       -1.16653115990068       -2.25527190601987
C           -4.39763484653684       -2.09170774152776        0.60678346336464
O           -5.05125687227662       -3.25359043514817        0.81679593677092
C           -4.70222148105704       -4.04530459314567        1.92668915266791
C           -3.33992134585934       -1.60750434466586        1.36000208646397
C           -2.75497938216071       -0.38517253600393        1.05725670450174
C           -2.22231451297362        1.93043213876759       -1.76822391701473
C           -1.28026479229361        0.83771674903570       -2.31717457873011
C            0.02965622425881        0.86550348230033       -1.63183997109759
N            0.59013554941712       -0.15538118020329       -0.97209717059634
C            1.94121632078671       -0.02776518924735       -0.48342871054495
C            2.98249906912692       -0.51688671625246       -1.51034866322685
C            4.37016484316679       -0.25606106152972       -0.99701446209217
C            4.97374468605243        0.97329991623699       -1.19553655891141
C            6.24195576549198        1.23077657567668       -0.69620104804646
C            6.92923651111507        0.26100851382783        0.01651308044873
O            8.16448022489543        0.39989928064209        0.54485225379713
C            8.85921001861010        1.60805962263574        0.34395704498594
C            6.31731775653382       -1.00214344151325        0.22834863326868
O            7.05868678978170       -1.88939798452186        0.92981124604734
C            6.55088521424824       -3.18267375684206        1.14835836480851
C            5.04960000509613       -1.23667771822732       -0.27697884365960
C            0.00753659024258       -1.47478449423933       -0.97068616303355
C           -4.15463894949095        3.30697803935725        2.13426522040009
C           -5.29555578321273        2.67835041426577        1.40538060673359
C           -3.95731268653467        4.78139706930903        2.01275064379487
H           -4.62790260928965        0.47074449924810       -1.61697254804785
H           -6.85021218280423       -0.19536792718337       -1.93732848737180
H           -7.27760062357719       -1.78520078065125       -2.61319456263349
H           -5.73472924755148       -1.02277511109931       -3.06534741220269
H           -4.82225523213995       -3.49651598718162        2.86622046796171
H           -5.39115407753262       -4.88757297891110        1.91180946694001
H           -3.67563981928969       -4.41767664964470        1.84933647170117
H           -2.95868557903023       -2.17612001367594        2.19259266643097
H           -1.90463402892996       -0.05672812450923        1.63932244437646
H           -3.12413779272524        1.94556766464164       -2.38252945083976
H           -1.74275754450816        2.90577060628844       -1.85528988466563
H           -1.76215607263130       -0.13395635908745       -2.22664886559918
H           -1.13009987340808        1.04254619096484       -3.38372674875946
H           -1.89417407067028        3.55024228721345        0.36810329859134
H            0.56917486258678        1.79802376977782       -1.61766235411031
H            2.04311263012502       -0.60435713267725        0.43927014909810
H            2.14036100908693        1.02115212349311       -0.25425095768920
H            2.82325215416042        0.02083314725846       -2.44687007682339
H            2.84074397240514       -1.58236545718104       -1.69474341998308
H            4.46287148907810        1.74175717858936       -1.75610078728527
H            6.68896477251770        2.19504647877319       -0.87445144707774
H            8.33761320541766        2.45301494675196        0.80482709797399
H            9.01308135744436        1.81043173184173       -0.72049811633654
H            9.82455089975968        1.47368090382983        0.82835278229205
H            7.32407704903765       -3.71008064674960        1.70376914943279
H            5.63188539350987       -3.15955862924279        1.74349829661666
H            6.36294210847981       -3.70572880024115        0.20527822640943
H            4.57832901176752       -2.19572852484049       -0.12833456255480
H           -0.00558821247527       -1.90990878629475       -1.97349574790758
H           -1.01520974080134       -1.43873335793857       -0.59007649604477
H            0.59213214558678       -2.12168108879676       -0.32089031344706
H           -3.04045600629642        1.80953024234785        2.12800589154818
H           -5.41740826323547        1.63333032027961        1.69227566588198
H           -5.18173459258902        2.71629552605791        0.31303277244111
H           -6.20970875980230        3.20944238643379        1.65654504883568
H           -3.06261832540147        5.10856734865009        2.54460098788115
H           -3.88390661639117        5.12588656501277        0.97255261358805
H           -4.81275644187621        5.28735702197348        2.45269824447871
H           -2.20361589705820        2.93276397088457        2.61030485957941

          :  Hamiltonian                  GFN2-xTB          :
         :: total energy            -101.996448139483 Eh    ::
         :: gradient norm              0.003454805056 Eh/a0 ::
         :: HOMO-LUMO gap              0.813989852764 eV    ::
         :: SCC energy              -100.746358797787 Eh    ::
         :: -> dispersion             -0.072546101694 Eh    ::
         :: repulsion energy           1.548674621640 Eh    ::

    * Orbital Energies and Occupations

         #    Occupation            Energy/Eh            Energy/eV
      -------------------------------------------------------------
         1        2.0000           -0.8093516             -22.0236
       ...           ...                  ...                  ...
        78        1.9997           -0.5308995             -14.4465
        79        1.9996           -0.5274138             -14.3517
        80        1.9996           -0.5254648             -14.2986
        81        1.9995           -0.5217571             -14.1977
        82        1.9993           -0.5169585             -14.0672
        83        1.9991           -0.5132275             -13.9656
        84        1.9990           -0.5118353             -13.9277
        85        1.9984           -0.5047539             -13.7351
        86        1.9954           -0.4876540             -13.2697
        87        1.9878           -0.4722314             -12.8501
        88        1.9668           -0.4561680             -12.4130
        89        1.9121           -0.4403184             -11.9817
        90        1.4479           -0.4068109             -11.0699 (HOMO)
        91        0.5678           -0.3768973             -10.2559 (LUMO)
        92        0.1036           -0.3455180              -9.4020
        93        0.0138           -0.3128510              -8.5131
        94        0.0047           -0.2958634              -8.0509
        95        0.0040           -0.2933147              -7.9815
        96        0.0036           -0.2914616              -7.9311
        97        0.0000           -0.1843527              -5.0165
        98        0.0000           -0.1704457              -4.6381
        99        0.0000           -0.1412621              -3.8439
       100                         -0.1144659              -3.1148
       101                         -0.0795160              -2.1637
       ...                                ...                  ...
       171                          0.9773514              26.5951
      -------------------------------------------------------------
                  HL-Gap            0.0299136 Eh            0.8140 eV

     #   Z          covCN         q      C6AA      α(0)
     1   7 N        3.534    -0.050    22.197     6.998
     2   6 C        2.833    -0.052    29.270     8.866
     3   6 C        2.950     0.002    27.973     8.675
     4   6 C        2.973    -0.014    28.358     8.735
     5   6 C        2.920    -0.081    30.016     8.984
     6   6 C        2.862     0.128    25.199     8.228
     7   8 O        1.706    -0.238    17.946     5.720
     8   6 C        3.645     0.030    20.398     6.491
     9   6 C        2.864     0.126    25.225     8.233
    10   8 O        1.706    -0.236    17.906     5.713
    11   6 C        3.645     0.030    20.409     6.493
    12   6 C        2.913    -0.078    29.940     8.972
    13   6 C        2.921    -0.069    29.722     8.940
    14   6 C        3.812    -0.066    21.749     6.638
    15   6 C        3.804    -0.065    21.736     6.637
    16   6 C        2.845    -0.019    28.465     8.744
    17   7 N        2.728    -0.002    21.297     6.854
    18   6 C        3.757    -0.016    20.910     6.520
    19   6 C        3.807    -0.070    21.829     6.651
    20   6 C        2.969    -0.004    28.119     8.698
    21   6 C        2.923    -0.052    29.302     8.877
    22   6 C        2.915    -0.070    29.748     8.944
    23   6 C        2.865     0.129    25.169     8.223
    24   8 O        1.706    -0.233    17.868     5.707
    25   6 C        3.645     0.029    20.425     6.495
    26   6 C        2.863     0.129    25.168     8.223
    27   8 O        1.706    -0.235    17.897     5.712
    28   6 C        3.645     0.030    20.396     6.491
    29   6 C        2.920    -0.081    30.030     8.986
    30   6 C        3.699    -0.067    21.950     6.701
    31   6 C        2.863    -0.086    30.161     9.002
    32   6 C        3.753    -0.110    22.671     6.790
    33   6 C        3.752    -0.112    22.711     6.796
    34   1 H        0.926     0.045     2.381     2.413
    35   1 H        0.924     0.047     2.353     2.399
    36   1 H        0.925     0.078     2.000     2.212
    37   1 H        0.924     0.045     2.386     2.416
    38   1 H        0.924     0.048     2.343     2.394
    39   1 H        0.925     0.078     1.997     2.210
    40   1 H        0.924     0.046     2.369     2.407
    41   1 H        0.926     0.045     2.383     2.414
    42   1 H        0.925     0.019     2.751     2.594
    43   1 H        0.924     0.066     2.126     2.280
    44   1 H        0.924     0.051     2.310     2.377
    45   1 H        0.925     0.062     2.172     2.305
    46   1 H        0.924     0.070     2.082     2.256
    47   1 H        0.926     0.057     2.233     2.337
    48   1 H        0.926     0.056     2.251     2.346
    49   1 H        0.924     0.061     2.188     2.313
    50   1 H        0.924     0.063     2.162     2.300
    51   1 H        0.924     0.052     2.295     2.369
    52   1 H        0.924     0.051     2.303     2.373
    53   1 H        0.926     0.039     2.468     2.456
    54   1 H        0.926     0.052     2.295     2.369
    55   1 H        0.924     0.048     2.342     2.393
    56   1 H        0.924     0.051     2.311     2.377
    57   1 H        0.925     0.077     2.010     2.217
    58   1 H        0.925     0.077     2.013     2.219
    59   1 H        0.924     0.043     2.403     2.424
    60   1 H        0.924     0.048     2.342     2.393
    61   1 H        0.926     0.043     2.413     2.429
    62   1 H        0.924     0.070     2.084     2.258
    63   1 H        0.924     0.074     2.040     2.234
    64   1 H        0.925     0.073     2.051     2.240
    65   1 H        0.864     0.242     0.913     1.497
    66   1 H        0.924     0.035     2.513     2.479
    67   1 H        0.923     0.036     2.506     2.475
    68   1 H        0.925     0.064     2.157     2.297
    69   1 H        0.924     0.034     2.532     2.488
    70   1 H        0.923     0.042     2.418     2.432
    71   1 H        0.925     0.064     2.147     2.292
    72   1 H        0.859     0.216     1.028     1.588

Wiberg/Mayer (AO) data.
largest (>0.10) Wiberg bond orders for each atom

     #   Z sym  total        # sym  WBO       # sym  WBO       # sym  WBO
 ---------------------------------------------------------------------------
     1   7 N    3.693 --     2 C    0.931    72 H    0.923    65 H    0.916
                            31 C    0.848
     2   6 C    3.801 --     3 C    1.733    47 H    0.966     1 N    0.931
     3   6 C    3.914 --     2 C    1.733     4 C    1.060    14 C    1.007
     4   6 C    3.959 --    13 C    1.384     5 C    1.333     3 C    1.060
     5   6 C    3.956 --     6 C    1.418     4 C    1.333    34 H    0.961
     6   6 C    3.923 --     5 C    1.418     9 C    1.225     7 O    1.092
     7   8 O    2.265 --     6 C    1.092     8 C    0.980
     8   6 C    3.937 --     7 O    0.980    36 H    0.977    37 H    0.975
                            35 H    0.975
     9   6 C    3.906 --    12 C    1.393     6 C    1.225    10 O    1.096
    10   8 O    2.261 --     9 C    1.096    11 C    0.979
    11   6 C    3.936 --    10 O    0.979    39 H    0.977    38 H    0.975
                            40 H    0.975
    12   6 C    3.970 --    13 C    1.406     9 C    1.393    41 H    0.965
    13   6 C    3.953 --    12 C    1.406     4 C    1.384    42 H    0.969
    14   6 C    3.966 --     3 C    1.007    44 H    0.973    15 C    0.964
                            43 H    0.952
    15   6 C    3.988 --    16 C    1.059    45 H    0.967    14 C    0.964
                            46 H    0.941
    16   6 C    3.464 --    17 N    1.349    15 C    1.059    48 H    0.962
    17   7 N    3.407 --    16 C    1.349    30 C    1.002    18 C    0.992
    18   6 C    3.960 --    17 N    0.992    50 H    0.968    49 H    0.966
                            19 C    0.965
    19   6 C    3.974 --    20 C    1.008    52 H    0.973    51 H    0.972
                            18 C    0.965
    20   6 C    3.959 --    21 C    1.420    29 C    1.375    19 C    1.008
    21   6 C    3.963 --    20 C    1.420    22 C    1.411    53 H    0.969
    22   6 C    3.969 --    21 C    1.411    23 C    1.393    54 H    0.964
    23   6 C    3.910 --    22 C    1.393    26 C    1.233    24 O    1.095
    24   8 O    2.253 --    23 C    1.095    25 C    0.979
    25   6 C    3.935 --    24 O    0.979    57 H    0.978    55 H    0.974
                            56 H    0.974
    26   6 C    3.913 --    29 C    1.403    23 C    1.233    27 O    1.090
    27   8 O    2.253 --    26 C    1.090    28 C    0.982
    28   6 C    3.938 --    27 O    0.982    58 H    0.978    59 H    0.975
                            60 H    0.975
    29   6 C    3.966 --    26 C    1.403    20 C    1.375    61 H    0.963
    30   6 C    3.962 --    17 N    1.002    64 H    0.978    62 H    0.967
                            63 H    0.964
    31   6 C    3.037 --    33 C    1.046    32 C    1.044     1 N    0.848
    32   6 C    3.979 --    31 C    1.044    66 H    0.979    68 H    0.975
                            67 H    0.950
    33   6 C    3.977 --    31 C    1.046    69 H    0.980    71 H    0.971
                            70 H    0.952
    34   1 H    0.997 --     5 C    0.961
    35   1 H    0.997 --     8 C    0.975
    36   1 H    0.993 --     8 C    0.977
    37   1 H    0.997 --     8 C    0.975
    38   1 H    0.996 --    11 C    0.975
    39   1 H    0.993 --    11 C    0.977
    40   1 H    0.996 --    11 C    0.975
    41   1 H    0.997 --    12 C    0.965
    42   1 H    0.999 --    13 C    0.969
    43   1 H    0.990 --    14 C    0.952
    44   1 H    0.997 --    14 C    0.973
    45   1 H    0.996 --    15 C    0.967
    46   1 H    0.970 --    15 C    0.941
    47   1 H    0.996 --     2 C    0.966
    48   1 H    0.997 --    16 C    0.962
    49   1 H    0.992 --    18 C    0.966
    50   1 H    0.994 --    18 C    0.968
    51   1 H    0.996 --    19 C    0.972
    52   1 H    0.997 --    19 C    0.973
    53   1 H    0.998 --    21 C    0.969
    54   1 H    0.996 --    22 C    0.964
    55   1 H    0.995 --    25 C    0.974
    56   1 H    0.994 --    25 C    0.974
    57   1 H    0.993 --    25 C    0.978
    58   1 H    0.994 --    28 C    0.978
    59   1 H    0.996 --    28 C    0.975
    60   1 H    0.995 --    28 C    0.975
    61   1 H    0.997 --    29 C    0.963
    62   1 H    0.983 --    30 C    0.967
    63   1 H    0.987 --    30 C    0.964
    64   1 H    0.994 --    30 C    0.978
    65   1 H    0.940 --     1 N    0.916
    66   1 H    0.992 --    32 C    0.979
    67   1 H    0.958 --    32 C    0.950
    68   1 H    0.993 --    32 C    0.975
    69   1 H    0.996 --    33 C    0.980
    70   1 H    0.956 --    33 C    0.952
    71   1 H    0.988 --    33 C    0.971
    72   1 H    0.950 --     1 N    0.923
 ---------------------------------------------------------------------------

molecular dipole:
                 x           y           z       tot (Debye)
 q only:       -0.910       1.236       0.412
   full:       -0.835       1.330       0.214       4.029

           -------------------------------------------------
          | TOTAL ENERGY             -101.996448139483 Eh   |
          | GRADIENT NORM               0.003454805056 Eh/α |
          | HOMO-LUMO GAP               0.813989852764 eV   |
           -------------------------------------------------

 * finished run on 2024/04/06 at 11:15:29.659
