   * xtb version 6.6.1 (8d0f1dd) compiled by 'conda@1efc2f54142f' on 2023-08-01
          program call               : xtb xtbopt.xyz --opt crude --input .xc2 --gfn2

   ID    Z sym.   atoms
    1    7 N      1, 17
    2    6 C      2-6, 8, 9, 11-16, 18-23, 25, 26, 28-33
    3    8 O      7, 10, 24, 27
    4    1 H      34-72
########################################################################
[WARNING] Please study the warnings concerning your input carefully
-1- readin_getIntValue: could not parse ''
########################################################################

          :  Hamiltonian                  GFN2-xTB          :
 * total energy  :   -99.1965310 Eh     change        0.6252776E-11 Eh
 * total energy  :   -99.3372343 Eh     change       -0.1407033E+00 Eh
 * total energy  :   -99.3385861 Eh     change       -0.1351785E-02 Eh
 * total energy  :   -99.3388107 Eh     change       -0.2245648E-03 Eh
   *** GEOMETRY OPTIMIZATION CONVERGED AFTER 4 ITERATIONS ***

 final structure:
================
72
 xtb: 6.6.1 (8d0f1dd)
N           -2.87993508419122        2.54654953703875        1.94777104600287
C           -2.34005520010921        2.61135970854440        0.59235282564327
C           -2.59645889407717        1.67859061948097       -0.33892396304944
C           -3.20854333903115        0.38546843187602       -0.01384242400396
C           -4.26049517232349       -0.11601311534392       -0.79245893704882
C           -4.86342188743780       -1.32294849472192       -0.49381084415223
O           -5.89245074098892       -1.87202383573868       -1.17432344926213
C           -6.45470095226274       -1.16645079319443       -2.25479811312924
C           -4.39841152895476       -2.08582729333941        0.61205100219657
O           -5.04932084319685       -3.24916862751863        0.82186057579404
C           -4.69586072281777       -4.04298897393380        1.92939087032547
C           -3.34242013960673       -1.59923511924158        1.36577378866340
C           -2.75715981649605       -0.37531193441855        1.06273977850348
C           -2.22128951639275        1.93032437365735       -1.77290168368228
C           -1.27817757241979        0.83712272755511       -2.31944388823552
C            0.02936513202174        0.86483830696717       -1.63013145179400
N            0.59049322498806       -0.15667088017643       -0.97131718915771
C            1.94174741941886       -0.02883788042566       -0.48278324547734
C            2.98282948680358       -0.51745380278562       -1.51003105212926
C            4.37051643498102       -0.25638925774589       -0.99713011196864
C            4.97411697192550        0.97281371509797       -1.19591579818771
C            6.24251160452907        1.23012089640106       -0.69689502958702
C            6.92992076123253        0.26049330738271        0.01584244045400
O            8.16551232950394        0.39966056186228        0.54355258933338
C            8.85908634097645        1.60855734596485        0.34340842691116
C            6.31787856908733       -1.00241926687548        0.22799974361238
O            7.05878444996610       -1.89005806877137        0.92961365728518
C            6.55021069157466       -3.18306476994776        1.14800543421576
C            5.05005168625309       -1.23684659873799       -0.27707276389273
C            0.00798835301781       -1.47617265987128       -0.97114718016687
C           -4.14655938115092        3.32471399576748        2.12145601257031
C           -5.29142598582574        2.69217679165859        1.40421485595362
C           -3.96629817204807        4.80467930577202        2.01305863099484
H           -4.62548160509607        0.47313350210602       -1.61714985847029
H           -6.84959185686961       -0.19558132736937       -1.93898760827087
H           -7.27349860764761       -1.78691746425133       -2.61340522609339
H           -5.73082828289693       -1.02301164820711       -3.06366320251074
H           -4.81720979778550       -3.49696816088332        2.87007536360689
H           -5.38172350225761       -4.88769266361922        1.91313452216899
H           -3.66805021415708       -4.41136051104854        1.84950662107250
H           -2.95857232438143       -2.16938040041245        2.19625978843022
H           -1.89497596999450       -0.05629199567984        1.63423287695312
H           -3.12305824603201        1.94294746723192       -2.38763634463363
H           -1.74300839937503        2.90586582040600       -1.86277639498979
H           -1.76135598978561       -0.13386038788920       -2.23013965263188
H           -1.12492435964457        1.04316013040232       -3.38505535417355
H           -1.88568412171580        3.55843489652477        0.34736882497689
H            0.56885159258696        1.79731282816505       -1.61486462181586
H            2.04397077189473       -0.60520045984424        0.44014774286965
H            2.14033690322695        1.02022840695915       -0.25376611701246
H            2.82297162325947        0.02039578513242       -2.44631269342747
H            2.84114441971305       -1.58288083876882       -1.69462542682413
H            4.46339924112479        1.74137855632295       -1.75639052331381
H            6.68956889070104        2.19426882236448       -0.87545205528621
H            8.33597100857429        2.45298960064903        0.80343236758582
H            9.01406429307564        1.81093147836550       -0.72082603371191
H            9.82392101920499        1.47533875758032        0.82903735700917
H            7.32336093646938       -3.71133962823898        1.70268343900568
H            5.63159707286508       -3.15936211176760        1.74380074859436
H            6.36116009552379       -3.70557442115839        0.20482983264852
H            4.57878838290867       -2.19580860225483       -0.12814881832821
H           -0.00581731213621       -1.91001488174778       -1.97431921257681
H           -1.01452874937307       -1.44079991352987       -0.59033959105137
H            0.59314174230671       -2.12365935906006       -0.32291340386502
H           -3.11224818316581        1.57150026639738        2.15317005975026
H           -5.40758902698378        1.64752622924113        1.69438957805018
H           -5.18312125062785        2.72472419785611        0.31193077970060
H           -6.20540469656470        3.21998843277192        1.65988842331168
H           -3.07787524728440        5.13127064579818        2.55298499259940
H           -3.88856209052880        5.15758750706343        0.97662812667274
H           -4.82597155324772        5.30317510555810        2.45384554758746
H           -2.19467951583308        2.89809760910101        2.62452543547120

          :  Hamiltonian                  GFN2-xTB          :
         :: total energy             -99.338810686022 Eh    ::
         :: gradient norm              0.007834702046 Eh/a0 ::
         :: HOMO-LUMO gap              0.790267250806 eV    ::
         :: SCC energy              -100.717764988065 Eh    ::
         :: -> dispersion             -0.072516091408 Eh    ::
         :: repulsion energy           1.377800346296 Eh    ::

    * Orbital Energies and Occupations

         #    Occupation            Energy/Eh            Energy/eV
      -------------------------------------------------------------
         1        2.0000           -0.8027636             -21.8443
       ...           ...                  ...                  ...
        78        1.9997           -0.5303757             -14.4323
        79        1.9997           -0.5279957             -14.3675
        80        1.9996           -0.5249704             -14.2852
        81        1.9995           -0.5223751             -14.2145
        82        1.9993           -0.5163963             -14.0519
        83        1.9991           -0.5126672             -13.9504
        84        1.9990           -0.5108556             -13.9011
        85        1.9985           -0.5042056             -13.7201
        86        1.9958           -0.4883285             -13.2881
        87        1.9881           -0.4716523             -12.8343
        88        1.9700           -0.4568393             -12.4312
        89        1.9143           -0.4397618             -11.9665
        90        1.4295           -0.4051245             -11.0240 (HOMO)
        91        0.5717           -0.3760828             -10.2337 (LUMO)
        92        0.1085           -0.3453271              -9.3968
        93        0.0166           -0.3148345              -8.5671
        94        0.0049           -0.2952734              -8.0348
        95        0.0041           -0.2927065              -7.9649
        96        0.0038           -0.2915340              -7.9330
        97        0.0000           -0.1859778              -5.0607
        98        0.0000           -0.1698278              -4.6212
        99        0.0000           -0.1489623              -4.0535
       100                         -0.1140544              -3.1036
       101                         -0.0593380              -1.6147
       ...                                ...                  ...
       171                          0.5945680              16.1790
      -------------------------------------------------------------
                  HL-Gap            0.0290418 Eh            0.7903 eV

     #   Z          covCN         q      C6AA      α(0)
     1   7 N        3.535    -0.041    22.034     6.972
     2   6 C        2.833    -0.045    29.117     8.842
     3   6 C        2.950    -0.000    28.029     8.683
     4   6 C        2.972    -0.014    28.360     8.735
     5   6 C        2.920    -0.081    30.020     8.985
     6   6 C        2.862     0.128    25.194     8.227
     7   8 O        1.706    -0.238    17.941     5.719
     8   6 C        3.645     0.030    20.402     6.492
     9   6 C        2.864     0.126    25.233     8.234
    10   8 O        1.706    -0.236    17.913     5.714
    11   6 C        3.645     0.030    20.410     6.493
    12   6 C        2.912    -0.078    29.958     8.975
    13   6 C        2.921    -0.073    29.810     8.953
    14   6 C        3.812    -0.066    21.746     6.638
    15   6 C        3.803    -0.064    21.735     6.637
    16   6 C        2.845    -0.019    28.476     8.746
    17   7 N        2.728    -0.003    21.315     6.857
    18   6 C        3.757    -0.016    20.907     6.519
    19   6 C        3.807    -0.070    21.828     6.651
    20   6 C        2.969    -0.004    28.122     8.698
    21   6 C        2.923    -0.053    29.305     8.877
    22   6 C        2.915    -0.070    29.750     8.944
    23   6 C        2.865     0.129    25.171     8.224
    24   8 O        1.706    -0.234    17.874     5.708
    25   6 C        3.645     0.029    20.423     6.495
    26   6 C        2.863     0.129    25.171     8.224
    27   8 O        1.706    -0.235    17.903     5.713
    28   6 C        3.645     0.031    20.393     6.491
    29   6 C        2.920    -0.081    30.032     8.987
    30   6 C        3.699    -0.066    21.945     6.700
    31   6 C        2.865    -0.078    29.951     8.971
    32   6 C        3.753    -0.111    22.685     6.792
    33   6 C        3.753    -0.111    22.683     6.792
    34   1 H        0.926     0.045     2.377     2.411
    35   1 H        0.924     0.048     2.350     2.397
    36   1 H        0.925     0.078     1.998     2.210
    37   1 H        0.924     0.045     2.383     2.414
    38   1 H        0.924     0.048     2.345     2.395
    39   1 H        0.925     0.078     1.996     2.209
    40   1 H        0.924     0.046     2.368     2.406
    41   1 H        0.926     0.045     2.389     2.417
    42   1 H        0.925     0.020     2.735     2.586
    43   1 H        0.924     0.066     2.134     2.284
    44   1 H        0.925     0.051     2.311     2.377
    45   1 H        0.925     0.062     2.177     2.307
    46   1 H        0.924     0.070     2.084     2.258
    47   1 H        0.926     0.058     2.228     2.334
    48   1 H        0.926     0.055     2.256     2.349
    49   1 H        0.924     0.061     2.193     2.316
    50   1 H        0.924     0.063     2.164     2.300
    51   1 H        0.924     0.052     2.296     2.370
    52   1 H        0.924     0.051     2.305     2.374
    53   1 H        0.926     0.038     2.470     2.458
    54   1 H        0.926     0.052     2.297     2.370
    55   1 H        0.924     0.048     2.344     2.394
    56   1 H        0.924     0.051     2.313     2.378
    57   1 H        0.925     0.077     2.012     2.218
    58   1 H        0.925     0.077     2.015     2.220
    59   1 H        0.924     0.043     2.405     2.425
    60   1 H        0.924     0.048     2.344     2.394
    61   1 H        0.926     0.042     2.416     2.431
    62   1 H        0.924     0.070     2.087     2.259
    63   1 H        0.924     0.074     2.046     2.237
    64   1 H        0.925     0.073     2.054     2.241
    65   1 H        0.859     0.231     0.961     1.536
    66   1 H        0.924     0.034     2.536     2.490
    67   1 H        0.923     0.037     2.490     2.468
    68   1 H        0.925     0.064     2.152     2.294
    69   1 H        0.925     0.035     2.513     2.479
    70   1 H        0.924     0.043     2.412     2.429
    71   1 H        0.925     0.063     2.162     2.299
    72   1 H        0.859     0.216     1.028     1.588

Wiberg/Mayer (AO) data.
largest (>0.10) Wiberg bond orders for each atom

     #   Z sym  total        # sym  WBO       # sym  WBO       # sym  WBO
 ---------------------------------------------------------------------------
     1   7 N    3.711 --     2 C    0.942    72 H    0.924    65 H    0.895
                            31 C    0.868
     2   6 C    3.803 --     3 C    1.733    47 H    0.962     1 N    0.942
     3   6 C    3.914 --     2 C    1.733     4 C    1.060    14 C    1.007
     4   6 C    3.958 --    13 C    1.378     5 C    1.333     3 C    1.060
     5   6 C    3.956 --     6 C    1.417     4 C    1.333    34 H    0.961
     6   6 C    3.922 --     5 C    1.417     9 C    1.224     7 O    1.093
     7   8 O    2.266 --     6 C    1.093     8 C    0.980
     8   6 C    3.937 --     7 O    0.980    36 H    0.977    37 H    0.975
                            35 H    0.975
     9   6 C    3.906 --    12 C    1.395     6 C    1.224    10 O    1.095
    10   8 O    2.261 --     9 C    1.095    11 C    0.979
    11   6 C    3.936 --    10 O    0.979    39 H    0.977    38 H    0.975
                            40 H    0.975
    12   6 C    3.969 --    13 C    1.400     9 C    1.395    41 H    0.965
    13   6 C    3.950 --    12 C    1.400     4 C    1.378    42 H    0.965
    14   6 C    3.966 --     3 C    1.007    44 H    0.973    15 C    0.964
                            43 H    0.952
    15   6 C    3.988 --    16 C    1.059    45 H    0.967    14 C    0.964
                            46 H    0.941
    16   6 C    3.461 --    17 N    1.347    15 C    1.059    48 H    0.962
    17   7 N    3.405 --    16 C    1.347    30 C    1.002    18 C    0.992
    18   6 C    3.960 --    17 N    0.992    50 H    0.968    49 H    0.966
                            19 C    0.966
    19   6 C    3.974 --    20 C    1.008    52 H    0.973    51 H    0.972
                            18 C    0.966
    20   6 C    3.959 --    21 C    1.420    29 C    1.375    19 C    1.008
    21   6 C    3.963 --    20 C    1.420    22 C    1.411    53 H    0.969
    22   6 C    3.969 --    21 C    1.411    23 C    1.393    54 H    0.964
    23   6 C    3.910 --    22 C    1.393    26 C    1.233    24 O    1.095
    24   8 O    2.253 --    23 C    1.095    25 C    0.979
    25   6 C    3.935 --    24 O    0.979    57 H    0.978    55 H    0.974
                            56 H    0.974
    26   6 C    3.914 --    29 C    1.403    23 C    1.233    27 O    1.090
    27   8 O    2.253 --    26 C    1.090    28 C    0.982
    28   6 C    3.938 --    27 O    0.982    58 H    0.978    59 H    0.975
                            60 H    0.975
    29   6 C    3.966 --    26 C    1.403    20 C    1.375    61 H    0.963
    30   6 C    3.963 --    17 N    1.002    64 H    0.978    62 H    0.967
                            63 H    0.964
    31   6 C    3.048 --    32 C    1.043    33 C    1.042     1 N    0.868
    32   6 C    3.979 --    31 C    1.043    66 H    0.977    68 H    0.975
                            67 H    0.950
    33   6 C    3.977 --    31 C    1.042    69 H    0.981    71 H    0.972
                            70 H    0.951
    34   1 H    0.997 --     5 C    0.961
    35   1 H    0.997 --     8 C    0.975
    36   1 H    0.993 --     8 C    0.977
    37   1 H    0.997 --     8 C    0.975
    38   1 H    0.996 --    11 C    0.975
    39   1 H    0.993 --    11 C    0.977
    40   1 H    0.996 --    11 C    0.975
    41   1 H    0.997 --    12 C    0.965
    42   1 H    0.999 --    13 C    0.965
    43   1 H    0.990 --    14 C    0.952
    44   1 H    0.997 --    14 C    0.973
    45   1 H    0.996 --    15 C    0.967
    46   1 H    0.970 --    15 C    0.941
    47   1 H    0.995 --     2 C    0.962
    48   1 H    0.997 --    16 C    0.962
    49   1 H    0.992 --    18 C    0.966
    50   1 H    0.994 --    18 C    0.968
    51   1 H    0.996 --    19 C    0.972
    52   1 H    0.997 --    19 C    0.973
    53   1 H    0.998 --    21 C    0.969
    54   1 H    0.996 --    22 C    0.964
    55   1 H    0.995 --    25 C    0.974
    56   1 H    0.995 --    25 C    0.974
    57   1 H    0.994 --    25 C    0.978
    58   1 H    0.994 --    28 C    0.978
    59   1 H    0.996 --    28 C    0.975
    60   1 H    0.995 --    28 C    0.975
    61   1 H    0.997 --    29 C    0.963
    62   1 H    0.983 --    30 C    0.967
    63   1 H    0.987 --    30 C    0.964
    64   1 H    0.994 --    30 C    0.978
    65   1 H    0.944 --     1 N    0.895
    66   1 H    0.992 --    32 C    0.977
    67   1 H    0.957 --    32 C    0.950
    68   1 H    0.993 --    32 C    0.975
    69   1 H    0.996 --    33 C    0.981
    70   1 H    0.955 --    33 C    0.951
    71   1 H    0.989 --    33 C    0.972
    72   1 H    0.949 --     1 N    0.924
 ---------------------------------------------------------------------------

molecular dipole:
                 x           y           z       tot (Debye)
 q only:       -1.015       1.213       0.457
   full:       -0.937       1.299       0.269       4.128

           -------------------------------------------------
          | TOTAL ENERGY              -99.338810686022 Eh   |
          | GRADIENT NORM               0.007834702046 Eh/α |
          | HOMO-LUMO GAP               0.790267250806 eV   |
           -------------------------------------------------

 * finished run on 2024/04/06 at 11:15:30.629
