   * xtb version 6.6.1 (8d0f1dd) compiled by 'conda@1efc2f54142f' on 2023-08-01
          program call               : xtb struc.xyz --opt loose --input .xc1 --gfn2

   ID    Z sym.   atoms
    1    7 N      1, 17
    2    6 C      2-6, 8, 9, 11-16, 18-23, 25, 26, 28-33
    3    8 O      7, 10, 24, 27
    4    1 H      34-72
constraining bond 10 11 to    3.7600000 Å, actual value:    1.4085357 Å

          :  Hamiltonian                  GFN2-xTB          :
 * total energy  :   -98.4168416 Eh     change       -0.4035485E-08 Eh
 * total energy  :   -98.5936098 Eh     change       -0.1767682E+00 Eh
 * total energy  :   -98.8006485 Eh     change       -0.2070387E+00 Eh
 * total energy  :   -99.0072738 Eh     change       -0.2066253E+00 Eh
 * total energy  :   -99.1135210 Eh     change       -0.1062471E+00 Eh
 * total energy  :   -99.1593624 Eh     change       -0.4584145E-01 Eh
 * total energy  :   -99.2017777 Eh     change       -0.4241530E-01 Eh
 * total energy  :   -99.2292148 Eh     change       -0.2743708E-01 Eh
 * total energy  :   -99.2500604 Eh     change       -0.2084562E-01 Eh
 * total energy  :   -99.2650112 Eh     change       -0.1495077E-01 Eh
 * total energy  :   -99.2926017 Eh     change       -0.2331579E-03 Eh
 * total energy  :   -99.2928704 Eh     change       -0.2687525E-03 Eh
 * total energy  :   -99.2930833 Eh     change       -0.2128646E-03 Eh
 * total energy  :   -99.2932238 Eh     change       -0.1404710E-03 Eh
 * total energy  :   -99.2933297 Eh     change       -0.1059127E-03 Eh
 * total energy  :   -99.2934141 Eh     change       -0.8441858E-04 Eh
 * total energy  :   -99.2934858 Eh     change       -0.7175138E-04 Eh
 * total energy  :   -99.2935454 Eh     change       -0.5954823E-04 Eh
 * total energy  :   -99.2935894 Eh     change       -0.4404560E-04 Eh
   *** GEOMETRY OPTIMIZATION CONVERGED AFTER 32 ITERATIONS ***

 final structure:
================
72
 xtb: 6.6.1 (8d0f1dd)
N           -1.98836402835542        2.74831794454173        2.29506266953240
C           -1.89222314277215        2.13729099022922        1.21188021734287
C           -2.99826714090669        2.00902869441689        0.20098946812554
C           -3.49336523317255        0.57354663743270        0.16878901315219
C           -4.43599391519690        0.18081198662843       -0.78490764218163
C           -4.89642017542408       -1.11923214174312       -0.86175036934320
O           -5.82114278473368       -1.57056866091628       -1.71732766239721
C           -6.49127907568118       -0.67600733937289       -2.57390223649202
C           -4.37343776628417       -2.15691620295974        0.03759795504152
O           -4.72256235338600       -3.33905091056475       -0.05706419086451
C           -4.27324547465971       -5.56447891989852        2.93363943828387
C           -3.44026634059059       -1.68851102184738        1.01918285803015
C           -3.02831806195847       -0.38365186428670        1.07898180096237
C           -2.36931993474914        2.36768084392774       -1.17235886578364
C           -1.44171201756387        1.28081596248092       -1.74636873928387
C           -0.13439925058225        1.18128863516070       -1.05949758452766
N            0.48849697438331        0.05298383517595       -0.75483754584373
C            1.85721415464361        0.07003393982776       -0.29160003035179
C            2.84238500075659       -0.34797902167583       -1.40139812745266
C            4.25791054703102       -0.14788312113323       -0.93513122566755
C            4.89879116672605        1.06473980425860       -1.13686648985080
C            6.19621699322989        1.26579848855741       -0.69351282738984
C            6.88090572664149        0.25633615266951       -0.03104700294978
O            8.13781504806337        0.33835024104510        0.43824086211037
C            8.87197600554132        1.52543540483838        0.24146539358016
C            6.22964849252831       -0.99091366713735        0.18633148242900
O            6.96531549989122       -1.91350935932851        0.83395284477702
C            6.42259169433965       -3.19057719941270        1.07307289047320
C            4.93087543137669       -1.16773830133605       -0.26688214693289
C           -0.11927706120359       -1.24104468713912       -0.95599444917709
C           -4.20658765444970        2.94796402145624        0.49749368813384
C           -4.92246635874865        2.54240761873203        1.78362835611808
C           -3.82239536658770        4.42315204717985        0.56048016609525
H           -4.82431354791381        0.91442845978434       -1.47459914731687
H           -7.00914688605393        0.10519213076398       -2.00761346486016
H           -7.22197442797399       -1.27652486027389       -3.11260065695434
H           -5.80397017465575       -0.21439298320302       -3.29099206316832
H           -4.60205181479610       -4.83209502913892        3.63964252647631
H           -4.99101156605846       -6.10152037554156        2.35003928932695
H           -3.22867945841608       -5.74132004314395        2.78794859337992
H           -3.07762887930638       -2.41860651620436        1.72578583618198
H           -2.34030980078646       -0.08585755632787        1.85699833753323
H           -3.17214861934775        2.53512998751403       -1.88941250639239
H           -1.81314133540229        3.30064501335955       -1.07460237513203
H           -1.96306766603499        0.32485845531527       -1.75805116773868
H           -1.23702050089187        1.55979114027391       -2.78847910187487
H           -0.96026774144878        1.65132912308471        0.85765252181588
H            0.43013670325575        2.09389116750578       -0.93014694760554
H            1.95655870668030       -0.61033437112043        0.55855659416757
H            2.11256236465267        1.07713521213823        0.04427771410888
H            2.65616495534348        0.26635128905869       -2.28413737655965
H            2.67791631976500       -1.39282681542710       -1.66646594659864
H            4.39254287802768        1.86317825035845       -1.65780893321465
H            6.67066592333115        2.21627096966656       -0.87410896795094
H            8.39928253144932        2.37623383244534        0.74144101229177
H            8.99476263854146        1.74796459918625       -0.82260140293075
H            9.84787560438799        1.34236788955673        0.68689733938042
H            7.20418680508573       -3.74854669266546        1.58501338380277
H            5.53791566405610       -3.13645544613401        1.71540692028005
H            6.16779797269413       -3.69954950408534        0.13852039752163
H            4.43339671660567       -2.11293133350679       -0.11583072904478
H           -0.22617925433033       -1.46506459740650       -2.01909508124234
H           -1.10543298289484       -1.28122003871088       -0.48816402460648
H            0.50551056864849       -2.00588975372535       -0.50229164274183
H           -4.90995320635755        2.82110225144426       -0.33299879179085
H           -4.26980245175742        2.69223474384940        2.63754787540435
H           -5.22663560833449        1.49881093928737        1.75244404020766
H           -5.81098397294302        3.15447957855996        1.91464027514766
H           -3.09879859792258        4.59452877792033        1.35196752026058
H           -3.41422559236434        4.77716534541979       -0.38290345588548
H           -4.70944030085917        5.01155434791578        0.78104802528727
H           -1.17367596702527        2.79471110434116        2.89799845597023

          :  Hamiltonian                  GFN2-xTB          :
         :: total energy             -99.293589424560 Eh    ::
         :: gradient norm              0.002276655177 Eh/a0 ::
         :: HOMO-LUMO gap              0.385211752091 eV    ::
         :: SCC energy              -100.678591545185 Eh    ::
         :: -> dispersion             -0.073062588599 Eh    ::
         :: repulsion energy           1.383779099140 Eh    ::

    * Orbital Energies and Occupations

         #    Occupation            Energy/Eh            Energy/eV
      -------------------------------------------------------------
         1        2.0000           -0.8124565             -22.1081
       ...           ...                  ...                  ...
        78        1.9980           -0.5342997             -14.5390
        79        1.9977           -0.5323091             -14.4849
        80        1.9972           -0.5294768             -14.4078
        81        1.9965           -0.5257008             -14.3050
        82        1.9943           -0.5179925             -14.0953
        83        1.9938           -0.5166121             -14.0577
        84        1.9923           -0.5133869             -13.9700
        85        1.9749           -0.4944716             -13.4553
        86        1.9650           -0.4890993             -13.3091
        87        1.9259           -0.4768988             -12.9771
        88        1.8349           -0.4634569             -12.6113
        89        1.8171           -0.4616809             -12.5630
        90        1.2937           -0.4349058             -11.8344 (HOMO)
        91        0.8566           -0.4207496             -11.4492 (LUMO)
        92        0.3557           -0.4010821             -10.9140
        93        0.0122           -0.3446909              -9.3795
        94        0.0024           -0.3185609              -8.6685
        95        0.0021           -0.3163529              -8.6084
        96        0.0014           -0.3106232              -8.4525
        97        0.0008           -0.3016912              -8.2094
        98        0.0000           -0.1939361              -5.2773
        99        0.0000           -0.1874665              -5.1012
       100                         -0.1421556              -3.8682
       101                         -0.0751189              -2.0441
       ...                                ...                  ...
       171                          0.6028610              16.4047
      -------------------------------------------------------------
                  HL-Gap            0.0141563 Eh            0.3852 eV

     #   Z          covCN         q      C6AA      α(0)
     1   7 N        1.774    -0.263    27.641     7.785
     2   6 C        2.826     0.103    25.717     8.310
     3   6 C        3.907     0.007    20.396     6.419
     4   6 C        2.974     0.004    27.922     8.668
     5   6 C        2.911    -0.079    29.985     8.979
     6   6 C        2.855     0.124    25.267     8.239
     7   8 O        1.706    -0.201    17.343     5.623
     8   6 C        3.644     0.025    20.496     6.508
     9   6 C        2.828     0.196    23.829     7.999
    10   8 O        0.858    -0.370    21.085     6.156
    11   6 C        2.780    -0.112    30.805     9.091
    12   6 C        2.909    -0.072    29.786     8.949
    13   6 C        2.911    -0.047    29.177     8.857
    14   6 C        3.812    -0.065    21.731     6.635
    15   6 C        3.802    -0.070    21.831     6.652
    16   6 C        2.843     0.011    27.757     8.634
    17   7 N        2.729     0.018    20.940     6.796
    18   6 C        3.756    -0.018    20.944     6.525
    19   6 C        3.807    -0.071    21.852     6.654
    20   6 C        2.969     0.001    27.998     8.679
    21   6 C        2.922    -0.048    29.188     8.860
    22   6 C        2.913    -0.067    29.662     8.931
    23   6 C        2.864     0.135    25.050     8.204
    24   8 O        1.706    -0.218    17.612     5.666
    25   6 C        3.645     0.024    20.511     6.509
    26   6 C        2.862     0.135    25.055     8.205
    27   8 O        1.706    -0.220    17.658     5.674
    28   6 C        3.644     0.026    20.481     6.505
    29   6 C        2.919    -0.079    29.967     8.977
    30   6 C        3.700    -0.073    22.069     6.718
    31   6 C        3.852    -0.007    20.664     6.465
    32   6 C        3.756    -0.119    22.825     6.812
    33   6 C        3.755    -0.118    22.824     6.812
    34   1 H        0.926     0.049     2.338     2.391
    35   1 H        0.924     0.059     2.215     2.327
    36   1 H        0.925     0.086     1.917     2.165
    37   1 H        0.924     0.053     2.288     2.366
    38   1 H        0.927     0.082     1.953     2.186
    39   1 H        0.927     0.093     1.849     2.126
    40   1 H        0.927     0.080     1.979     2.200
    41   1 H        0.926     0.060     2.201     2.320
    42   1 H        0.926     0.038     2.482     2.463
    43   1 H        0.925     0.062     2.179     2.308
    44   1 H        0.924     0.054     2.273     2.358
    45   1 H        0.925     0.069     2.095     2.263
    46   1 H        0.923     0.083     1.945     2.181
    47   1 H        0.922     0.008     2.928     2.676
    48   1 H        0.926     0.072     2.060     2.245
    49   1 H        0.924     0.070     2.083     2.257
    50   1 H        0.924     0.068     2.104     2.269
    51   1 H        0.924     0.056     2.242     2.341
    52   1 H        0.924     0.058     2.217     2.328
    53   1 H        0.926     0.047     2.360     2.402
    54   1 H        0.926     0.060     2.194     2.316
    55   1 H        0.924     0.056     2.244     2.343
    56   1 H        0.924     0.058     2.224     2.332
    57   1 H        0.925     0.084     1.934     2.175
    58   1 H        0.925     0.084     1.938     2.177
    59   1 H        0.924     0.051     2.307     2.375
    60   1 H        0.924     0.055     2.260     2.351
    61   1 H        0.926     0.050     2.321     2.382
    62   1 H        0.924     0.080     1.977     2.199
    63   1 H        0.924     0.084     1.936     2.176
    64   1 H        0.925     0.083     1.943     2.180
    65   1 H        0.924     0.039     2.459     2.452
    66   1 H        0.925     0.071     2.079     2.255
    67   1 H        0.925     0.038     2.475     2.460
    68   1 H        0.925     0.052     2.289     2.366
    69   1 H        0.925     0.060     2.200     2.319
    70   1 H        0.925     0.035     2.513     2.479
    71   1 H        0.925     0.056     2.241     2.341
    72   1 H        0.860     0.160     1.337     1.811

Wiberg/Mayer (AO) data.
largest (>0.10) Wiberg bond orders for each atom

     #   Z sym  total        # sym  WBO       # sym  WBO       # sym  WBO
 ---------------------------------------------------------------------------
     1   7 N    3.044 --     2 C    1.960    72 H    0.940
     2   6 C    3.930 --     1 N    1.960     3 C    0.994    47 H    0.896
     3   6 C    3.972 --     2 C    0.994     4 C    0.973    14 C    0.954
                            31 C    0.939
     4   6 C    3.805 --     5 C    1.362    13 C    1.324     3 C    0.973
     5   6 C    3.946 --     6 C    1.414     4 C    1.362    34 H    0.953
     6   6 C    3.750 --     5 C    1.414     7 O    1.139     9 C    1.051
     7   8 O    2.253 --     6 C    1.139     8 C    0.974
     8   6 C    3.925 --    36 H    0.976     7 O    0.974    35 H    0.971
                            37 H    0.970
     9   6 C    3.885 --    10 O    1.581    12 C    1.159     6 C    1.051
    10   8 O    1.722 --     9 C    1.581
    11   6 C    2.972 --    40 H    0.991    38 H    0.991    39 H    0.989
    12   6 C    3.798 --    13 C    1.523     9 C    1.159    41 H    0.964
    13   6 C    3.943 --    12 C    1.523     4 C    1.324    42 H    0.957
    14   6 C    3.969 --    15 C    0.983    44 H    0.972    43 H    0.969
                             3 C    0.954
    15   6 C    3.985 --    16 C    1.060    14 C    0.983    45 H    0.960
                            46 H    0.924
    16   6 C    3.624 --    17 N    1.422    15 C    1.060    48 H    0.956
    17   7 N    3.500 --    16 C    1.422    30 C    0.997    18 C    0.987
    18   6 C    3.954 --    17 N    0.987    50 H    0.968    19 C    0.966
                            49 H    0.963
    19   6 C    3.976 --    20 C    1.008    51 H    0.972    52 H    0.971
                            18 C    0.966
    20   6 C    3.939 --    21 C    1.404    29 C    1.382    19 C    1.008
    21   6 C    3.944 --    22 C    1.419    20 C    1.404    53 H    0.968
    22   6 C    3.956 --    21 C    1.419    23 C    1.379    54 H    0.963
    23   6 C    3.889 --    22 C    1.379    26 C    1.215    24 O    1.116
    24   8 O    2.256 --    23 C    1.116    25 C    0.975
    25   6 C    3.926 --    57 H    0.976    24 O    0.975    56 H    0.972
                            55 H    0.972
    26   6 C    3.893 --    29 C    1.391    23 C    1.215    27 O    1.110
    27   8 O    2.255 --    26 C    1.110    28 C    0.977
    28   6 C    3.929 --    27 O    0.977    58 H    0.976    59 H    0.973
                            60 H    0.973
    29   6 C    3.956 --    26 C    1.391    20 C    1.382    61 H    0.962
    30   6 C    3.954 --    17 N    0.997    64 H    0.977    62 H    0.965
                            63 H    0.959
    31   6 C    3.964 --    33 C    1.009    32 C    1.008    65 H    0.958
                             3 C    0.939
    32   6 C    3.973 --    31 C    1.008    68 H    0.980    67 H    0.980
                            66 H    0.972
    33   6 C    3.980 --    31 C    1.009    70 H    0.983    71 H    0.979
                            69 H    0.976
    34   1 H    0.992 --     5 C    0.953
    35   1 H    0.989 --     8 C    0.971
    36   1 H    0.992 --     8 C    0.976
    37   1 H    0.989 --     8 C    0.970
    38   1 H    0.993 --    11 C    0.991
    39   1 H    0.991 --    11 C    0.989
    40   1 H    0.993 --    11 C    0.991
    41   1 H    0.991 --    12 C    0.964
    42   1 H    0.993 --    13 C    0.957
    43   1 H    0.995 --    14 C    0.969
    44   1 H    0.996 --    14 C    0.972
    45   1 H    0.994 --    15 C    0.960
    46   1 H    0.970 --    15 C    0.924
    47   1 H    0.984 --     2 C    0.896
    48   1 H    0.994 --    16 C    0.956
    49   1 H    0.990 --    18 C    0.963
    50   1 H    0.995 --    18 C    0.968
    51   1 H    0.995 --    19 C    0.972
    52   1 H    0.995 --    19 C    0.971
    53   1 H    0.997 --    21 C    0.968
    54   1 H    0.995 --    22 C    0.963
    55   1 H    0.990 --    25 C    0.972
    56   1 H    0.990 --    25 C    0.972
    57   1 H    0.992 --    25 C    0.976
    58   1 H    0.992 --    28 C    0.976
    59   1 H    0.992 --    28 C    0.973
    60   1 H    0.992 --    28 C    0.973
    61   1 H    0.996 --    29 C    0.962
    62   1 H    0.984 --    30 C    0.965
    63   1 H    0.987 --    30 C    0.959
    64   1 H    0.993 --    30 C    0.977
    65   1 H    0.991 --    31 C    0.958
    66   1 H    0.989 --    32 C    0.972
    67   1 H    0.996 --    32 C    0.980
    68   1 H    0.993 --    32 C    0.980
    69   1 H    0.993 --    33 C    0.976
    70   1 H    0.997 --    33 C    0.983
    71   1 H    0.993 --    33 C    0.979
    72   1 H    0.969 --     1 N    0.940
 ---------------------------------------------------------------------------

molecular dipole:
                 x           y           z       tot (Debye)
 q only:        1.677       0.933      -0.713
   full:        1.944       1.120      -0.973       6.215

           -------------------------------------------------
          | TOTAL ENERGY              -99.293589424560 Eh   |
          | GRADIENT NORM               0.002276655177 Eh/α |
          | HOMO-LUMO GAP               0.385211752091 eV   |
           -------------------------------------------------

 * finished run on 2024/04/06 at 11:12:53.850
