   * xtb version 6.6.1 (8d0f1dd) compiled by 'conda@1efc2f54142f' on 2023-08-01
          program call               : xtb struc.xyz --opt loose --input .xc1 --gfn2

   ID    Z sym.   atoms
    1    6 C      1, 3, 5-7, 10, 11, 14
    2    7 N      2, 4, 9, 13
    3    8 O      8, 12
    4    1 H      15-25
constraining bond 6 7 to    4.0000000 Å, actual value:    1.4583840 Å

          :  Hamiltonian                  GFN2-xTB          :
 * total energy  :   -19.1794559 Eh     change       -0.6650680E-10 Eh
 * total energy  :   -28.8897381 Eh     change       -0.9710282E+01 Eh
 * total energy  :   -35.4383312 Eh     change       -0.6548593E+01 Eh
 * total energy  :   -39.5155270 Eh     change       -0.4077196E+01 Eh
 * total energy  :   -41.1678065 Eh     change       -0.1652280E+01 Eh
 * total energy  :   -41.4384874 Eh     change       -0.2706808E+00 Eh
 * total energy  :   -41.5287126 Eh     change       -0.9022524E-01 Eh
 * total energy  :   -41.5651623 Eh     change       -0.3644971E-01 Eh
 * total energy  :   -41.6493083 Eh     change       -0.8414603E-01 Eh
 * total energy  :   -41.7005616 Eh     change       -0.5125326E-01 Eh
 * total energy  :   -42.0124143 Eh     change       -0.1926744E-03 Eh
 * total energy  :   -42.0124879 Eh     change       -0.7361739E-04 Eh
 * total energy  :   -42.0126302 Eh     change       -0.1423219E-03 Eh
 * total energy  :   -42.0126989 Eh     change       -0.6868078E-04 Eh
 * total energy  :   -42.0127796 Eh     change       -0.8072129E-04 Eh
 * total energy  :   -42.0128772 Eh     change       -0.9756867E-04 Eh
 * total energy  :   -42.0129192 Eh     change       -0.4196632E-04 Eh
 * total energy  :   -42.0129761 Eh     change       -0.5694483E-04 Eh
 * total energy  :   -42.0130157 Eh     change       -0.3957907E-04 Eh
   *** GEOMETRY OPTIMIZATION CONVERGED AFTER 95 ITERATIONS ***

 final structure:
================
25
 xtb: 6.6.1 (8d0f1dd)
C            3.23198821659164        1.22862605175914        0.31898118857134
N            2.24136911316598        0.24788180786994        0.00776425488291
C            2.18386909097139       -0.98877477477861        0.74542852073886
N            1.25211748464525       -1.89296075476823        0.09510893855102
C            0.27057905952063       -0.97817759048359        0.07796441332561
C            1.06526071100054        0.03856652732775        0.82844709531424
C           -1.59688484273700        1.64927356138161       -1.68303846250587
O           -1.66356249542010        1.95050783395480       -2.78964606037177
N           -1.48237227900183        1.16046424305566       -0.52938731913919
C           -1.25098609711914        1.94555876380707        0.68766921545438
C           -2.00014747050954       -0.25042032558257       -0.36266418668117
O           -3.17626523123078       -0.44430782860724       -0.42568717927115
N           -1.02060925113226       -1.19930260068872       -0.24411324128651
C           -1.44482264348331       -2.58915891294937       -0.43312815180102
H            3.48597031770765        1.26432313595414        1.38385294567052
H            4.13089650190869        0.99504973692502       -0.25067908315989
H            2.86188738786453        2.20464203978363        0.00965107285753
H            2.93818034541389       -1.32960969308874        1.42756845549641
H           -0.99100130718243        2.96804187930954        0.42327687831882
H           -2.15718348924416        1.94137236660910        1.29301970522053
H           -0.41950276683495        1.48075067702114        1.23425115345932
H           -1.05724904926090       -3.20461597103133        0.37915889507149
H           -1.08337548015673       -2.96415524642049       -1.39278906187489
H           -2.53300287666976       -2.62450033279390       -0.42365626399755
H            1.37527856529427       -2.79083605196770       -0.34618210494235

          :  Hamiltonian                  GFN2-xTB          :
         :: total energy             -42.013015685175 Eh    ::
         :: gradient norm              0.003678448153 Eh/a0 ::
         :: HOMO-LUMO gap              1.210532353892 eV    ::
         :: SCC energy               -42.525265413829 Eh    ::
         :: -> dispersion             -0.021244534096 Eh    ::
         :: repulsion energy           0.511983155107 Eh    ::

    * Orbital Energies and Occupations

         #    Occupation            Energy/Eh            Energy/eV
      -------------------------------------------------------------
         1        2.0000           -0.9442350             -25.6939
       ...           ...                  ...                  ...
        25        2.0000           -0.6722907             -18.2940
        26        2.0000           -0.6580789             -17.9072
        27        2.0000           -0.6512247             -17.7207
        28        1.9999           -0.6436900             -17.5157
        29        1.9999           -0.6342064             -17.2576
        30        1.9997           -0.6247557             -17.0005
        31        1.9996           -0.6155440             -16.7498
        32        1.9993           -0.6081410             -16.5484
        33        1.9991           -0.6053982             -16.4737
        34        1.9977           -0.5893348             -16.0366
        35        1.9962           -0.5815908             -15.8259
        36        1.8671           -0.5243260             -14.2676
        37        1.6007           -0.5044723             -13.7274 (HOMO)
        38        0.3890           -0.4599860             -12.5169 (LUMO)
        39        0.1421           -0.4417867             -12.0216
        40        0.0072           -0.3935549             -10.7092
        41        0.0027           -0.3779317             -10.2840
        42        0.0000           -0.2480952              -6.7510
        43        0.0000           -0.2431949              -6.6177
        44                         -0.1946700              -5.2972
        45                         -0.1604734              -4.3667
        46                         -0.1084005              -2.9497
        47                         -0.0824744              -2.2442
        48                         -0.0634607              -1.7269
       ...                                ...                  ...
        67                          0.9580359              26.0695
      -------------------------------------------------------------
                  HL-Gap            0.0444862 Eh            1.2105 eV

     #   Z          covCN         q      C6AA      α(0)
     1   6 C        3.689    -0.049    21.643     6.659
     2   7 N        2.747    -0.102    23.232     7.159
     3   6 C        4.157     0.097    18.906     6.175
     4   7 N        2.906    -0.119    23.589     7.213
     5   6 C        3.279     0.134    23.783     7.850
     6   6 C        3.084    -0.128    31.158     9.150
     7   6 C        1.812     0.318    24.055     7.925
     8   8 O        0.856    -0.099    16.505     5.447
     9   7 N        2.721    -0.029    21.806     6.935
    10   6 C        3.695    -0.081    22.232     6.745
    11   6 C        2.729     0.312    21.701     7.627
    12   8 O        0.857    -0.307    19.900     5.981
    13   7 N        2.731    -0.027    21.765     6.929
    14   6 C        3.711    -0.075    22.077     6.715
    15   1 H        0.924     0.070     2.085     2.258
    16   1 H        0.925     0.086     1.921     2.168
    17   1 H        0.925     0.083     1.944     2.180
    18   1 H        0.926     0.071     2.071     2.251
    19   1 H        0.925     0.107     1.724     2.053
    20   1 H        0.925     0.114     1.659     2.014
    21   1 H        0.923     0.122     1.595     1.975
    22   1 H        0.924     0.095     1.830     2.115
    23   1 H        0.924     0.092     1.862     2.134
    24   1 H        0.925     0.120     1.610     1.984
    25   1 H        0.860     0.193     1.142     1.674

Wiberg/Mayer (AO) data.
largest (>0.10) Wiberg bond orders for each atom

     #   Z sym  total        # sym  WBO       # sym  WBO       # sym  WBO
 ---------------------------------------------------------------------------
     1   6 C    3.943 --     2 N    1.024    17 H    0.967    16 H    0.961
                            15 H    0.954
     2   7 N    3.001 --     1 C    1.024     3 C    0.953     6 C    0.917
     3   6 C    3.809 --     4 N    0.971    18 H    0.958     2 N    0.953
                             6 C    0.859
     4   7 N    3.427 --     5 C    1.329     3 C    0.971    25 H    0.923
     5   6 C    3.739 --     4 N    1.329    13 N    1.208     6 C    1.061
     6   6 C    3.052 --     5 C    1.061     2 N    0.917     3 C    0.859
     7   6 C    3.694 --     8 O    2.077     9 N    1.521
     8   8 O    2.373 --     7 C    2.077     9 N    0.221
     9   7 N    3.557 --     7 C    1.521    10 C    0.917    11 C    0.796
                             8 O    0.221
    10   6 C    3.858 --    19 H    0.974    20 H    0.965    21 H    0.932
                             9 N    0.917
    11   6 C    3.819 --    12 O    1.765    13 N    1.151     9 N    0.796
    12   8 O    2.070 --    11 C    1.765    13 N    0.135
    13   7 N    3.593 --     5 C    1.208    11 C    1.151    14 C    0.948
                            12 O    0.135
    14   6 C    3.912 --    22 H    0.973    23 H    0.969    24 H    0.967
                            13 N    0.948
    15   1 H    0.963 --     1 C    0.954
    16   1 H    0.984 --     1 C    0.961
    17   1 H    0.988 --     1 C    0.967
    18   1 H    0.990 --     3 C    0.958
    19   1 H    0.987 --    10 C    0.974
    20   1 H    0.986 --    10 C    0.965
    21   1 H    0.984 --    10 C    0.932
    22   1 H    0.990 --    14 C    0.973
    23   1 H    0.990 --    14 C    0.969
    24   1 H    0.984 --    14 C    0.967
    25   1 H    0.957 --     4 N    0.923
 ---------------------------------------------------------------------------

molecular dipole:
                 x           y           z       tot (Debye)
 q only:        0.505      -0.218       0.036
   full:        0.896      -0.614      -0.079       2.768

           -------------------------------------------------
          | TOTAL ENERGY              -42.013015685175 Eh   |
          | GRADIENT NORM               0.003678448153 Eh/α |
          | HOMO-LUMO GAP               1.210532353892 eV   |
           -------------------------------------------------

 * finished run on 2024/06/05 at 19:59:15.086
