   * xtb version 6.6.1 (8d0f1dd) compiled by 'conda@1efc2f54142f' on 2023-08-01
          program call               : xtb struc.xyz --opt loose --input .xc1 --gfn2

   ID    Z sym.   atoms
    1    6 C      1, 3, 5-7, 10, 11, 14
    2    7 N      2, 4, 9, 13
    3    8 O      8, 12
    4    1 H      15-25
constraining bond 3 23 to    5.7133300 Å, actual value:    4.3244957 Å

          :  Hamiltonian                  GFN2-xTB          :
 * total energy  :   -45.6919012 Eh     change       -0.6650680E-10 Eh
 * total energy  :   -50.1156731 Eh     change       -0.4423772E+01 Eh
 * total energy  :   -55.8289596 Eh     change       -0.5713287E+01 Eh
 * total energy  :   -63.1049372 Eh     change       -0.7275978E+01 Eh
 * total energy  :   -72.3071703 Eh     change       -0.9202233E+01 Eh
 * total energy  :   -83.4595133 Eh     change       -0.1115234E+02 Eh
 * total energy  :   -83.5069877 Eh     change       -0.4747434E-01 Eh
 * total energy  :   -88.5927584 Eh     change       -0.5085771E+01 Eh
 * total energy  :   -88.2560780 Eh     change        0.3366804E+00 Eh
 * total energy  :   -90.1889368 Eh     change       -0.1932859E+01 Eh
 * total energy  :   -90.5922213 Eh     change        0.4947766E-04 Eh
 * total energy  :   -90.5923742 Eh     change       -0.1529688E-03 Eh
 * total energy  :   -90.5924248 Eh     change       -0.5060014E-04 Eh
 * total energy  :   -90.5925228 Eh     change       -0.9792759E-04 Eh
 * total energy  :   -90.5925855 Eh     change       -0.6269395E-04 Eh
 * total energy  :   -90.5926063 Eh     change       -0.2084194E-04 Eh
 * total energy  :   -90.5926261 Eh     change       -0.1982238E-04 Eh
 * total energy  :   -90.5926356 Eh     change       -0.9475035E-05 Eh
 * total energy  :   -90.5926481 Eh     change       -0.1245142E-04 Eh
   *** GEOMETRY OPTIMIZATION CONVERGED AFTER 61 ITERATIONS ***

 final structure:
================
25
 xtb: 6.6.1 (8d0f1dd)
C            3.18238469834281        1.25869447394821        0.09783954089646
N            2.31941418276600        0.11804679142599        0.02842247629532
C            0.93747488168918       -2.30333109102138       -1.12619502390127
N            1.24236763599953       -2.36771564039802        0.24111513141821
C            0.38460280541330       -1.27453683625657       -0.14325911141257
C            0.99184111485356        0.06994382358861       -0.04090714261537
C            0.15648416407387        1.25617862617657       -0.08042348847914
O            0.58533985070752        2.39163784311814       -0.15248278237777
N           -1.22046783793940        1.02294598340716       -0.01844246877811
C           -2.10190757778353        2.18373390416629       -0.05658061061808
C           -1.85177422308783       -0.16860520613169        0.16361755505345
O           -3.03324246191253       -0.28681383481264        0.32531285113944
N           -1.02234323204409       -1.34988661284610        0.13882525265825
C           -1.64284423116801       -2.51140441055148        0.29775610817770
H            3.71608141839191        1.25542007374424        1.05141260765236
H            3.92485825477859        1.19711893810568       -0.70052345213956
H            2.61403197814263        2.18049110691271        0.00024245636719
H            2.78525051354915       -0.78513373549084        0.08072563770984
H           -1.48505589328505        3.07889325421687       -0.06682257955313
H           -2.72113049651625        2.14468842325941       -0.95249833774196
H           -2.75411075171341        2.17853278421292        0.81582756174058
H           -1.12031573396805       -3.44540378120526        0.21925214587478
H            0.96701481784091       -2.42954609713613       -1.45363682718066
H           -2.70423473865413       -2.48294921547706        0.47483477419262
H            1.01071237562455       -3.11276102335363        0.88775934351976

          :  Hamiltonian                  GFN2-xTB          :
         :: total energy             -90.592648061214 Eh    ::
         :: gradient norm              0.002415925802 Eh/a0 ::
         :: HOMO-LUMO gap              0.203795612303 eV    ::
         :: SCC energy               -42.599268095693 Eh    ::
         :: -> dispersion             -0.022491174030 Eh    ::
         :: repulsion energy           3.326349472441 Eh    ::

    * Orbital Energies and Occupations

         #    Occupation            Energy/Eh            Energy/eV
      -------------------------------------------------------------
         1        2.0000           -0.9049727             -24.6256
       ...           ...                  ...                  ...
        25        2.0000           -0.6769473             -18.4207
        26        1.9999           -0.6685822             -18.1930
        27        1.9999           -0.6527799             -17.7630
        28        1.9998           -0.6460599             -17.5802
        29        1.9996           -0.6369928             -17.3335
        30        1.9995           -0.6327693             -17.2185
        31        1.9991           -0.6233098             -16.9611
        32        1.9972           -0.6061343             -16.4938
        33        1.9961           -0.6008486             -16.3499
        34        1.9940           -0.5939378             -16.1619
        35        1.9764           -0.5721681             -15.5695
        36        1.9657           -0.5661497             -15.4057
        37        0.9446           -0.5003118             -13.6142 (HOMO)
        38        0.7161           -0.4928225             -13.4104 (LUMO)
        39        0.4112           -0.4806685             -13.0797
        40        0.0011           -0.3837473             -10.4423
        41        0.0001           -0.3364700              -9.1558
        42        0.0000           -0.2472524              -6.7281
        43                         -0.2183673              -5.9421
        44                         -0.1855844              -5.0500
        45                         -0.1639308              -4.4608
        46                         -0.1557784              -4.2389
        47                         -0.0721877              -1.9643
        48                         -0.0567763              -1.5450
       ...                                ...                  ...
        67                         18.8915542             514.0654
      -------------------------------------------------------------
                  HL-Gap            0.0074894 Eh            0.2038 eV

     #   Z          covCN         q      C6AA      α(0)
     1   6 C        3.686    -0.088    22.395     6.775
     2   7 N        2.688    -0.034    21.909     6.952
     3   6 C        2.816    -0.063    29.545     8.906
     4   7 N        2.683    -0.183    24.959     7.420
     5   6 C        3.796     0.128    18.513     6.127
     6   6 C        2.883     0.016    27.643     8.620
     7   6 C        2.764     0.259    22.643     7.793
     8   8 O        0.859    -0.355    20.805     6.115
     9   7 N        2.738    -0.073    22.651     7.069
    10   6 C        3.713    -0.065    21.890     6.685
    11   6 C        2.734     0.313    21.674     7.622
    12   8 O        0.859    -0.340    20.524     6.074
    13   7 N        2.733    -0.023    21.692     6.917
    14   6 C        2.805    -0.022    28.536     8.752
    15   1 H        0.924     0.111     1.692     2.034
    16   1 H        0.924     0.111     1.687     2.031
    17   1 H        0.925     0.138     1.472     1.897
    18   1 H        0.860     0.219     1.014     1.577
    19   1 H        0.925     0.120     1.610     1.984
    20   1 H        0.925     0.102     1.771     2.081
    21   1 H        0.925     0.105     1.739     2.062
    22   1 H        0.926     0.107     1.724     2.053
    23   1 H        0.935     0.161     1.317     1.794
    24   1 H        0.926     0.148     1.405     1.854
    25   1 H        0.860     0.207     1.069     1.619

Wiberg/Mayer (AO) data.
largest (>0.10) Wiberg bond orders for each atom

     #   Z sym  total        # sym  WBO       # sym  WBO       # sym  WBO
 ---------------------------------------------------------------------------
     1   6 C    3.903 --     2 N    1.015    17 H    0.952    16 H    0.944
                            15 H    0.940
     2   7 N    3.408 --     6 C    1.394     1 C    1.015    18 H    0.910
     3   6 C    3.082 --     4 N    1.152    23 H    0.969     5 C    0.869
     4   7 N    3.081 --     3 C    1.152     5 C    0.926    25 H    0.906
     5   6 C    3.902 --     6 C    1.031    13 N    0.978     4 N    0.926
                             3 C    0.869
     6   6 C    3.697 --     2 N    1.394     7 C    1.085     5 C    1.031
     7   6 C    3.893 --     8 O    1.645     6 C    1.085     9 N    1.076
     8   8 O    1.928 --     7 C    1.645     9 N    0.125
     9   7 N    3.536 --    11 C    1.168     7 C    1.076    10 C    0.965
                            12 O    0.143     8 O    0.125
    10   6 C    3.901 --     9 N    0.965    19 H    0.965    21 H    0.962
                            20 H    0.960
    11   6 C    3.917 --    12 O    1.712     9 N    1.168    13 N    0.953
    12   8 O    2.030 --    11 C    1.712     9 N    0.143
    13   7 N    3.539 --    14 C    1.424     5 C    0.978    11 C    0.953
    14   6 C    3.445 --    13 N    1.424    22 H    0.964    24 H    0.951
    15   1 H    0.967 --     1 C    0.940
    16   1 H    0.969 --     1 C    0.944
    17   1 H    0.978 --     1 C    0.952
    18   1 H    0.950 --     2 N    0.910
    19   1 H    0.983 --    10 C    0.965
    20   1 H    0.980 --    10 C    0.960
    21   1 H    0.981 --    10 C    0.962
    22   1 H    0.988 --    14 C    0.964
    23   1 H    0.973 --     3 C    0.969
    24   1 H    0.977 --    14 C    0.951
    25   1 H    0.928 --     4 N    0.906
 ---------------------------------------------------------------------------

molecular dipole:
                 x           y           z       tot (Debye)
 q only:        1.719      -1.635       0.090
   full:        1.692      -2.279       0.212       7.235

           -------------------------------------------------
          | TOTAL ENERGY              -90.592648061214 Eh   |
          | GRADIENT NORM               0.002415925802 Eh/α |
          | HOMO-LUMO GAP               0.203795612303 eV   |
           -------------------------------------------------

 * finished run on 2024/06/05 at 19:58:06.363
