   * xtb version 6.6.1 (8d0f1dd) compiled by 'conda@1efc2f54142f' on 2023-08-01
          program call               : xtb xtbopt.xyz --opt crude --input .xc2 --gfn2

   ID    Z sym.   atoms
    1    6 C      1, 3, 5-7, 10, 11, 14
    2    7 N      2, 4, 9, 13
    3    8 O      8, 12
    4    1 H      15-25
########################################################################
[WARNING] Please study the warnings concerning your input carefully
-1- readin_getIntValue: could not parse ''
########################################################################

          :  Hamiltonian                  GFN2-xTB          :
 * total energy  :   -39.2727459 Eh     change       -0.1989520E-12 Eh
 * total energy  :   -41.9669370 Eh     change       -0.2694191E+01 Eh
 * total energy  :   -42.0535038 Eh     change       -0.8656679E-01 Eh
 * total energy  :   -42.0566557 Eh     change       -0.3151942E-02 Eh
 * total energy  :   -42.0587312 Eh     change       -0.2075536E-02 Eh
 * total energy  :   -42.0576628 Eh     change        0.1068412E-02 Eh
 * total energy  :   -42.0612087 Eh     change       -0.3545904E-02 Eh
 * total energy  :   -42.0617356 Eh     change       -0.5268825E-03 Eh
 * total energy  :   -42.0621971 Eh     change       -0.4615234E-03 Eh
 * total energy  :   -42.0622571 Eh     change       -0.5995047E-04 Eh
 * total energy  :   -42.0623363 Eh     change       -0.7923421E-04 Eh
 * total energy  :   -42.0624761 Eh     change       -0.1397600E-03 Eh
 * total energy  :   -42.0627076 Eh     change       -0.2314926E-03 Eh
 * total energy  :   -42.0630089 Eh     change       -0.3013585E-03 Eh
 * total energy  :   -42.0633233 Eh     change       -0.3143815E-03 Eh
 * total energy  :   -42.0635898 Eh     change       -0.2664515E-03 Eh
   *** GEOMETRY OPTIMIZATION CONVERGED AFTER 16 ITERATIONS ***

 final structure:
================
25
 xtb: 6.6.1 (8d0f1dd)
C            3.18585034231527        1.29642902620517        0.01023762199637
N            2.32657917590438        0.15495116387716        0.06004670457977
C            1.10977389213776       -2.25329713664811       -0.93055228323041
N            1.23780858638621       -2.35599007120888        0.41696262879299
C            0.40741440113080       -1.24876144186399       -0.07066127613318
C            0.99906637372283        0.09890087367730        0.05389518583333
C            0.15685854782958        1.28152903660563        0.09792883821735
O            0.57574035479596        2.41925588029660        0.18133403272761
N           -1.21750724367717        1.04149346227896        0.02369623524670
C           -2.10474188277832        2.19824218174719       -0.01278199195744
C           -1.85018648954689       -0.16067616524474        0.04050798451432
O           -3.04034403723091       -0.29319308942529        0.02653904904575
N           -1.00888157504986       -1.33879205829285        0.08937887922262
C           -1.64525433298766       -2.49744644305592        0.21207711124816
H            3.82158431401082        1.31895910680016        0.89671571992621
H            3.83654959623416        1.21239653818495       -0.86217146070129
H            2.60816236947433        2.21633271106253       -0.04274497613021
H            2.79775170289756       -0.74636951853540        0.06902104594364
H           -1.49648936257914        3.09053004679889       -0.14133347951138
H           -2.80839863137006        2.08694252228176       -0.83745062782893
H           -2.67068022824496        2.26556881782768        0.91768974586056
H           -1.11899066604226       -3.43072324207210        0.22024658594073
H            0.81139066223231       -2.95015039497497       -1.69842049324981
H           -2.71781887984501       -2.46624374637748        0.28335845441145
H            0.96519452438170       -3.12164951834253        1.02765238313330

          :  Hamiltonian                  GFN2-xTB          :
         :: total energy             -42.063589767378 Eh    ::
         :: gradient norm              0.009487733811 Eh/a0 ::
         :: HOMO-LUMO gap              0.324680644476 eV    ::
         :: SCC energy               -42.566003225273 Eh    ::
         :: -> dispersion             -0.022413890542 Eh    ::
         :: repulsion energy           0.502247519013 Eh    ::

    * Orbital Energies and Occupations

         #    Occupation            Energy/Eh            Energy/eV
      -------------------------------------------------------------
         1        2.0000           -0.8968444             -24.4044
       ...           ...                  ...                  ...
        25        2.0000           -0.6761841             -18.3999
        26        1.9999           -0.6662157             -18.1287
        27        1.9998           -0.6500344             -17.6883
        28        1.9997           -0.6414309             -17.4542
        29        1.9996           -0.6349067             -17.2767
        30        1.9995           -0.6321704             -17.2022
        31        1.9988           -0.6191496             -16.8479
        32        1.9974           -0.6065247             -16.5044
        33        1.9959           -0.5997473             -16.3200
        34        1.9943           -0.5942497             -16.1704
        35        1.9774           -0.5724209             -15.5764
        36        1.9652           -0.5654819             -15.3875
        37        1.0561           -0.5033711             -13.6974 (HOMO)
        38        0.6900           -0.4914393             -13.3727 (LUMO)
        39        0.3252           -0.4756401             -12.9428
        40        0.0012           -0.3836096             -10.4385
        41        0.0001           -0.3340341              -9.0895
        42                         -0.2341247              -6.3709
        43                         -0.2152638              -5.8576
        44                         -0.1790973              -4.8735
        45                         -0.1631307              -4.4390
        46                         -0.1531032              -4.1661
        47                         -0.0838064              -2.2805
        48                         -0.0614071              -1.6710
       ...                                ...                  ...
        67                          0.5310191              14.4498
      -------------------------------------------------------------
                  HL-Gap            0.0119318 Eh            0.3247 eV

     #   Z          covCN         q      C6AA      α(0)
     1   6 C        3.686    -0.089    22.408     6.777
     2   7 N        2.689    -0.030    21.820     6.938
     3   6 C        2.815    -0.034    28.826     8.797
     4   7 N        2.678    -0.153    24.307     7.322
     5   6 C        3.796     0.130    18.476     6.121
     6   6 C        2.883     0.022    27.510     8.599
     7   6 C        2.764     0.259    22.631     7.791
     8   8 O        0.859    -0.354    20.778     6.111
     9   7 N        2.738    -0.072    22.629     7.065
    10   6 C        3.713    -0.065    21.874     6.683
    11   6 C        2.736     0.314    21.665     7.621
    12   8 O        0.859    -0.340    20.526     6.074
    13   7 N        2.733    -0.022    21.676     6.915
    14   6 C        2.806    -0.023    28.571     8.757
    15   1 H        0.924     0.113     1.670     2.021
    16   1 H        0.924     0.110     1.693     2.035
    17   1 H        0.925     0.138     1.479     1.902
    18   1 H        0.860     0.222     0.998     1.565
    19   1 H        0.925     0.120     1.617     1.988
    20   1 H        0.925     0.104     1.748     2.068
    21   1 H        0.924     0.102     1.762     2.076
    22   1 H        0.926     0.102     1.767     2.079
    23   1 H        0.926     0.100     1.784     2.089
    24   1 H        0.926     0.147     1.414     1.859
    25   1 H        0.860     0.197     1.124     1.661

Wiberg/Mayer (AO) data.
largest (>0.10) Wiberg bond orders for each atom

     #   Z sym  total        # sym  WBO       # sym  WBO       # sym  WBO
 ---------------------------------------------------------------------------
     1   6 C    3.904 --     2 N    1.017    17 H    0.952    16 H    0.942
                            15 H    0.941
     2   7 N    3.423 --     6 C    1.400     1 C    1.017    18 H    0.909
     3   6 C    3.115 --     4 N    1.205    23 H    0.939     5 C    0.860
     4   7 N    3.108 --     3 C    1.205    25 H    0.906     5 C    0.883
     5   6 C    3.884 --     6 C    1.039    13 N    0.991     4 N    0.883
                             3 C    0.860
     6   6 C    3.717 --     2 N    1.400     7 C    1.085     5 C    1.039
     7   6 C    3.895 --     8 O    1.648     6 C    1.085     9 N    1.076
     8   8 O    1.932 --     7 C    1.648     9 N    0.125
     9   7 N    3.542 --    11 C    1.173     7 C    1.076    10 C    0.964
                            12 O    0.145     8 O    0.125
    10   6 C    3.902 --    19 H    0.965     9 N    0.964    20 H    0.963
                            21 H    0.959
    11   6 C    3.917 --    12 O    1.714     9 N    1.173    13 N    0.946
    12   8 O    2.033 --    11 C    1.714     9 N    0.145
    13   7 N    3.549 --    14 C    1.419     5 C    0.991    11 C    0.946
    14   6 C    3.442 --    13 N    1.419    22 H    0.965    24 H    0.951
    15   1 H    0.968 --     1 C    0.941
    16   1 H    0.969 --     1 C    0.942
    17   1 H    0.978 --     1 C    0.952
    18   1 H    0.948 --     2 N    0.909
    19   1 H    0.983 --    10 C    0.965
    20   1 H    0.982 --    10 C    0.963
    21   1 H    0.980 --    10 C    0.959
    22   1 H    0.989 --    14 C    0.965
    23   1 H    0.959 --     3 C    0.939
    24   1 H    0.977 --    14 C    0.951
    25   1 H    0.929 --     4 N    0.906
 ---------------------------------------------------------------------------

molecular dipole:
                 x           y           z       tot (Debye)
 q only:        1.742      -1.562       0.030
   full:        1.588      -2.351       0.131       7.219

           -------------------------------------------------
          | TOTAL ENERGY              -42.063589767378 Eh   |
          | GRADIENT NORM               0.009487733811 Eh/α |
          | HOMO-LUMO GAP               0.324680644476 eV   |
           -------------------------------------------------

 * finished run on 2024/06/05 at 19:58:06.974
