   * xtb version 6.6.1 (8d0f1dd) compiled by 'conda@1efc2f54142f' on 2023-08-01
          program call               : xtb struc.xyz --opt loose --input .xc1 --gfn2

   ID    Z sym.   atoms
    1    6 C      1, 3, 5-7, 10, 11, 14
    2    7 N      2, 4, 9, 13
    3    8 O      8, 12
    4    1 H      15-25
constraining bond 12 21 to    4.6333300 Å, actual value:    2.6132888 Å

          :  Hamiltonian                  GFN2-xTB          :
 * total energy  :   -49.5338409 Eh     change       -0.6650680E-10 Eh
 * total energy  :   -55.8779048 Eh     change       -0.6344064E+01 Eh
 * total energy  :   -64.1203631 Eh     change       -0.8242458E+01 Eh
 * total energy  :   -71.9235494 Eh     change       -0.7803186E+01 Eh
 * total energy  :   -71.1045220 Eh     change        0.8190274E+00 Eh
 * total energy  :   -71.9853867 Eh     change       -0.8808647E+00 Eh
 * total energy  :   -72.0218898 Eh     change       -0.3650311E-01 Eh
 * total energy  :   -72.0686611 Eh     change       -0.4677131E-01 Eh
 * total energy  :   -72.0902882 Eh     change       -0.2162713E-01 Eh
 * total energy  :   -72.1336290 Eh     change       -0.4334079E-01 Eh
 * total energy  :   -72.2205372 Eh     change       -0.3837292E-04 Eh
 * total energy  :   -72.2206002 Eh     change       -0.6304120E-04 Eh
 * total energy  :   -72.2206245 Eh     change       -0.2427404E-04 Eh
 * total energy  :   -72.2206615 Eh     change       -0.3702305E-04 Eh
 * total energy  :   -72.2206894 Eh     change       -0.2788289E-04 Eh
 * total energy  :   -72.2207185 Eh     change       -0.2913302E-04 Eh
 * total energy  :   -72.2204682 Eh     change        0.2503140E-03 Eh
 * total energy  :   -72.2207419 Eh     change       -0.2737058E-03 Eh
 * total energy  :   -72.2207500 Eh     change       -0.8131405E-05 Eh
   *** GEOMETRY OPTIMIZATION CONVERGED AFTER 46 ITERATIONS ***

 final structure:
================
25
 xtb: 6.6.1 (8d0f1dd)
C            3.31165969210200        1.10400708432969       -0.02600297703012
N            2.31243857905477        0.07122168842808       -0.01106930689202
C            2.53263394066664       -1.24953747892151        0.02487923796820
N            1.34491747163433       -1.91233648955444        0.04572573602508
C            0.34510180835601       -0.98435931826809        0.02538794293067
C            0.94458974352190        0.27730220074938       -0.01034703757384
C            0.21316178763903        1.48778385462494       -0.05785647460404
O            0.62038219339555        2.62739637170987       -0.10324150942586
N           -1.24364808716908        1.23622841099273       -0.04703951421289
C           -2.01035615658901        2.33141691098803       -0.09242256527538
C           -1.76902080876164       -0.01650402227491        0.00977411508594
O           -3.10838479795893       -0.18503526017778        0.04739049191469
N           -0.99283894155315       -1.15500353508175        0.03399289865588
C           -1.57957039709739       -2.47929150154896        0.06140716285817
H            3.82670138759916        1.14977040903504        0.93497214799308
H            4.04422879791571        0.90958655194702       -0.80866506650555
H            2.82221549340641        2.05915684193446       -0.20936659294286
H            3.49374344882249       -1.71864273554083        0.03287549522284
H           -1.50645163434473        3.27568361724389       -0.13019522981481
H           -3.07805230967786        2.26896900611298       -0.11824377312904
H           -3.40294123669283        0.07493252091573        0.15121043280547
H           -1.33091825109772       -2.98225605080247        0.99699820574312
H           -1.21260324832570       -3.06569735473871       -0.78139366785076
H           -2.65891701044853       -2.39210835731889       -0.01677828874408
H            1.24236004970269       -2.91444482318366        0.07917975469751

          :  Hamiltonian                  GFN2-xTB          :
         :: total energy             -72.220750047801 Eh    ::
         :: gradient norm              0.003932426351 Eh/a0 ::
         :: HOMO-LUMO gap              1.186716050537 eV    ::
         :: SCC energy               -42.726788654329 Eh    ::
         :: -> dispersion             -0.022961833289 Eh    ::
         :: repulsion energy           2.408582715449 Eh    ::

    * Orbital Energies and Occupations

         #    Occupation            Energy/Eh            Energy/eV
      -------------------------------------------------------------
         1        2.0000           -0.9130495             -24.8453
       ...           ...                  ...                  ...
        25        2.0000           -0.6650254             -18.0963
        26        2.0000           -0.6617924             -18.0083
        27        2.0000           -0.6511844             -17.7196
        28        2.0000           -0.6379678             -17.3600
        29        2.0000           -0.6303181             -17.1518
        30        2.0000           -0.6267272             -17.0541
        31        2.0000           -0.6168490             -16.7853
        32        2.0000           -0.6142146             -16.7136
        33        1.9999           -0.5955667             -16.2062
        34        1.9999           -0.5938704             -16.1600
        35        1.9982           -0.5523016             -15.0289
        36        1.9979           -0.5505839             -14.9822
        37        1.5595           -0.4616421             -12.5619 (HOMO)
        38        0.3678           -0.4180311             -11.3752 (LUMO)
        39        0.0487           -0.3831948             -10.4273
        40        0.0282           -0.3743825             -10.1875
        41        0.0001           -0.2744462              -7.4681
        42        0.0000           -0.2035914              -5.5400
        43        0.0000           -0.1841259              -5.0103
        44                         -0.1590701              -4.3285
        45                         -0.1232106              -3.3527
        46                         -0.0779132              -2.1201
        47                         -0.0390136              -1.0616
        48                         -0.0149937              -0.4080
       ...                                ...                  ...
        67                          5.3346673             145.1637
      -------------------------------------------------------------
                  HL-Gap            0.0436110 Eh            1.1867 eV

     #   Z          covCN         q      C6AA      α(0)
     1   6 C        3.691    -0.090    22.415     6.775
     2   7 N        2.821     0.061    20.183     6.672
     3   6 C        3.027     0.033    27.225     8.559
     4   7 N        2.777    -0.067    22.546     7.052
     5   6 C        3.049     0.086    26.051     8.371
     6   6 C        3.082    -0.027    28.588     8.765
     7   6 C        2.774     0.240    22.981     7.851
     8   8 O        0.857    -0.370    21.088     6.157
     9   7 N        2.736    -0.009    21.431     6.875
    10   6 C        2.812    -0.082    30.050     8.981
    11   6 C        2.803     0.194    23.857     8.002
    12   8 O        1.664    -0.378    20.419     6.100
    13   7 N        2.736    -0.016    21.564     6.897
    14   6 C        3.698    -0.082    22.234     6.744
    15   1 H        0.924     0.099     1.792     2.094
    16   1 H        0.925     0.097     1.812     2.105
    17   1 H        0.925     0.129     1.545     1.944
    18   1 H        0.927     0.112     1.678     2.026
    19   1 H        0.926     0.114     1.665     2.018
    20   1 H        0.927     0.073     2.053     2.241
    21   1 H        0.860     0.369     0.539     1.150
    22   1 H        0.924     0.090     1.879     2.144
    23   1 H        0.924     0.089     1.887     2.148
    24   1 H        0.925     0.117     1.635     2.000
    25   1 H        0.860     0.218     1.019     1.582

Wiberg/Mayer (AO) data.
largest (>0.10) Wiberg bond orders for each atom

     #   Z sym  total        # sym  WBO       # sym  WBO       # sym  WBO
 ---------------------------------------------------------------------------
     1   6 C    3.925 --     2 N    0.990    16 H    0.966    17 H    0.963
                            15 H    0.960
     2   7 N    3.581 --     3 C    1.332     6 C    1.129     1 C    0.990
     3   6 C    3.717 --     2 N    1.332     4 N    1.237    18 H    0.957
     4   7 N    3.525 --     3 C    1.237     5 C    1.183    25 H    0.925
     5   6 C    3.881 --     6 C    1.285    13 N    1.184     4 N    1.183
     6   6 C    3.889 --     5 C    1.285     7 C    1.167     2 N    1.129
     7   6 C    3.842 --     8 O    1.664     6 C    1.167     9 N    0.907
     8   8 O    1.968 --     7 C    1.664     9 N    0.102
     9   7 N    3.665 --    10 C    1.320    11 C    1.202     7 C    0.907
                             8 O    0.102
    10   6 C    3.541 --     9 N    1.320    20 H    0.973    19 H    0.962
                            11 C    0.145
    11   6 C    3.696 --     9 N    1.202    13 N    1.138    12 O    1.097
                            10 C    0.145
    12   8 O    2.127 --    11 C    1.097    21 H    0.856
    13   7 N    3.539 --     5 C    1.184    11 C    1.138    14 C    0.976
    14   6 C    3.929 --    13 N    0.976    23 H    0.970    22 H    0.969
                            24 H    0.969
    15   1 H    0.982 --     1 C    0.960
    16   1 H    0.985 --     1 C    0.966
    17   1 H    0.983 --     1 C    0.963
    18   1 H    0.986 --     3 C    0.957
    19   1 H    0.986 --    10 C    0.962
    20   1 H    0.994 --    10 C    0.973
    21   1 H    0.863 --    12 O    0.856
    22   1 H    0.987 --    14 C    0.969
    23   1 H    0.988 --    14 C    0.970
    24   1 H    0.986 --    14 C    0.969
    25   1 H    0.952 --     4 N    0.925
 ---------------------------------------------------------------------------

molecular dipole:
                 x           y           z       tot (Debye)
 q only:        0.793      -2.356       0.135
   full:        0.566      -2.717       0.203       7.073

           -------------------------------------------------
          | TOTAL ENERGY              -72.220750047801 Eh   |
          | GRADIENT NORM               0.003932426351 Eh/α |
          | HOMO-LUMO GAP               1.186716050537 eV   |
           -------------------------------------------------

 * finished run on 2024/06/05 at 20:00:12.239
