   * xtb version 6.6.1 (8d0f1dd) compiled by 'conda@1efc2f54142f' on 2023-08-01
          program call               : xtb xtbopt.xyz --opt crude --input .xc2 --gfn2

   ID    Z sym.   atoms
    1    6 C      1, 3, 5-7, 10, 11, 14
    2    7 N      2, 4, 9, 13
    3    8 O      8, 12
    4    1 H      15-25
########################################################################
[WARNING] Please study the warnings concerning your input carefully
-1- readin_getIntValue: could not parse ''
########################################################################

          :  Hamiltonian                  GFN2-xTB          :
 * total energy  :   -40.3180991 Eh     change       -0.1030287E-11 Eh
 * total energy  :   -42.1357446 Eh     change       -0.1817645E+01 Eh
 * total energy  :   -42.1657593 Eh     change       -0.3001473E-01 Eh
 * total energy  :   -42.1683648 Eh     change       -0.2605451E-02 Eh
 * total energy  :   -42.1691308 Eh     change       -0.7660675E-03 Eh
 * total energy  :   -42.1698541 Eh     change       -0.7232541E-03 Eh
 * total energy  :   -42.1709224 Eh     change       -0.1068277E-02 Eh
 * total energy  :   -42.1721445 Eh     change       -0.1222152E-02 Eh
 * total energy  :   -42.1730014 Eh     change       -0.8568673E-03 Eh
 * total energy  :   -42.1733497 Eh     change       -0.3483570E-03 Eh
 * total energy  :   -42.1735311 Eh     change       -0.1814027E-03 Eh
 * total energy  :   -42.1737073 Eh     change       -0.1761319E-03 Eh
 * total energy  :   -42.1739628 Eh     change       -0.2555489E-03 Eh
 * total energy  :   -42.1742372 Eh     change       -0.2743298E-03 Eh
 * total energy  :   -42.1744587 Eh     change       -0.2215214E-03 Eh
   *** GEOMETRY OPTIMIZATION CONVERGED AFTER 15 ITERATIONS ***

 final structure:
================
25
 xtb: 6.6.1 (8d0f1dd)
C            3.30432837959169        1.11443372057071        0.01177070969428
N            2.31868197380842        0.06800655535095        0.00705301348983
C            2.54958669666836       -1.25098809651996        0.02342418293729
N            1.36699986854347       -1.92285732646885        0.02291463036677
C            0.35932372241008       -1.00427479604682        0.00928134995510
C            0.94868820226305        0.26215121219188       -0.00349604601270
C            0.20564872753488        1.46694985770011       -0.04647446842225
O            0.60692567781156        2.61008964922445       -0.07167446424208
N           -1.24434901385909        1.20380277564305       -0.08404683619490
C           -2.01369167800362        2.29978193542538       -0.18239760053274
C           -1.75692760781945       -0.04702934258813        0.02609344371837
O           -3.08538666035000       -0.26272752241771        0.07056021191856
N           -0.97783716945237       -1.18237045057396        0.03123724470128
C           -1.56055192421440       -2.50874085442047        0.05352419428588
H            3.88587351818559        1.08525464863154        0.93512078260698
H            3.98277955427381        1.00239423934014       -0.83458797391506
H            2.79142240004214        2.07277796893918       -0.05848177997347
H            3.51344946452559       -1.71487457341423        0.03142887027043
H           -1.50745972233203        3.24309469957039       -0.20440402645655
H           -3.07444592069386        2.23433413260433       -0.32231729864115
H           -3.57612604264357        0.50130916736417        0.40042236847875
H           -1.19668387492568       -3.06214252983568        0.92046353895281
H           -1.30495583456938       -3.04524620508267       -0.86141054312558
H           -2.64116908472808       -2.41890689661229        0.11693068586881
H            1.26630786203311       -2.92598342697564        0.04023742817074

          :  Hamiltonian                  GFN2-xTB          :
         :: total energy             -42.174458675857 Eh    ::
         :: gradient norm              0.007580323161 Eh/a0 ::
         :: HOMO-LUMO gap              1.201174081063 eV    ::
         :: SCC energy               -42.690225864685 Eh    ::
         :: -> dispersion             -0.022939695344 Eh    ::
         :: repulsion energy           0.515660610998 Eh    ::

    * Orbital Energies and Occupations

         #    Occupation            Energy/Eh            Energy/eV
      -------------------------------------------------------------
         1        2.0000           -0.8885285             -24.1781
       ...           ...                  ...                  ...
        25        2.0000           -0.6660080             -18.1230
        26        2.0000           -0.6608573             -17.9828
        27        2.0000           -0.6526303             -17.7590
        28        2.0000           -0.6404888             -17.4286
        29        2.0000           -0.6286777             -17.1072
        30        2.0000           -0.6243409             -16.9892
        31        2.0000           -0.6154697             -16.7478
        32        2.0000           -0.6140768             -16.7099
        33        1.9999           -0.5963923             -16.2287
        34        1.9999           -0.5955598             -16.2060
        35        1.9981           -0.5523708             -15.0308
        36        1.9979           -0.5506874             -14.9850
        37        1.5650           -0.4625642             -12.5870 (HOMO)
        38        0.3627           -0.4184218             -11.3858 (LUMO)
        39        0.0486           -0.3838310             -10.4446
        40        0.0280           -0.3749296             -10.2024
        41        0.0001           -0.2751691              -7.4877
        42        0.0000           -0.2036059              -5.5404
        43        0.0000           -0.1859564              -5.0601
        44                         -0.1577712              -4.2932
        45                         -0.1231170              -3.3502
        46                         -0.1036988              -2.8218
        47                         -0.0481831              -1.3111
        48                         -0.0349816              -0.9519
       ...                                ...                  ...
        67                          0.5533566              15.0576
      -------------------------------------------------------------
                  HL-Gap            0.0441423 Eh            1.2012 eV

     #   Z          covCN         q      C6AA      α(0)
     1   6 C        3.690    -0.090    22.418     6.776
     2   7 N        2.821     0.060    20.191     6.674
     3   6 C        3.027     0.035    27.199     8.555
     4   7 N        2.779    -0.067    22.545     7.052
     5   6 C        3.048     0.086    26.036     8.369
     6   6 C        3.084    -0.027    28.581     8.764
     7   6 C        2.776     0.241    22.963     7.849
     8   8 O        0.857    -0.373    21.150     6.166
     9   7 N        2.736    -0.015    21.542     6.893
    10   6 C        2.810    -0.090    30.243     9.010
    11   6 C        2.752     0.203    23.677     7.968
    12   8 O        1.660    -0.356    20.006     6.038
    13   7 N        2.736    -0.013    21.512     6.889
    14   6 C        3.697    -0.077    22.147     6.731
    15   1 H        0.924     0.098     1.803     2.100
    16   1 H        0.924     0.098     1.807     2.102
    17   1 H        0.925     0.129     1.540     1.941
    18   1 H        0.927     0.112     1.677     2.025
    19   1 H        0.926     0.114     1.662     2.016
    20   1 H        0.926     0.068     2.112     2.272
    21   1 H        0.805     0.349     0.590     1.207
    22   1 H        0.924     0.086     1.922     2.168
    23   1 H        0.924     0.089     1.890     2.150
    24   1 H        0.925     0.122     1.598     1.977
    25   1 H        0.860     0.218     1.018     1.581

Wiberg/Mayer (AO) data.
largest (>0.10) Wiberg bond orders for each atom

     #   Z sym  total        # sym  WBO       # sym  WBO       # sym  WBO
 ---------------------------------------------------------------------------
     1   6 C    3.924 --     2 N    0.990    16 H    0.964    17 H    0.963
                            15 H    0.961
     2   7 N    3.583 --     3 C    1.333     6 C    1.129     1 C    0.990
     3   6 C    3.719 --     2 N    1.333     4 N    1.238    18 H    0.957
     4   7 N    3.527 --     3 C    1.238     5 C    1.184    25 H    0.924
     5   6 C    3.883 --     6 C    1.288     4 N    1.184    13 N    1.184
     6   6 C    3.890 --     5 C    1.288     7 C    1.166     2 N    1.129
     7   6 C    3.844 --     8 O    1.661     6 C    1.166     9 N    0.913
     8   8 O    1.967 --     7 C    1.661     9 N    0.102
     9   7 N    3.660 --    10 C    1.302    11 C    1.211     7 C    0.913
                             8 O    0.102
    10   6 C    3.529 --     9 N    1.302    20 H    0.966    19 H    0.961
                            11 C    0.145
    11   6 C    3.715 --     9 N    1.211    13 N    1.144    12 O    1.103
                            10 C    0.145
    12   8 O    2.110 --    11 C    1.103    21 H    0.841
    13   7 N    3.543 --     5 C    1.184    11 C    1.144    14 C    0.975
    14   6 C    3.928 --    13 N    0.975    22 H    0.971    23 H    0.969
                            24 H    0.968
    15   1 H    0.983 --     1 C    0.961
    16   1 H    0.984 --     1 C    0.964
    17   1 H    0.983 --     1 C    0.963
    18   1 H    0.986 --     3 C    0.957
    19   1 H    0.986 --    10 C    0.961
    20   1 H    0.994 --    10 C    0.966
    21   1 H    0.875 --    12 O    0.841
    22   1 H    0.989 --    14 C    0.971
    23   1 H    0.987 --    14 C    0.969
    24   1 H    0.985 --    14 C    0.968
    25   1 H    0.952 --     4 N    0.924
 ---------------------------------------------------------------------------

molecular dipole:
                 x           y           z       tot (Debye)
 q only:        0.702      -2.165       0.254
   full:        0.619      -2.502       0.304       6.596

           -------------------------------------------------
          | TOTAL ENERGY              -42.174458675857 Eh   |
          | GRADIENT NORM               0.007580323161 Eh/α |
          | HOMO-LUMO GAP               1.201174081063 eV   |
           -------------------------------------------------

 * finished run on 2024/06/05 at 20:00:12.822
