   * xtb version 6.6.1 (8d0f1dd) compiled by 'conda@1efc2f54142f' on 2023-08-01
          program call               : xtb xtbopt.xyz --opt crude --input .xc2 --gfn2

   ID    Z sym.   atoms
    1    6 C      1, 3, 5-7, 10, 11, 14
    2    7 N      2, 4, 9, 13
    3    8 O      8, 12
    4    1 H      15-25
########################################################################
[WARNING] Please study the warnings concerning your input carefully
-1- readin_getIntValue: could not parse ''
########################################################################

          :  Hamiltonian                  GFN2-xTB          :
 * total energy  :   -42.0130972 Eh     change       -0.3552714E-12 Eh
   *** GEOMETRY OPTIMIZATION CONVERGED AFTER 1 ITERATIONS ***

 final structure:
================
25
 xtb: 6.6.1 (8d0f1dd)
C            3.25456289951321        1.20996199631320        0.31049837509956
N            2.25838727645176        0.23185218469788        0.00567505465602
C            2.17507385903338       -0.98330585158922        0.77445463615824
N            1.24489812845448       -1.89505293250028        0.13065385013392
C            0.27198380850483       -0.97130969240619        0.07745172887939
C            1.06604746473133        0.05680157710969        0.81306132934757
C           -1.61420117199406        1.67156181706719       -1.67570402083674
O           -1.71072511056956        1.96608594170594       -2.78192514081908
N           -1.49511972962214        1.17177210698316       -0.52729493233332
C           -1.26383521290431        1.94340843880109        0.69759763061863
C           -1.99969920399643       -0.24661258705079       -0.38190553417209
O           -3.17304153939879       -0.44981807531910       -0.45828305901697
N           -1.01456439727014       -1.19080349780259       -0.26031146302182
C           -1.43374104124176       -2.58139654800539       -0.45674991974326
H            3.47703297575816        1.27890621918909        1.38113946350142
H            4.16592447867284        0.94213224243829       -0.22452121860910
H            2.90780891335601        2.17959729985878       -0.04432743105375
H            2.91159332736597       -1.31493364924240        1.48115619086643
H           -1.02534034271890        2.97289290769888        0.44244081581874
H           -2.15945764617724        1.91533662539122        1.31768488304007
H           -0.41643989703316        1.48386176123390        1.22346252446283
H           -1.07369764912300       -3.19523024840934        0.36737030975951
H           -1.04260382590840       -2.95938519983118       -1.40168959038299
H           -2.52076115616911       -2.61767995667239       -0.48289659115164
H            1.37034630637773       -2.80040433805952       -0.29586627329730

          :  Hamiltonian                  GFN2-xTB          :
         :: total energy             -42.013097234699 Eh    ::
         :: gradient norm              0.004830938899 Eh/a0 ::
         :: HOMO-LUMO gap              1.203176341364 eV    ::
         :: SCC energy               -42.525396869014 Eh    ::
         :: -> dispersion             -0.021204851224 Eh    ::
         :: repulsion energy           0.512041849803 Eh    ::

    * Orbital Energies and Occupations

         #    Occupation            Energy/Eh            Energy/eV
      -------------------------------------------------------------
         1        2.0000           -0.9438458             -25.6834
       ...           ...                  ...                  ...
        25        2.0000           -0.6721146             -18.2892
        26        2.0000           -0.6581093             -17.9081
        27        2.0000           -0.6510450             -17.7158
        28        1.9999           -0.6436423             -17.5144
        29        1.9999           -0.6344240             -17.2636
        30        1.9997           -0.6246467             -16.9975
        31        1.9995           -0.6153315             -16.7440
        32        1.9993           -0.6082188             -16.5505
        33        1.9991           -0.6052668             -16.4701
        34        1.9976           -0.5892158             -16.0334
        35        1.9962           -0.5816504             -15.8275
        36        1.8657           -0.5242936             -14.2668
        37        1.5996           -0.5045671             -13.7300 (HOMO)
        38        0.3933           -0.4603512             -12.5268 (LUMO)
        39        0.1406           -0.4417527             -12.0207
        40        0.0070           -0.3931622             -10.6985
        41        0.0026           -0.3773215             -10.2674
        42        0.0000           -0.2480078              -6.7486
        43        0.0000           -0.2428323              -6.6078
        44                         -0.1953301              -5.3152
        45                         -0.1606325              -4.3710
        46                         -0.1091093              -2.9690
        47                         -0.0839684              -2.2849
        48                         -0.0645341              -1.7561
       ...                                ...                  ...
        67                          0.9567080              26.0334
      -------------------------------------------------------------
                  HL-Gap            0.0442159 Eh            1.2032 eV

     #   Z          covCN         q      C6AA      α(0)
     1   6 C        3.689    -0.049    21.642     6.658
     2   7 N        2.746    -0.102    23.232     7.159
     3   6 C        4.157     0.097    18.901     6.175
     4   7 N        2.904    -0.120    23.607     7.216
     5   6 C        3.278     0.135    23.781     7.851
     6   6 C        3.083    -0.128    31.174     9.153
     7   6 C        1.813     0.318    24.058     7.926
     8   8 O        0.856    -0.099    16.505     5.447
     9   7 N        2.721    -0.029    21.806     6.935
    10   6 C        3.695    -0.082    22.241     6.747
    11   6 C        2.729     0.312    21.706     7.627
    12   8 O        0.857    -0.306    19.895     5.980
    13   7 N        2.731    -0.026    21.751     6.927
    14   6 C        3.712    -0.075    22.082     6.715
    15   1 H        0.924     0.070     2.086     2.259
    16   1 H        0.924     0.086     1.922     2.168
    17   1 H        0.925     0.084     1.941     2.179
    18   1 H        0.926     0.071     2.071     2.251
    19   1 H        0.925     0.107     1.722     2.052
    20   1 H        0.925     0.114     1.660     2.015
    21   1 H        0.923     0.122     1.599     1.977
    22   1 H        0.925     0.095     1.828     2.114
    23   1 H        0.924     0.092     1.860     2.133
    24   1 H        0.925     0.121     1.609     1.984
    25   1 H        0.860     0.193     1.142     1.674

Wiberg/Mayer (AO) data.
largest (>0.10) Wiberg bond orders for each atom

     #   Z sym  total        # sym  WBO       # sym  WBO       # sym  WBO
 ---------------------------------------------------------------------------
     1   6 C    3.943 --     2 N    1.024    17 H    0.967    16 H    0.961
                            15 H    0.954
     2   7 N    3.001 --     1 C    1.024     3 C    0.955     6 C    0.915
     3   6 C    3.809 --     4 N    0.970    18 H    0.958     2 N    0.955
                             6 C    0.860
     4   7 N    3.425 --     5 C    1.328     3 C    0.970    25 H    0.922
     5   6 C    3.740 --     4 N    1.328    13 N    1.211     6 C    1.060
     6   6 C    3.049 --     5 C    1.060     2 N    0.915     3 C    0.860
     7   6 C    3.693 --     8 O    2.077     9 N    1.520
     8   8 O    2.373 --     7 C    2.077     9 N    0.220
     9   7 N    3.557 --     7 C    1.520    10 C    0.918    11 C    0.796
                             8 O    0.220
    10   6 C    3.858 --    19 H    0.973    20 H    0.965    21 H    0.930
                             9 N    0.918
    11   6 C    3.817 --    12 O    1.765    13 N    1.149     9 N    0.796
    12   8 O    2.069 --    11 C    1.765    13 N    0.134
    13   7 N    3.594 --     5 C    1.211    11 C    1.149    14 C    0.948
                            12 O    0.134
    14   6 C    3.912 --    22 H    0.973    23 H    0.969    24 H    0.967
                            13 N    0.948
    15   1 H    0.963 --     1 C    0.954
    16   1 H    0.984 --     1 C    0.961
    17   1 H    0.988 --     1 C    0.967
    18   1 H    0.990 --     3 C    0.958
    19   1 H    0.987 --    10 C    0.973
    20   1 H    0.986 --    10 C    0.965
    21   1 H    0.984 --    10 C    0.930
    22   1 H    0.990 --    14 C    0.973
    23   1 H    0.990 --    14 C    0.969
    24   1 H    0.984 --    14 C    0.967
    25   1 H    0.957 --     4 N    0.922
 ---------------------------------------------------------------------------

molecular dipole:
                 x           y           z       tot (Debye)
 q only:        0.504      -0.216       0.060
   full:        0.897      -0.614      -0.039       2.765

           -------------------------------------------------
          | TOTAL ENERGY              -42.013097234699 Eh   |
          | GRADIENT NORM               0.004830938899 Eh/α |
          | HOMO-LUMO GAP               1.203176341364 eV   |
           -------------------------------------------------

 * finished run on 2024/06/05 at 19:57:57.798
