   * xtb version 6.6.1 (8d0f1dd) compiled by 'conda@1efc2f54142f' on 2023-08-01
          program call               : xtb struc.xyz --opt loose --input .xc1 --gfn2

   ID    Z sym.   atoms
    1    6 C      1, 3, 5-7, 10, 11, 14
    2    7 N      2, 4, 9, 13
    3    8 O      8, 12
    4    1 H      15-25
constraining bond 5 8 to    5.7600000 Å, actual value:    3.6017282 Å

          :  Hamiltonian                  GFN2-xTB          :
 * total energy  :   -25.6133525 Eh     change       -0.6650680E-10 Eh
 * total energy  :   -33.4962710 Eh     change       -0.7882918E+01 Eh
 * total energy  :   -38.4341513 Eh     change       -0.4937880E+01 Eh
 * total energy  :   -40.9317418 Eh     change       -0.2497590E+01 Eh
 * total energy  :   -41.6560604 Eh     change       -0.7243186E+00 Eh
 * total energy  :   -41.7061503 Eh     change       -0.5008992E-01 Eh
 * total energy  :   -41.7197418 Eh     change       -0.1359149E-01 Eh
 * total energy  :   -41.7606581 Eh     change       -0.4091632E-01 Eh
 * total energy  :   -41.7734091 Eh     change       -0.1275103E-01 Eh
 * total energy  :   -41.7940792 Eh     change       -0.2067008E-01 Eh
 * total energy  :   -42.1108904 Eh     change       -0.3867939E-03 Eh
 * total energy  :   -42.1114801 Eh     change       -0.5896914E-03 Eh
 * total energy  :   -42.1122120 Eh     change       -0.7318246E-03 Eh
 * total energy  :   -42.1130170 Eh     change       -0.8050194E-03 Eh
 * total energy  :   -42.1135971 Eh     change       -0.5801615E-03 Eh
 * total energy  :   -42.1140030 Eh     change       -0.4058446E-03 Eh
 * total energy  :   -42.1142347 Eh     change       -0.2317515E-03 Eh
 * total energy  :   -42.1143376 Eh     change       -0.1028361E-03 Eh
 * total energy  :   -42.1143698 Eh     change       -0.3219282E-04 Eh
   *** GEOMETRY OPTIMIZATION CONVERGED AFTER 72 ITERATIONS ***

 final structure:
================
25
 xtb: 6.6.1 (8d0f1dd)
C            3.37171681397660        0.87639139128350        0.02910762845679
N            2.40827312888092       -0.18842638752093       -0.00025820943638
C            2.67210110535404       -1.49277901034376       -0.04724028253164
N            1.51492633195340       -2.21325806149296       -0.04372949471763
C            0.49992850195147       -1.33762531246239        0.00916829553632
C            1.03952201235063       -0.01487180350361        0.03738711623804
C            0.31764365141655        1.21300318655969        0.07140104536849
O           -2.15495338498057        3.74785009341417        0.30990329487717
N           -1.01632892562191        1.14546691428261        0.11197298382278
C           -2.16412265399182        2.37119527222096       -0.01419036279798
C           -1.65359840048504       -0.12194694924161        0.09971510430553
O           -2.84761223418527       -0.23961026166565        0.11757926006459
N           -0.86053805767091       -1.34155240983427        0.04598668620282
C           -1.59123408193002       -2.59802916476982        0.02843225501243
H            3.87389913161472        0.91133084664412        0.99700238369316
H            4.11932545130922        0.73702513879417       -0.75053969515616
H            2.84076049048216        1.81356789198927       -0.12780140653759
H            3.65046103697153       -1.92736191241098       -0.08218898604499
H           -1.62006920155351        4.25647052486971       -0.31211453007401
H           -2.40992546031365        2.22967067682178       -1.07015980908294
H           -2.93614152436868        1.93939935082618        0.62221571709829
H           -1.33208764050860       -3.19479172987339        0.90348457741627
H           -1.36203970896590       -3.15239447615679       -0.88207921637847
H           -2.65705427671540       -2.37847883496921        0.05182832193382
H            1.45757940913002       -3.22200643186106       -0.07371105936863

          :  Hamiltonian                  GFN2-xTB          :
         :: total energy             -42.114369762858 Eh    ::
         :: gradient norm              0.002957802784 Eh/a0 ::
         :: HOMO-LUMO gap              1.631828617326 eV    ::
         :: SCC energy               -42.595379175073 Eh    ::
         :: -> dispersion             -0.021534394941 Eh    ::
         :: repulsion energy           0.480110325582 Eh    ::

    * Orbital Energies and Occupations

         #    Occupation            Energy/Eh            Energy/eV
      -------------------------------------------------------------
         1        2.0000           -0.8978494             -24.4317
       ...           ...                  ...                  ...
        25        2.0000           -0.6597898             -17.9538
        26        2.0000           -0.6557230             -17.8431
        27        2.0000           -0.6466808             -17.5971
        28        1.9999           -0.6282497             -17.0955
        29        1.9999           -0.6268270             -17.0568
        30        1.9998           -0.6160436             -16.7634
        31        1.9998           -0.6114097             -16.6373
        32        1.9997           -0.6069430             -16.5158
        33        1.9990           -0.5884959             -16.0138
        34        1.9975           -0.5742495             -15.6261
        35        1.9951           -0.5637724             -15.3410
        36        1.9849           -0.5457144             -14.8496
        37        1.7350           -0.4982591             -13.5583 (HOMO)
        38        0.2583           -0.4382905             -11.9265 (LUMO)
        39        0.0257           -0.3997759             -10.8785
        40        0.0051           -0.3741168             -10.1802
        41        0.0004           -0.3316837              -9.0256
        42        0.0000           -0.2881848              -7.8419
        43        0.0000           -0.2087171              -5.6795
        44                         -0.1760701              -4.7911
        45                         -0.1403205              -3.8183
        46                         -0.0816725              -2.2224
        47                         -0.0783660              -2.1324
        48                         -0.0520194              -1.4155
       ...                                ...                  ...
        67                          0.5125487              13.9472
      -------------------------------------------------------------
                  HL-Gap            0.0599686 Eh            1.6318 eV

     #   Z          covCN         q      C6AA      α(0)
     1   6 C        3.692    -0.090    22.408     6.774
     2   7 N        2.822     0.067    20.067     6.653
     3   6 C        3.058     0.044    26.963     8.515
     4   7 N        2.760    -0.051    22.221     7.001
     5   6 C        3.042     0.113    25.470     8.278
     6   6 C        3.085     0.013    27.631     8.617
     7   6 C        1.914    -0.103    33.942     9.409
     8   8 O        1.654    -0.353    19.966     6.032
     9   7 N        2.672    -0.060    22.413     7.031
    10   6 C        3.541     0.117    19.655     6.496
    11   6 C        2.706     0.311    21.708     7.626
    12   8 O        0.858    -0.363    20.954     6.137
    13   7 N        2.746    -0.056    22.327     7.018
    14   6 C        3.696    -0.069    22.009     6.711
    15   1 H        0.924     0.106     1.734     2.059
    16   1 H        0.925     0.102     1.770     2.080
    17   1 H        0.925     0.121     1.609     1.983
    18   1 H        0.926     0.115     1.657     2.013
    19   1 H        0.805     0.321     0.660     1.276
    20   1 H        0.924     0.083     1.946     2.181
    21   1 H        0.925     0.130     1.534     1.937
    22   1 H        0.924     0.079     1.994     2.208
    23   1 H        0.924     0.077     2.007     2.215
    24   1 H        0.925     0.123     1.590     1.972
    25   1 H        0.860     0.223     0.995     1.563

Wiberg/Mayer (AO) data.
largest (>0.10) Wiberg bond orders for each atom

     #   Z sym  total        # sym  WBO       # sym  WBO       # sym  WBO
 ---------------------------------------------------------------------------
     1   6 C    3.926 --     2 N    0.990    17 H    0.968    16 H    0.966
                            15 H    0.957
     2   7 N    3.639 --     3 C    1.381     6 C    1.142     1 C    0.990
     3   6 C    3.794 --     2 N    1.381     4 N    1.235    18 H    0.955
     4   7 N    3.591 --     3 C    1.235     5 C    1.234    25 H    0.920
     5   6 C    3.902 --     6 C    1.256     4 N    1.234    13 N    1.221
     6   6 C    3.888 --     5 C    1.256     7 C    1.234     2 N    1.142
     7   6 C    2.802 --     9 N    1.394     6 C    1.234
     8   8 O    2.102 --    10 C    1.118    19 H    0.883
     9   7 N    3.561 --     7 C    1.394    11 C    1.088    10 C    0.802
                            12 O    0.114
    10   6 C    3.895 --     8 O    1.118    20 H    0.961    21 H    0.955
                             9 N    0.802
    11   6 C    3.926 --    12 O    1.724     9 N    1.088    13 N    1.022
    12   8 O    2.062 --    11 C    1.724    13 N    0.133     9 N    0.114
    13   7 N    3.537 --     5 C    1.221    11 C    1.022    14 C    0.979
                            12 O    0.133
    14   6 C    3.929 --    13 N    0.979    23 H    0.971    22 H    0.971
                            24 H    0.964
    15   1 H    0.984 --     1 C    0.957
    16   1 H    0.986 --     1 C    0.966
    17   1 H    0.985 --     1 C    0.968
    18   1 H    0.986 --     3 C    0.955
    19   1 H    0.896 --     8 O    0.883
    20   1 H    0.989 --    10 C    0.961
    21   1 H    0.982 --    10 C    0.955
    22   1 H    0.991 --    14 C    0.971
    23   1 H    0.992 --    14 C    0.971
    24   1 H    0.984 --    14 C    0.964
    25   1 H    0.949 --     4 N    0.920
 ---------------------------------------------------------------------------

molecular dipole:
                 x           y           z       tot (Debye)
 q only:        2.752      -1.249      -0.480
   full:        3.083      -2.014      -0.654       9.507

           -------------------------------------------------
          | TOTAL ENERGY              -42.114369762858 Eh   |
          | GRADIENT NORM               0.002957802784 Eh/α |
          | HOMO-LUMO GAP               1.631828617326 eV   |
           -------------------------------------------------

 * finished run on 2024/06/05 at 19:59:12.711
