   * xtb version 6.6.1 (8d0f1dd) compiled by 'conda@1efc2f54142f' on 2023-08-01
          program call               : xtb xtbopt.xyz --opt crude --input .xc2 --gfn2

   ID    Z sym.   atoms
    1    6 C      1, 3, 5-7, 10, 11, 14
    2    7 N      2, 4, 9, 13
    3    8 O      8, 12
    4    1 H      15-25
########################################################################
[WARNING] Please study the warnings concerning your input carefully
-1- readin_getIntValue: could not parse ''
########################################################################

          :  Hamiltonian                  GFN2-xTB          :
 * total energy  :   -42.1152121 Eh     change       -0.1705303E-12 Eh
 * total energy  :   -42.1384677 Eh     change       -0.2325557E-01 Eh
 * total energy  :   -42.1541514 Eh     change       -0.1568368E-01 Eh
 * total energy  :   -42.1600269 Eh     change       -0.5875511E-02 Eh
 * total energy  :   -42.1616837 Eh     change       -0.1656827E-02 Eh
 * total energy  :   -42.1629681 Eh     change       -0.1284342E-02 Eh
 * total energy  :   -42.1638652 Eh     change       -0.8971796E-03 Eh
 * total energy  :   -42.1641739 Eh     change       -0.3086354E-03 Eh
 * total energy  :   -42.1644163 Eh     change       -0.2424283E-03 Eh
   *** GEOMETRY OPTIMIZATION CONVERGED AFTER 9 ITERATIONS ***

 final structure:
================
25
 xtb: 6.6.1 (8d0f1dd)
C            3.28579157205437        0.99489292546730        0.01540361230951
N            2.31444009146726       -0.06263728851999       -0.01210548646244
C            2.56040874036265       -1.37013789346232       -0.00377694921192
N            1.39102228231971       -2.05877943134206        0.00564806994766
C            0.37675696975631       -1.15544561729162        0.00838758523292
C            0.95055026786104        0.12039632921258       -0.00767248620336
C            0.16852662967572        1.28875542160586       -0.04723597102212
O           -1.42669757127459        3.33799250323253        0.41347699581545
N           -1.14004888680885        1.04081498970084       -0.02515032837014
C           -2.07126318761570        2.21081030700037        0.00367513187509
C           -1.78883906645554       -0.20252030858696        0.00111623722153
O           -2.98321044877210       -0.30288953612928        0.00633556634974
N           -0.95468065245053       -1.33486635854848        0.01302570875580
C           -1.55197723940369       -2.65568438584164        0.02621969678362
H            3.77735727717605        1.03402954240244        0.98880400869700
H            4.04071821367522        0.83912926250301       -0.75432265549382
H            2.76838644304468        1.93629227654638       -0.15740807927752
H            3.53236033873782       -1.82213919757705       -0.00538669189559
H           -0.86119453268048        3.71970063580241       -0.27675665099506
H           -2.52453412118464        2.28405259007577       -0.99555494659431
H           -2.85642426528959        1.98513623490960        0.73285922197161
H           -1.23731144061396       -3.20690262360283        0.91320899229962
H           -1.27850833993808       -3.20652514945242       -0.87455632354711
H           -2.63295972113023       -2.52951375197301        0.05064655754216
H            1.30176216158697       -3.06572293453154        0.01229080217192

          :  Hamiltonian                  GFN2-xTB          :
         :: total energy             -42.164416294815 Eh    ::
         :: gradient norm              0.009500510965 Eh/a0 ::
         :: HOMO-LUMO gap              1.773381671996 eV    ::
         :: SCC energy               -42.671247183176 Eh    ::
         :: -> dispersion             -0.022159166553 Eh    ::
         :: repulsion energy           0.506732740982 Eh    ::

    * Orbital Energies and Occupations

         #    Occupation            Energy/Eh            Energy/eV
      -------------------------------------------------------------
         1        2.0000           -0.9041178             -24.6023
       ...           ...                  ...                  ...
        25        2.0000           -0.6669745             -18.1493
        26        2.0000           -0.6588828             -17.9291
        27        2.0000           -0.6427644             -17.4905
        28        1.9999           -0.6329779             -17.2242
        29        1.9999           -0.6325356             -17.2122
        30        1.9998           -0.6241130             -16.9830
        31        1.9998           -0.6183999             -16.8275
        32        1.9997           -0.6119074             -16.6508
        33        1.9983           -0.5862913             -15.9538
        34        1.9959           -0.5718582             -15.5611
        35        1.9905           -0.5585900             -15.2000
        36        1.9852           -0.5515498             -15.0084
        37        1.7753           -0.5066774             -13.7874 (HOMO)
        38        0.2283           -0.4415068             -12.0140 (LUMO)
        39        0.0242           -0.4042752             -11.0009
        40        0.0032           -0.3719729             -10.1219
        41        0.0000           -0.2834663              -7.7135
        42                         -0.2023431              -5.5060
        43                         -0.1910321              -5.1982
        44                         -0.1376097              -3.7446
        45                         -0.1263694              -3.4387
        46                         -0.0719388              -1.9576
        47                         -0.0459638              -1.2507
        48                         -0.0428186              -1.1652
       ...                                ...                  ...
        67                          0.5365563              14.6004
      -------------------------------------------------------------
                  HL-Gap            0.0651706 Eh            1.7734 eV

     #   Z          covCN         q      C6AA      α(0)
     1   6 C        3.692    -0.090    22.401     6.772
     2   7 N        2.830     0.068    20.057     6.651
     3   6 C        3.050     0.049    26.847     8.498
     4   7 N        2.783    -0.062    22.445     7.036
     5   6 C        3.051     0.113    25.470     8.277
     6   6 C        3.120     0.022    27.348     8.565
     7   6 C        1.918    -0.110    34.166     9.440
     8   8 O        1.658    -0.377    20.418     6.100
     9   7 N        2.758    -0.035    21.923     6.954
    10   6 C        3.628     0.136    18.766     6.240
    11   6 C        2.724     0.311    21.722     7.630
    12   8 O        0.859    -0.369    21.068     6.154
    13   7 N        2.738    -0.045    22.118     6.985
    14   6 C        3.697    -0.070    22.016     6.712
    15   1 H        0.924     0.107     1.723     2.053
    16   1 H        0.925     0.103     1.757     2.073
    17   1 H        0.925     0.121     1.602     1.979
    18   1 H        0.926     0.117     1.634     1.999
    19   1 H        0.804     0.325     0.651     1.268
    20   1 H        0.923     0.069     2.098     2.265
    21   1 H        0.924     0.108     1.713     2.047
    22   1 H        0.924     0.082     1.963     2.191
    23   1 H        0.924     0.081     1.965     2.192
    24   1 H        0.925     0.124     1.581     1.966
    25   1 H        0.860     0.224     0.994     1.561

Wiberg/Mayer (AO) data.
largest (>0.10) Wiberg bond orders for each atom

     #   Z sym  total        # sym  WBO       # sym  WBO       # sym  WBO
 ---------------------------------------------------------------------------
     1   6 C    3.925 --     2 N    0.989    17 H    0.969    16 H    0.965
                            15 H    0.957
     2   7 N    3.645 --     3 C    1.383     6 C    1.138     1 C    0.989
     3   6 C    3.804 --     2 N    1.383     4 N    1.256    18 H    0.955
     4   7 N    3.584 --     3 C    1.256     5 C    1.204    25 H    0.920
     5   6 C    3.908 --     6 C    1.287    13 N    1.222     4 N    1.204
     6   6 C    3.898 --     5 C    1.287     7 C    1.228     2 N    1.138
     7   6 C    2.792 --     9 N    1.369     6 C    1.228
     8   8 O    2.035 --    10 C    1.074    19 H    0.875
     9   7 N    3.601 --     7 C    1.369    11 C    1.070    10 C    0.908
                            12 O    0.115
    10   6 C    3.919 --     8 O    1.074    21 H    0.947    20 H    0.946
                             9 N    0.908
    11   6 C    3.936 --    12 O    1.709     9 N    1.070    13 N    1.058
    12   8 O    2.045 --    11 C    1.709    13 N    0.134     9 N    0.115
    13   7 N    3.563 --     5 C    1.222    11 C    1.058    14 C    0.974
                            12 O    0.134
    14   6 C    3.926 --    13 N    0.974    22 H    0.971    23 H    0.970
                            24 H    0.966
    15   1 H    0.984 --     1 C    0.957
    16   1 H    0.986 --     1 C    0.965
    17   1 H    0.985 --     1 C    0.969
    18   1 H    0.985 --     3 C    0.955
    19   1 H    0.894 --     8 O    0.875
    20   1 H    0.987 --    10 C    0.946
    21   1 H    0.984 --    10 C    0.947
    22   1 H    0.991 --    14 C    0.971
    23   1 H    0.991 --    14 C    0.970
    24   1 H    0.984 --    14 C    0.966
    25   1 H    0.949 --     4 N    0.920
 ---------------------------------------------------------------------------

molecular dipole:
                 x           y           z       tot (Debye)
 q only:        2.854      -1.376      -0.405
   full:        3.044      -2.234      -0.595       9.716

           -------------------------------------------------
          | TOTAL ENERGY              -42.164416294815 Eh   |
          | GRADIENT NORM               0.009500510965 Eh/α |
          | HOMO-LUMO GAP               1.773381671996 eV   |
           -------------------------------------------------

 * finished run on 2024/06/05 at 19:59:13.091
