   * xtb version 6.6.1 (8d0f1dd) compiled by 'conda@1efc2f54142f' on 2023-08-01
          program call               : xtb struc.xyz --opt loose --input .xc1 --gfn2

   ID    Z sym.   atoms
    1    6 C      1, 3, 5-7, 10, 11, 14
    2    7 N      2, 4, 9, 13
    3    8 O      8, 12
    4    1 H      15-25
constraining bond 2 4 to    4.8400000 Å, actual value:    2.1863596 Å

          :  Hamiltonian                  GFN2-xTB          :
 * total energy  :     8.0456343 Eh     change       -0.6650680E-10 Eh
 * total energy  :   -14.1383141 Eh     change       -0.2218395E+02 Eh
 * total energy  :   -26.9206551 Eh     change       -0.1278234E+02 Eh
 * total energy  :   -35.1291177 Eh     change       -0.8208463E+01 Eh
 * total energy  :   -40.2062282 Eh     change       -0.5077110E+01 Eh
 * total energy  :   -41.3334924 Eh     change       -0.1127264E+01 Eh
 * total energy  :   -41.4276445 Eh     change       -0.9415216E-01 Eh
 * total energy  :   -41.4889022 Eh     change       -0.6125767E-01 Eh
 * total energy  :   -41.5141696 Eh     change       -0.2526737E-01 Eh
 * total energy  :   -41.5245332 Eh     change       -0.1036364E-01 Eh
 * total energy  :   -42.0738834 Eh     change       -0.3727096E-03 Eh
 * total energy  :   -42.0743397 Eh     change       -0.4563452E-03 Eh
 * total energy  :   -42.0746241 Eh     change       -0.2844055E-03 Eh
 * total energy  :   -42.0748504 Eh     change       -0.2262847E-03 Eh
 * total energy  :   -42.0749151 Eh     change       -0.6472671E-04 Eh
 * total energy  :   -42.0751358 Eh     change       -0.2206071E-03 Eh
 * total energy  :   -42.0752248 Eh     change       -0.8907095E-04 Eh
 * total energy  :   -42.0753146 Eh     change       -0.8978246E-04 Eh
 * total energy  :   -42.0753578 Eh     change       -0.4315150E-04 Eh
   *** GEOMETRY OPTIMIZATION CONVERGED AFTER 55 ITERATIONS ***

 final structure:
================
25
 xtb: 6.6.1 (8d0f1dd)
C            3.20794911910238        0.98563503344547        0.22774407543091
N            3.16831306062780        1.55057704562736       -1.02559049662639
C            2.34140728378499       -0.25090248497273        0.24154402939062
N            0.80316707678104       -2.63151676457265       -0.43849655828558
C            0.27570272752611       -1.52263857272655       -0.12607387942818
C            1.01119412359514       -0.25176843739829        0.02273517330319
C            0.23006757393575        1.00741351850120       -0.03411899817133
O            0.75765063043025        2.09444581177266       -0.12746753982811
N           -1.12977193986021        0.87379449618851        0.08478373839466
C           -1.95131042012530        2.07118416636767        0.11548668874758
C           -1.82311635422549       -0.32956639159693        0.19537398323206
O           -3.01100423132112       -0.34431849111824        0.37738200205519
N           -1.08045888375095       -1.49007574374728        0.05631922764466
C           -1.79409451357598       -2.74852236380748        0.01802387070123
H            2.87309160220630        1.68030165964971        1.02222328467821
H            4.24501949028658        0.67689788326248        0.44269988959381
H            2.76984152620790        2.46453208033199       -1.19423376515582
H            2.86094763150268       -1.18822802292757        0.38731546589558
H           -1.29965923231430        2.94189254357452        0.10144616494004
H           -2.61713065722140        2.08641325894108       -0.74914617048139
H           -2.56985296771461        2.06939443717216        1.01436688212606
H           -1.46099693848601       -3.39022911420215        0.83555345780235
H           -1.57860840232962       -3.26122069877235       -0.92135706511296
H           -2.86088383885931       -2.55136595289254        0.11050088392455
H            1.79296804789688       -2.72389035449693       -0.60584272686962

          :  Hamiltonian                  GFN2-xTB          :
         :: total energy             -42.075357763913 Eh    ::
         :: gradient norm              0.003128873623 Eh/a0 ::
         :: HOMO-LUMO gap              0.439729888254 eV    ::
         :: SCC energy               -42.595947268863 Eh    ::
         :: -> dispersion             -0.022086229592 Eh    ::
         :: repulsion energy           0.520446165535 Eh    ::

    * Orbital Energies and Occupations

         #    Occupation            Energy/Eh            Energy/eV
      -------------------------------------------------------------
         1        2.0000           -0.8983208             -24.4446
       ...           ...                  ...                  ...
        25        1.9995           -0.6706254             -18.2486
        26        1.9985           -0.6539598             -17.7952
        27        1.9975           -0.6460713             -17.5805
        28        1.9973           -0.6446380             -17.5415
        29        1.9914           -0.6261567             -17.0386
        30        1.9894           -0.6228481             -16.9486
        31        1.9788           -0.6117688             -16.6471
        32        1.9549           -0.5996295             -16.3167
        33        1.9281           -0.5920168             -16.1096
        34        1.9180           -0.5898637             -16.0510
        35        1.8247           -0.5770394             -15.7020
        36        1.7497           -0.5707356             -15.5305
        37        1.5424           -0.5591861             -15.2162 (HOMO)
        38        1.0970           -0.5430264             -14.7765 (LUMO)
        39        0.0333           -0.4753712             -12.9355
        40        0.0004           -0.4031923             -10.9714
        41        0.0001           -0.3877627             -10.5516
        42        0.0000           -0.3043272              -8.2812
        43                         -0.1928117              -5.2467
        44                         -0.1590447              -4.3278
        45                         -0.1170761              -3.1858
        46                         -0.0806681              -2.1951
        47                         -0.0714206              -1.9435
        48                         -0.0456162              -1.2413
       ...                                ...                  ...
        67                          0.5370937              14.6151
      -------------------------------------------------------------
                  HL-Gap            0.0161598 Eh            0.4397 eV

     #   Z          covCN         q      C6AA      α(0)
     1   6 C        3.733     0.025    20.235     6.420
     2   7 N        1.782    -0.177    25.611     7.495
     3   6 C        2.908     0.013    27.732     8.635
     4   7 N        1.795    -0.243    27.179     7.722
     5   6 C        2.833     0.170    24.332     8.083
     6   6 C        2.952    -0.031    28.766     8.797
     7   6 C        2.769     0.280    22.259     7.727
     8   8 O        0.859    -0.341    20.539     6.076
     9   7 N        2.740    -0.061    22.427     7.033
    10   6 C        3.707    -0.063    21.850     6.682
    11   6 C        2.719     0.323    21.507     7.592
    12   8 O        0.860    -0.326    20.259     6.035
    13   7 N        2.757    -0.026    21.756     6.928
    14   6 C        3.707    -0.076    22.107     6.721
    15   1 H        0.922     0.137     1.484     1.905
    16   1 H        0.923     0.144     1.432     1.871
    17   1 H        0.860     0.230     0.966     1.540
    18   1 H        0.925     0.106     1.735     2.060
    19   1 H        0.925     0.118     1.632     1.998
    20   1 H        0.924     0.114     1.663     2.016
    21   1 H        0.924     0.117     1.638     2.001
    22   1 H        0.924     0.116     1.646     2.006
    23   1 H        0.924     0.122     1.601     1.978
    24   1 H        0.925     0.127     1.554     1.950
    25   1 H        0.860     0.203     1.091     1.637

Wiberg/Mayer (AO) data.
largest (>0.10) Wiberg bond orders for each atom

     #   Z sym  total        # sym  WBO       # sym  WBO       # sym  WBO
 ---------------------------------------------------------------------------
     1   6 C    3.888 --     2 N    1.166     3 C    0.961    16 H    0.873
                            15 H    0.860
     2   7 N    2.160 --     1 C    1.166    17 H    0.899
     3   6 C    3.840 --     6 C    1.719     1 C    0.961    18 H    0.946
     4   7 N    2.860 --     5 C    1.696    25 H    0.921
     5   6 C    3.943 --     4 N    1.696    13 N    1.155     6 C    1.007
     6   6 C    3.878 --     3 C    1.719     5 C    1.007     7 C    0.999
     7   6 C    3.929 --     8 O    1.677     9 N    1.156     6 C    0.999
     8   8 O    1.995 --     7 C    1.677     9 N    0.128
     9   7 N    3.507 --     7 C    1.156    11 C    1.074    10 C    0.976
                             8 O    0.128    12 O    0.103
    10   6 C    3.872 --     9 N    0.976    19 H    0.962    21 H    0.946
                            20 H    0.944
    11   6 C    3.956 --    12 O    1.698    13 N    1.098     9 N    1.074
    12   8 O    2.007 --    11 C    1.698    13 N    0.109     9 N    0.103
    13   7 N    3.501 --     5 C    1.155    11 C    1.098    14 C    0.980
                            12 O    0.109
    14   6 C    3.866 --    13 N    0.980    24 H    0.959    22 H    0.943
                            23 H    0.939
    15   1 H    0.898 --     1 C    0.860
    16   1 H    0.900 --     1 C    0.873
    17   1 H    0.917 --     2 N    0.899
    18   1 H    0.976 --     3 C    0.946
    19   1 H    0.980 --    10 C    0.962
    20   1 H    0.961 --    10 C    0.944
    21   1 H    0.963 --    10 C    0.946
    22   1 H    0.960 --    14 C    0.943
    23   1 H    0.958 --    14 C    0.939
    24   1 H    0.977 --    14 C    0.959
    25   1 H    0.949 --     4 N    0.921
 ---------------------------------------------------------------------------

molecular dipole:
                 x           y           z       tot (Debye)
 q only:        1.429      -0.563       0.236
   full:        1.695      -0.339       0.418       4.522

           -------------------------------------------------
          | TOTAL ENERGY              -42.075357763913 Eh   |
          | GRADIENT NORM               0.003128873623 Eh/α |
          | HOMO-LUMO GAP               0.439729888254 eV   |
           -------------------------------------------------

 * finished run on 2024/06/05 at 20:00:06.929
