   * xtb version 6.6.1 (8d0f1dd) compiled by 'conda@1efc2f54142f' on 2023-08-01
          program call               : xtb struc.xyz --opt loose --input .xc1 --gfn2

   ID    Z sym.   atoms
    1    6 C      1, 3, 5-7, 10, 11, 14
    2    7 N      2, 4, 9, 13
    3    8 O      8, 12
    4    1 H      15-25
constraining bond 6 25 to    5.1400000 Å, actual value:    3.1881491 Å

          :  Hamiltonian                  GFN2-xTB          :
 * total energy  :   -35.4576697 Eh     change       -0.2401919E-09 Eh
 * total energy  :   -38.5115493 Eh     change       -0.3053880E+01 Eh
 * total energy  :   -40.5307836 Eh     change       -0.2019234E+01 Eh
 * total energy  :   -41.5641581 Eh     change       -0.1033374E+01 Eh
 * total energy  :   -41.8937643 Eh     change       -0.3296062E+00 Eh
 * total energy  :   -41.9377159 Eh     change       -0.4395159E-01 Eh
 * total energy  :   -41.9635574 Eh     change       -0.2584153E-01 Eh
 * total energy  :   -42.0077726 Eh     change       -0.4421524E-01 Eh
 * total energy  :   -42.0355047 Eh     change       -0.2773206E-01 Eh
 * total energy  :   -42.0816887 Eh     change       -0.4618404E-01 Eh
 * total energy  :   -42.1654175 Eh     change       -0.1708113E-02 Eh
 * total energy  :   -42.1662513 Eh     change       -0.8337329E-03 Eh
 * total energy  :   -42.1666807 Eh     change       -0.4294803E-03 Eh
 * total energy  :   -42.1671698 Eh     change       -0.4890160E-03 Eh
 * total energy  :   -42.1675631 Eh     change       -0.3933296E-03 Eh
 * total energy  :   -42.1688088 Eh     change       -0.1245734E-02 Eh
 * total energy  :   -42.1692914 Eh     change       -0.4826071E-03 Eh
 * total energy  :   -42.1693696 Eh     change       -0.7820605E-04 Eh
 * total energy  :   -42.1694085 Eh     change       -0.3883097E-04 Eh
   *** GEOMETRY OPTIMIZATION CONVERGED AFTER 25 ITERATIONS ***

 final structure:
================
25
 xtb: 6.6.1 (8d0f1dd)
C            3.22137988738665        1.20502344799284        0.01690902006031
N            2.23886392828433        0.15997637133693       -0.00088078953699
C            2.46299840512513       -1.17430092872886       -0.00464621859330
N            1.35131477774870       -1.88048020830617       -0.00512422190329
C            0.34722056729200       -0.98210427659392       -0.00024629654279
C            0.88114997625790        0.31616198989059        0.00373988995401
C            0.04425846564579        1.48517815845967       -0.00380495706564
O            0.42579415770681        2.63724945279801       -0.01484783789880
N           -1.31262756066667        1.14697085887634        0.00078168672221
C           -2.27841648623697        2.22934523265053        0.00019199922185
C           -1.86124686695197       -0.13081098046406        0.00221431325473
O           -3.05630251120155       -0.29524435402653        0.00487997215712
N           -0.98249800106273       -1.21210525914018       -0.00042044379491
C           -1.49979909282664       -2.55953228766384       -0.00473546114537
H            3.72978618922514        1.23283901457448        0.98383648116482
H            3.96667595918748        1.03500241315282       -0.76155906644734
H            2.72763676776782        2.16358913276913       -0.14916981894043
H            3.44315559353652       -1.60994288458476       -0.00751483239836
H           -1.73776670199058        3.17472398446246        0.00981227898869
H           -2.91193644545950        2.16517575782767       -0.88734364596716
H           -2.92467789998836        2.15307096131780        0.87742387371301
H           -1.13996131871236       -3.09607330416769        0.87461580503049
H           -1.15481590384247       -3.08539212217756       -0.89656411552406
H           -2.58838332144559       -2.51369263255039        0.00415480878626
H            1.76862894932106       -4.74638899610523       -0.01053080539507

          :  Hamiltonian                  GFN2-xTB          :
         :: total energy             -42.169408463899 Eh    ::
         :: gradient norm              0.001354808611 Eh/a0 ::
         :: HOMO-LUMO gap              1.172452814347 eV    ::
         :: SCC energy               -42.677940756752 Eh    ::
         :: -> dispersion             -0.022459117958 Eh    ::
         :: repulsion energy           0.508439005164 Eh    ::

    * Orbital Energies and Occupations

         #    Occupation            Energy/Eh            Energy/eV
      -------------------------------------------------------------
         1        2.0000           -0.8945389             -24.3416
       ...           ...                  ...                  ...
        25        1.9963           -0.6684184             -18.1886
        26        1.9945           -0.6591713             -17.9370
        27        1.9918           -0.6497720             -17.6812
        28        1.9893           -0.6432471             -17.5036
        29        1.9815           -0.6301895             -17.1483
        30        1.9736           -0.6217018             -16.9174
        31        1.9660           -0.6155764             -16.7507
        32        1.9502           -0.6062987             -16.4982
        33        1.9376           -0.6007998             -16.3486
        34        1.8885           -0.5864034             -15.9568
        35        1.8678           -0.5820995             -15.8397
        36        1.8544           -0.5796352             -15.7727
        37        1.6623           -0.5570632             -15.1585 (HOMO)
        38        0.8903           -0.5139763             -13.9860 (LUMO)
        39        0.0527           -0.4334583             -11.7950
        40        0.0094           -0.3919532             -10.6656
        41        0.0046           -0.3752260             -10.2104
        42        0.0002           -0.2965442              -8.0694
        43        0.0000           -0.2090632              -5.6889
        44        0.0000           -0.1601637              -4.3583
        45        0.0000           -0.1407013              -3.8287
        46                         -0.0801371              -2.1806
        47                         -0.0608521              -1.6559
        48                         -0.0417846              -1.1370
       ...                                ...                  ...
        67                          0.5253261              14.2948
      -------------------------------------------------------------
                  HL-Gap            0.0430868 Eh            1.1725 eV

     #   Z          covCN         q      C6AA      α(0)
     1   6 C        3.689    -0.081    22.245     6.750
     2   7 N        2.828     0.051    20.358     6.701
     3   6 C        3.176     0.095    25.522     8.250
     4   7 N        1.899    -0.196    26.065     7.569
     5   6 C        3.160     0.132    24.831     8.146
     6   6 C        3.115    -0.008    28.057     8.677
     7   6 C        2.763     0.270    22.439     7.758
     8   8 O        0.858    -0.330    20.335     6.046
     9   7 N        2.746    -0.066    22.515     7.047
    10   6 C        3.708    -0.061    21.818     6.676
    11   6 C        2.729     0.315    21.639     7.616
    12   8 O        0.860    -0.329    20.311     6.042
    13   7 N        2.739    -0.021    21.650     6.911
    14   6 C        3.700    -0.071    22.028     6.712
    15   1 H        0.924     0.114     1.667     2.019
    16   1 H        0.924     0.111     1.686     2.031
    17   1 H        0.924     0.129     1.539     1.940
    18   1 H        0.926     0.113     1.673     2.022
    19   1 H        0.925     0.129     1.543     1.943
    20   1 H        0.924     0.120     1.611     1.985
    21   1 H        0.924     0.121     1.609     1.983
    22   1 H        0.924     0.115     1.653     2.010
    23   1 H        0.924     0.115     1.652     2.010
    24   1 H        0.925     0.131     1.526     1.932
    25   1 H        0.000     0.101     4.420     3.844

Wiberg/Mayer (AO) data.
largest (>0.10) Wiberg bond orders for each atom

     #   Z sym  total        # sym  WBO       # sym  WBO       # sym  WBO
 ---------------------------------------------------------------------------
     1   6 C    3.886 --     2 N    0.997    17 H    0.953    16 H    0.951
                            15 H    0.942
     2   7 N    3.616 --     3 C    1.275     6 C    1.193     1 C    0.997
     3   6 C    3.842 --     4 N    1.461     2 N    1.275    18 H    0.952
     4   7 N    2.940 --     3 C    1.461     5 C    1.275
     5   6 C    3.884 --     4 N    1.275     6 C    1.257    13 N    1.187
     6   6 C    3.785 --     5 C    1.257     2 N    1.193     7 C    1.088
     7   6 C    3.921 --     8 O    1.650     9 N    1.089     6 C    1.088
     8   8 O    1.922 --     7 C    1.650     9 N    0.118
     9   7 N    3.473 --    11 C    1.104     7 C    1.089    10 C    0.982
                             8 O    0.118    12 O    0.111
    10   6 C    3.846 --     9 N    0.982    19 H    0.949    21 H    0.937
                            20 H    0.936
    11   6 C    3.941 --    12 O    1.662     9 N    1.104    13 N    1.084
    12   8 O    1.945 --    11 C    1.662     9 N    0.111    13 N    0.103
    13   7 N    3.481 --     5 C    1.187    11 C    1.084    14 C    0.982
                            12 O    0.103
    14   6 C    3.867 --    13 N    0.982    24 H    0.954    22 H    0.944
                            23 H    0.944
    15   1 H    0.967 --     1 C    0.942
    16   1 H    0.971 --     1 C    0.951
    17   1 H    0.971 --     1 C    0.953
    18   1 H    0.983 --     3 C    0.952
    19   1 H    0.968 --    10 C    0.949
    20   1 H    0.953 --    10 C    0.936
    21   1 H    0.953 --    10 C    0.937
    22   1 H    0.960 --    14 C    0.944
    23   1 H    0.960 --    14 C    0.944
    24   1 H    0.972 --    14 C    0.954
    25   1 H    0.008
 ---------------------------------------------------------------------------

molecular dipole:
                 x           y           z       tot (Debye)
 q only:        1.429      -1.176       0.012
   full:        1.686      -1.062       0.018       5.065

           -------------------------------------------------
          | TOTAL ENERGY              -42.169408463899 Eh   |
          | GRADIENT NORM               0.001354808611 Eh/α |
          | HOMO-LUMO GAP               1.172452814347 eV   |
           -------------------------------------------------

 * finished run on 2024/06/05 at 19:58:48.875
