   * xtb version 6.6.1 (8d0f1dd) compiled by 'conda@1efc2f54142f' on 2023-08-01
          program call               : xtb struc.xyz --opt loose --input .xc1 --gfn2

   ID    Z sym.   atoms
    1    6 C      1, 3, 5-7, 10, 11, 14
    2    7 N      2, 4, 9, 13
    3    8 O      8, 12
    4    1 H      15-25
constraining bond 22 23 to    3.2800000 Å, actual value:    1.7896004 Å

          :  Hamiltonian                  GFN2-xTB          :
 * total energy  :   -34.3154860 Eh     change       -0.6650680E-10 Eh
 * total energy  :   -39.0412883 Eh     change       -0.4725802E+01 Eh
 * total energy  :   -41.4262861 Eh     change       -0.2384998E+01 Eh
 * total energy  :   -42.0373932 Eh     change       -0.6111070E+00 Eh
 * total energy  :   -42.0658940 Eh     change       -0.2850081E-01 Eh
 * total energy  :   -42.0661384 Eh     change       -0.2444473E-03 Eh
 * total energy  :   -42.0673259 Eh     change       -0.1187462E-02 Eh
 * total energy  :   -42.0676870 Eh     change       -0.3610733E-03 Eh
 * total energy  :   -42.0680240 Eh     change       -0.3369914E-03 Eh
 * total energy  :   -42.0684059 Eh     change       -0.3819878E-03 Eh
 * total energy  :   -42.1064352 Eh     change        0.6820000E-05 Eh
 * total energy  :   -42.1065566 Eh     change       -0.1214630E-03 Eh
 * total energy  :   -42.1065974 Eh     change       -0.4075249E-04 Eh
 * total energy  :   -42.1065466 Eh     change        0.5075645E-04 Eh
 * total energy  :   -42.1067040 Eh     change       -0.1573520E-03 Eh
 * total energy  :   -42.1067310 Eh     change       -0.2702779E-04 Eh
 * total energy  :   -42.1067656 Eh     change       -0.3459437E-04 Eh
 * total energy  :   -42.1068320 Eh     change       -0.6640812E-04 Eh
 * total energy  :   -42.1068608 Eh     change       -0.2880284E-04 Eh
   *** GEOMETRY OPTIMIZATION CONVERGED AFTER 64 ITERATIONS ***

 final structure:
================
25
 xtb: 6.6.1 (8d0f1dd)
C            3.23122880463826        1.15987343012781        0.00352716584483
N            2.30220257833710        0.06439633304000        0.09445914090958
C            2.60352386041475       -1.22519740774209        0.18974517941420
N            1.47430050603622       -1.96030216816596        0.25532617306626
C            0.40783953851344       -1.09958127731614        0.19629410808913
C            0.93368427057289        0.18192859387229        0.09466537244097
C            0.09436455702856        1.35729352154576       -0.01508135372566
O            0.48239680232667        2.49923784043814       -0.09927120949056
N           -1.25990159691330        1.01031667915437       -0.01943947272533
C           -2.22570266892084        2.09832055691492       -0.14285045949582
C           -1.82192064351859       -0.23493732109022        0.06804284844258
O           -2.99940134042647       -0.44031551725660        0.03693663937524
N           -0.91802767054612       -1.36649656138563        0.21781111665958
C           -1.46234706447067       -2.59952355963837        0.29407353046811
H            3.85086511845756        1.20617820697843        0.89950613421916
H            3.87880510692214        1.03525871343445       -0.86453060784572
H            2.66913779777650        2.08848507831261       -0.09335252878542
H            3.59693155804158       -1.62936262736069        0.21018813860548
H           -1.67358790705055        3.03175728887473       -0.21702320239324
H           -2.83794838700755        1.94825627603371       -1.03096713344668
H           -2.87755380567986        2.11341076207924        0.72965550769941
H           -0.84710405445643       -3.41599167862227        0.65154483266002
H           -2.34584965764422       -2.38230951386030       -2.07455597800392
H           -2.53438754927654       -2.65433246841550        0.33557479674635
H            1.43888336094541       -2.96812463835253        0.31089287917079

          :  Hamiltonian                  GFN2-xTB          :
         :: total energy             -42.106860807446 Eh    ::
         :: gradient norm              0.003187907082 Eh/a0 ::
         :: HOMO-LUMO gap              0.793926858938 eV    ::
         :: SCC energy               -42.628065413847 Eh    ::
         :: -> dispersion             -0.023310752506 Eh    ::
         :: repulsion energy           0.521045066189 Eh    ::

    * Orbital Energies and Occupations

         #    Occupation            Energy/Eh            Energy/eV
      -------------------------------------------------------------
         1        2.0000           -0.9211043             -25.0645
       ...           ...                  ...                  ...
        25        2.0000           -0.6719005             -18.2833
        26        2.0000           -0.6707241             -18.2513
        27        2.0000           -0.6626691             -18.0321
        28        1.9998           -0.6382488             -17.3676
        29        1.9998           -0.6339785             -17.2514
        30        1.9997           -0.6307373             -17.1632
        31        1.9996           -0.6229786             -16.9521
        32        1.9984           -0.6013493             -16.3635
        33        1.9973           -0.5930015             -16.1364
        34        1.9961           -0.5873314             -15.9821
        35        1.9866           -0.5677519             -15.4493
        36        1.9848           -0.5656418             -15.3919
        37        1.4000           -0.5019668             -13.6592 (HOMO)
        38        0.5397           -0.4727905             -12.8653 (LUMO)
        39        0.0874           -0.4396995             -11.9648
        40        0.0090           -0.4031133             -10.9693
        41        0.0017           -0.3765914             -10.2476
        42        0.0000           -0.2922396              -7.9522
        43                         -0.2147066              -5.8425
        44                         -0.2036741              -5.5423
        45                         -0.1525656              -4.1515
        46                         -0.1371005              -3.7307
        47                         -0.0703115              -1.9133
        48                         -0.0430230              -1.1707
       ...                                ...                  ...
        67                          0.5547754              15.0962
      -------------------------------------------------------------
                  HL-Gap            0.0291763 Eh            0.7939 eV

     #   Z          covCN         q      C6AA      α(0)
     1   6 C        3.691    -0.097    22.555     6.796
     2   7 N        2.832     0.087    19.730     6.597
     3   6 C        3.054     0.055    26.722     8.478
     4   7 N        2.791    -0.055    22.298     7.013
     5   6 C        3.040     0.097    25.803     8.332
     6   6 C        3.117    -0.016    28.246     8.705
     7   6 C        2.763     0.269    22.461     7.761
     8   8 O        0.858    -0.362    20.928     6.133
     9   7 N        2.744    -0.077    22.739     7.082
    10   6 C        3.713    -0.065    21.880     6.684
    11   6 C        2.733     0.312    21.695     7.626
    12   8 O        0.859    -0.331    20.349     6.048
    13   7 N        2.736     0.003    21.216     6.841
    14   6 C        2.794    -0.049    29.203     8.852
    15   1 H        0.924     0.110     1.695     2.036
    16   1 H        0.925     0.109     1.702     2.040
    17   1 H        0.925     0.140     1.460     1.890
    18   1 H        0.926     0.130     1.537     1.939
    19   1 H        0.925     0.117     1.639     2.002
    20   1 H        0.925     0.101     1.778     2.085
    21   1 H        0.925     0.100     1.789     2.092
    22   1 H        0.925     0.089     1.884     2.146
    23   1 H        0.000    -0.038     9.501     5.636
    24   1 H        0.926     0.139     1.466     1.894
    25   1 H        0.860     0.232     0.958     1.533

Wiberg/Mayer (AO) data.
largest (>0.10) Wiberg bond orders for each atom

     #   Z sym  total        # sym  WBO       # sym  WBO       # sym  WBO
 ---------------------------------------------------------------------------
     1   6 C    3.911 --     2 N    0.983    17 H    0.959    16 H    0.959
                            15 H    0.957
     2   7 N    3.680 --     3 C    1.390     6 C    1.167     1 C    0.983
     3   6 C    3.850 --     2 N    1.390     4 N    1.289    18 H    0.951
     4   7 N    3.566 --     3 C    1.289     5 C    1.171    25 H    0.917
     5   6 C    3.901 --     6 C    1.344     4 N    1.171    13 N    1.169
     6   6 C    3.870 --     5 C    1.344     2 N    1.167     7 C    1.069
     7   6 C    3.924 --     8 O    1.680     9 N    1.086     6 C    1.069
     8   8 O    1.999 --     7 C    1.680     9 N    0.140
     9   7 N    3.568 --    11 C    1.164     7 C    1.086    10 C    0.962
                            12 O    0.149     8 O    0.140
    10   6 C    3.909 --    19 H    0.967    21 H    0.965    20 H    0.965
                             9 N    0.962
    11   6 C    3.931 --    12 O    1.733     9 N    1.164    13 N    0.939
    12   8 O    2.068 --    11 C    1.733     9 N    0.149
    13   7 N    3.615 --    14 C    1.268     5 C    1.169    11 C    0.939
    14   6 C    3.441 --    13 N    1.268    22 H    0.967    24 H    0.954
                            23 H    0.154
    15   1 H    0.985 --     1 C    0.957
    16   1 H    0.985 --     1 C    0.959
    17   1 H    0.980 --     1 C    0.959
    18   1 H    0.982 --     3 C    0.951
    19   1 H    0.985 --    10 C    0.967
    20   1 H    0.985 --    10 C    0.965
    21   1 H    0.986 --    10 C    0.965
    22   1 H    0.989 --    14 C    0.967
    23   1 H    0.190 --    14 C    0.154
    24   1 H    0.978 --    14 C    0.954
    25   1 H    0.946 --     4 N    0.917
 ---------------------------------------------------------------------------

molecular dipole:
                 x           y           z       tot (Debye)
 q only:        2.783      -1.733       0.525
   full:        3.054      -2.299       0.592       9.833

           -------------------------------------------------
          | TOTAL ENERGY              -42.106860807446 Eh   |
          | GRADIENT NORM               0.003187907082 Eh/α |
          | HOMO-LUMO GAP               0.793926858938 eV   |
           -------------------------------------------------

 * finished run on 2024/06/05 at 19:59:22.598
