   * xtb version 6.6.1 (8d0f1dd) compiled by 'conda@1efc2f54142f' on 2023-08-01
          program call               : xtb xtbopt.xyz --opt crude --input .xc2 --gfn2

   ID    Z sym.   atoms
    1    6 C      1, 3, 5-7, 10, 11, 14
    2    7 N      2, 4, 9, 13
    3    8 O      8, 12
    4    1 H      15-25

          :  Hamiltonian                  GFN2-xTB          :
 * total energy  :   -42.1068728 Eh     change       -0.2486900E-12 Eh
 * total energy  :   -42.1173915 Eh     change       -0.1051868E-01 Eh
 * total energy  :   -42.1577250 Eh     change       -0.4033352E-01 Eh
 * total energy  :   -42.2341961 Eh     change       -0.7647108E-01 Eh
 * total energy  :   -42.0579885 Eh     change        0.1762076E+00 Eh
 * total energy  :   -42.2396941 Eh     change       -0.1817056E+00 Eh
 * total energy  :   -42.2376606 Eh     change        0.2033501E-02 Eh
 * total energy  :   -42.2432769 Eh     change       -0.5616291E-02 Eh
 * total energy  :   -42.2342758 Eh     change        0.9001096E-02 Eh
 * total energy  :   -42.2449992 Eh     change       -0.1072346E-01 Eh
 * total energy  :   -42.2430393 Eh     change        0.1959907E-02 Eh
 * total energy  :   -42.2458151 Eh     change       -0.2775729E-02 Eh
 * total energy  :   -42.2460929 Eh     change       -0.2778458E-03 Eh
   *** GEOMETRY OPTIMIZATION CONVERGED AFTER 13 ITERATIONS ***

 final structure:
================
25
 xtb: 6.6.1 (8d0f1dd)
C            3.21981196173828        1.14179968650041        0.03316419494574
N            2.27569010371801        0.05665236750962        0.09409251548514
C            2.55435636940171       -1.23694285876726        0.15804345280959
N            1.40686440323659       -1.95443554703142        0.15918908403650
C            0.36094799318470       -1.07963037731791        0.09490669292921
C            0.90996783259402        0.19364928415110        0.06085662287324
C            0.08434941639256        1.38653027407711       -0.02304474064367
O            0.49384991229878        2.52075192151661       -0.09101199227625
N           -1.26758096092487        1.05997065219426       -0.02016778199561
C           -2.22427545806973        2.15645101047843       -0.11365023503768
C           -1.83882812629007       -0.19889753634347        0.01351846390834
O           -3.02390321822088       -0.36956005999203       -0.00534538980047
N           -0.96055823843372       -1.31115810648733        0.07293762187142
C           -1.55430292336903       -2.61803663419472       -0.08349467542759
H            3.83114637506448        1.16812639438636        0.93521402971560
H            3.87364840944340        1.02117421546459       -0.83074324255209
H            2.66959132957869        2.07818854814182       -0.05707180483316
H            3.53876532720675       -1.66033684150971        0.19964285114048
H           -1.66693994904962        3.08749898084383       -0.17716577802980
H           -2.84615596867081        2.02488981137183       -0.99863829295818
H           -2.86962316066301        2.15997317794137        0.76381107049899
H           -0.93769208833162       -3.38460792181910        0.38243515515425
H           -1.69020754552011       -2.84491532309179       -1.14032078431748
H           -2.53526080418421       -2.61683236526069        0.39394351165956
H            1.35677052192164       -2.96206421120407        0.21007106878751

          :  Hamiltonian                  GFN2-xTB          :
         :: total energy             -42.246092901540 Eh    ::
         :: gradient norm              0.008731605659 Eh/a0 ::
         :: HOMO-LUMO gap              3.266966157638 eV    ::
         :: SCC energy               -42.774548785543 Eh    ::
         :: -> dispersion             -0.022645207421 Eh    ::
         :: repulsion energy           0.528340950155 Eh    ::

    * Orbital Energies and Occupations

         #    Occupation            Energy/Eh            Energy/eV
      -------------------------------------------------------------
         1        2.0000           -0.9176627             -24.9709
       ...           ...                  ...                  ...
        25        2.0000           -0.6678885             -18.1742
        26        2.0000           -0.6654123             -18.1068
        27        2.0000           -0.6574450             -17.8900
        28        1.9998           -0.6353802             -17.2896
        29        1.9998           -0.6325617             -17.2129
        30        1.9997           -0.6274576             -17.0740
        31        1.9995           -0.6222915             -16.9334
        32        1.9994           -0.6187321             -16.8366
        33        1.9978           -0.5973411             -16.2545
        34        1.9926           -0.5780194             -15.7287
        35        1.9808           -0.5627039             -15.3120
        36        1.9769           -0.5597708             -15.2321
        37        1.9722           -0.5568078             -15.1515 (HOMO)
        38        0.0698           -0.4367490             -11.8845 (LUMO)
        39        0.0104           -0.4060592             -11.0494
        40        0.0013           -0.3734813             -10.1629
        41        0.0000           -0.2896557              -7.8819
        42                         -0.2053890              -5.5889
        43                         -0.2011627              -5.4739
        44                         -0.1444810              -3.9315
        45                         -0.1334957              -3.6326
        46                         -0.0857507              -2.3334
        47                         -0.0489475              -1.3319
        48                         -0.0354312              -0.9641
       ...                                ...                  ...
        67                          0.5571412              15.1606
      -------------------------------------------------------------
                  HL-Gap            0.1200588 Eh            3.2670 eV

     #   Z          covCN         q      C6AA      α(0)
     1   6 C        3.692    -0.097    22.543     6.794
     2   7 N        2.832     0.089    19.704     6.593
     3   6 C        3.058     0.052    26.784     8.487
     4   7 N        2.798    -0.058    22.369     7.024
     5   6 C        3.036     0.116    25.407     8.268
     6   6 C        3.129    -0.024    28.406     8.726
     7   6 C        2.764     0.274    22.375     7.746
     8   8 O        0.858    -0.365    20.990     6.143
     9   7 N        2.746    -0.083    22.862     7.101
    10   6 C        3.710    -0.062    21.840     6.679
    11   6 C        2.731     0.317    21.619     7.612
    12   8 O        0.860    -0.351    20.728     6.104
    13   7 N        2.738    -0.057    22.346     7.021
    14   6 C        3.698    -0.067    21.956     6.702
    15   1 H        0.925     0.110     1.700     2.039
    16   1 H        0.925     0.108     1.712     2.046
    17   1 H        0.925     0.140     1.463     1.891
    18   1 H        0.926     0.127     1.555     1.950
    19   1 H        0.925     0.114     1.665     2.018
    20   1 H        0.925     0.099     1.792     2.093
    21   1 H        0.925     0.100     1.785     2.090
    22   1 H        0.925     0.076     2.025     2.225
    23   1 H        0.925     0.093     1.854     2.129
    24   1 H        0.924     0.123     1.590     1.972
    25   1 H        0.860     0.229     0.967     1.541

Wiberg/Mayer (AO) data.
largest (>0.10) Wiberg bond orders for each atom

     #   Z sym  total        # sym  WBO       # sym  WBO       # sym  WBO
 ---------------------------------------------------------------------------
     1   6 C    3.911 --     2 N    0.983    16 H    0.959    17 H    0.959
                            15 H    0.958
     2   7 N    3.697 --     3 C    1.404     6 C    1.168     1 C    0.983
     3   6 C    3.869 --     2 N    1.404     4 N    1.272    18 H    0.952
     4   7 N    3.592 --     3 C    1.272     5 C    1.189    25 H    0.918
     5   6 C    3.952 --     6 C    1.350    13 N    1.222     4 N    1.189
     6   6 C    3.913 --     5 C    1.350     2 N    1.168     7 C    1.060
     7   6 C    3.951 --     8 O    1.688     9 N    1.111     6 C    1.060
     8   8 O    2.039 --     7 C    1.688     9 N    0.151
     9   7 N    3.558 --    11 C    1.123     7 C    1.111    10 C    0.968
                             8 O    0.151    12 O    0.136
    10   6 C    3.910 --    19 H    0.968     9 N    0.968    20 H    0.964
                            21 H    0.963
    11   6 C    3.957 --    12 O    1.717     9 N    1.123    13 N    1.025
    12   8 O    2.063 --    11 C    1.717     9 N    0.136    13 N    0.121
    13   7 N    3.550 --     5 C    1.222    11 C    1.025    14 C    0.976
                            12 O    0.121
    14   6 C    3.926 --    13 N    0.976    22 H    0.976    23 H    0.964
                            24 H    0.964
    15   1 H    0.986 --     1 C    0.958
    16   1 H    0.986 --     1 C    0.959
    17   1 H    0.980 --     1 C    0.959
    18   1 H    0.983 --     3 C    0.952
    19   1 H    0.985 --    10 C    0.968
    20   1 H    0.984 --    10 C    0.964
    21   1 H    0.984 --    10 C    0.963
    22   1 H    0.993 --    14 C    0.976
    23   1 H    0.986 --    14 C    0.964
    24   1 H    0.983 --    14 C    0.964
    25   1 H    0.947 --     4 N    0.918
 ---------------------------------------------------------------------------

molecular dipole:
                 x           y           z       tot (Debye)
 q only:        2.575      -2.017       0.121
   full:        2.868      -2.551       0.141       9.763

           -------------------------------------------------
          | TOTAL ENERGY              -42.246092901540 Eh   |
          | GRADIENT NORM               0.008731605659 Eh/α |
          | HOMO-LUMO GAP               3.266966157638 eV   |
           -------------------------------------------------

 * finished run on 2024/06/05 at 19:59:23.100
