   * xtb version 6.6.1 (8d0f1dd) compiled by 'conda@1efc2f54142f' on 2023-08-01
          program call               : xtb xtbopt.xyz --opt crude --input .xc2 --gfn2

   ID    Z sym.   atoms
    1    6 C      1, 3, 5-7, 10, 11, 14
    2    7 N      2, 4, 9, 13
    3    8 O      8, 12
    4    1 H      15-25
########################################################################
[WARNING] Please study the warnings concerning your input carefully
-1- readin_getIntValue: could not parse ''
########################################################################

          :  Hamiltonian                  GFN2-xTB          :
 * total energy  :   -40.4180608 Eh     change        0.2842171E-13 Eh
 * total energy  :   -42.0957755 Eh     change       -0.1677715E+01 Eh
 * total energy  :   -42.1363373 Eh     change       -0.4056177E-01 Eh
 * total energy  :   -42.1463432 Eh     change       -0.1000590E-01 Eh
 * total energy  :   -42.1488415 Eh     change       -0.2498263E-02 Eh
 * total energy  :   -42.1493290 Eh     change       -0.4875463E-03 Eh
 * total energy  :   -42.1501187 Eh     change       -0.7896947E-03 Eh
 * total energy  :   -42.1509601 Eh     change       -0.8414291E-03 Eh
 * total energy  :   -42.1515263 Eh     change       -0.5662008E-03 Eh
 * total energy  :   -42.1516979 Eh     change       -0.1715153E-03 Eh
   *** GEOMETRY OPTIMIZATION CONVERGED AFTER 10 ITERATIONS ***

 final structure:
================
25
 xtb: 6.6.1 (8d0f1dd)
C            3.22931722026143        1.13074573183174       -0.06875349401647
N            2.22192871645766        0.10261488247335       -0.09073806172895
C            2.44445761500522       -1.20005963036430       -0.08486001869659
N            1.26968491098821       -1.86416331875834       -0.09094179264265
C            0.25056945252986       -0.95031697511427       -0.10622668710382
C            0.85949707067016        0.31576345205114       -0.09215063934560
C            0.16376920630305        1.57214366088513        0.10600933092679
O            0.66589400515145        2.66390763819056        0.24082999431262
N           -1.23073308323931        1.33620643593879        0.17819764798072
C           -2.08278092096355        2.17867801443310        0.60424640230916
C           -1.94728179737464       -0.14580559689486       -0.66454116897390
O           -3.12612558143111       -0.19641282187020       -0.40782001567166
N           -1.05377312428200       -1.19566439717016       -0.13917967959206
C           -1.63779575303369       -2.47183024246333        0.19894146775421
H            3.70540272363961        1.17154068994003        0.91210878783971
H            3.99121873177090        0.92707979481706       -0.81989966564805
H            2.76267711896961        2.09405639405768       -0.26559450496891
H            3.41041362843624       -1.66611381316849       -0.07564618867895
H           -1.80261210234260        3.16242830306581        0.95996679001133
H           -1.55242214714503        0.20906295609453       -1.63509085748625
H           -3.12109481161213        1.86833142485172        0.59200247422749
H           -1.18539209269670       -2.86918132236826        1.10714799509969
H           -1.53716609911836       -3.19214635853801       -0.61617988064683
H           -2.69993625427232       -2.29410465109107        0.37361883044822
H            1.16271488142862       -2.86852170922930       -0.08427544780833

          :  Hamiltonian                  GFN2-xTB          :
         :: total energy             -42.151697857387 Eh    ::
         :: gradient norm              0.004847118842 Eh/a0 ::
         :: HOMO-LUMO gap              1.918364141655 eV    ::
         :: SCC energy               -42.679409671653 Eh    ::
         :: -> dispersion             -0.023094320942 Eh    ::
         :: repulsion energy           0.527553627783 Eh    ::

    * Orbital Energies and Occupations

         #    Occupation            Energy/Eh            Energy/eV
      -------------------------------------------------------------
         1        2.0000           -0.9108212             -24.7847
       ...           ...                  ...                  ...
        25        2.0000           -0.6708656             -18.2552
        26        2.0000           -0.6615335             -18.0012
        27        1.9999           -0.6504011             -17.6983
        28        1.9998           -0.6367164             -17.3259
        29        1.9997           -0.6357966             -17.3009
        30        1.9994           -0.6217545             -16.9188
        31        1.9993           -0.6188811             -16.8406
        32        1.9992           -0.6174615             -16.8020
        33        1.9989           -0.6119429             -16.6518
        34        1.9897           -0.5769342             -15.6992
        35        1.9638           -0.5567503             -15.1499
        36        1.9421           -0.5491290             -14.9426
        37        1.8431           -0.5325276             -14.4908 (HOMO)
        38        0.2408           -0.4620290             -12.5724 (LUMO)
        39        0.0190           -0.4199772             -11.4282
        40        0.0053           -0.3996030             -10.8738
        41        0.0000           -0.3197246              -8.7001
        42        0.0000           -0.3084081              -8.3922
        43                         -0.1955002              -5.3198
        44                         -0.1842509              -5.0137
        45                         -0.1390847              -3.7847
        46                         -0.0886905              -2.4134
        47                         -0.0813264              -2.2130
        48                         -0.0416361              -1.1330
       ...                                ...                  ...
        67                          0.5366674              14.6035
      -------------------------------------------------------------
                  HL-Gap            0.0704986 Eh            1.9184 eV

     #   Z          covCN         q      C6AA      α(0)
     1   6 C        3.692    -0.095    22.510     6.789
     2   7 N        2.831     0.086    19.755     6.601
     3   6 C        3.036     0.055    26.735     8.481
     4   7 N        2.795    -0.062    22.434     7.035
     5   6 C        3.012     0.119    25.367     8.262
     6   6 C        3.104    -0.028    28.559     8.757
     7   6 C        2.768     0.276    22.328     7.739
     8   8 O        0.857    -0.343    20.573     6.081
     9   7 N        2.474    -0.115    23.568     7.209
    10   6 C        2.783     0.047    26.922     8.499
    11   6 C        3.342     0.252    20.665     7.183
    12   8 O        0.856    -0.371    21.112     6.160
    13   7 N        2.730    -0.063    22.471     7.040
    14   6 C        3.694    -0.068    21.996     6.710
    15   1 H        0.924     0.110     1.694     2.036
    16   1 H        0.925     0.105     1.739     2.062
    17   1 H        0.925     0.135     1.496     1.913
    18   1 H        0.926     0.125     1.574     1.962
    19   1 H        0.925     0.127     1.558     1.952
    20   1 H        0.922     0.051     2.308     2.376
    21   1 H        0.925     0.144     1.433     1.872
    22   1 H        0.925     0.078     2.001     2.212
    23   1 H        0.924     0.081     1.971     2.196
    24   1 H        0.924     0.125     1.572     1.961
    25   1 H        0.860     0.230     0.967     1.541

Wiberg/Mayer (AO) data.
largest (>0.10) Wiberg bond orders for each atom

     #   Z sym  total        # sym  WBO       # sym  WBO       # sym  WBO
 ---------------------------------------------------------------------------
     1   6 C    3.914 --     2 N    0.985    16 H    0.964    17 H    0.961
                            15 H    0.955
     2   7 N    3.695 --     3 C    1.411     6 C    1.155     1 C    0.985
     3   6 C    3.872 --     2 N    1.411     4 N    1.275    18 H    0.952
     4   7 N    3.592 --     3 C    1.275     5 C    1.176    25 H    0.919
     5   6 C    3.938 --     6 C    1.293    13 N    1.288     4 N    1.176
     6   6 C    3.885 --     5 C    1.293     2 N    1.155     7 C    1.092
     7   6 C    3.890 --     8 O    1.708     6 C    1.092     9 N    1.007
     8   8 O    1.997 --     7 C    1.708
     9   7 N    3.444 --    10 C    1.759     7 C    1.007    11 C    0.416
                            12 O    0.129
    10   6 C    3.735 --     9 N    1.759    19 H    0.942    21 H    0.941
    11   6 C    3.936 --    12 O    1.651    13 N    0.897    20 H    0.894
                             9 N    0.416
    12   8 O    1.967 --    11 C    1.651     9 N    0.129
    13   7 N    3.463 --     5 C    1.288    14 C    0.983    11 C    0.897
    14   6 C    3.925 --    13 N    0.983    22 H    0.971    23 H    0.963
                            24 H    0.961
    15   1 H    0.985 --     1 C    0.955
    16   1 H    0.987 --     1 C    0.964
    17   1 H    0.981 --     1 C    0.961
    18   1 H    0.983 --     3 C    0.952
    19   1 H    0.975 --    10 C    0.942
    20   1 H    0.957 --    11 C    0.894
    21   1 H    0.974 --    10 C    0.941
    22   1 H    0.987 --    14 C    0.971
    23   1 H    0.982 --    14 C    0.963
    24   1 H    0.982 --    14 C    0.961
    25   1 H    0.947 --     4 N    0.919
 ---------------------------------------------------------------------------

molecular dipole:
                 x           y           z       tot (Debye)
 q only:        2.336      -1.633       0.152
   full:        2.630      -1.903       0.101       8.254

           -------------------------------------------------
          | TOTAL ENERGY              -42.151697857387 Eh   |
          | GRADIENT NORM               0.004847118842 Eh/α |
          | HOMO-LUMO GAP               1.918364141655 eV   |
           -------------------------------------------------

 * finished run on 2024/06/05 at 19:59:28.434
