   * xtb version 6.6.1 (8d0f1dd) compiled by 'conda@1efc2f54142f' on 2023-08-01
          program call               : xtb xtbopt.xyz --opt crude --input .xc2 --gfn2

   ID    Z sym.   atoms
    1    6 C      1, 3, 5-7, 10, 11, 14
    2    7 N      2, 4, 9, 13
    3    8 O      8, 12
    4    1 H      15-25

          :  Hamiltonian                  GFN2-xTB          :
 * total energy  :   -42.1035771 Eh     change       -0.2188472E-11 Eh
   *** GEOMETRY OPTIMIZATION CONVERGED AFTER 1 ITERATIONS ***

 final structure:
================
25
 xtb: 6.6.1 (8d0f1dd)
C            3.23149056497622        1.18661346864530       -0.01369280312468
N            2.27533552351863        0.11195896280455        0.02782313638497
C            2.54451856810870       -1.18721791084809        0.07372333445218
N            1.39783497872218       -1.89664383085909        0.13546644138445
C            0.35373879944808       -1.00581330628024        0.12503210494596
C            0.91029740961983        0.26535074484394        0.05907997294575
C            0.10108514869798        1.46488453314753        0.01821194007402
O            0.51785740450791        2.59931605216400       -0.03456163951117
N           -1.26233557524636        1.15423815779170        0.04600132562183
C           -2.20032070602087        2.27339133016304       -0.00739367991589
C           -1.85744126611781       -0.07628430743331        0.09136143689620
O           -3.04086479520706       -0.24953124061508        0.08436583833184
N           -0.97927680650019       -1.24021888846401        0.15974761152370
C           -1.55313975694667       -2.44957923300423        0.24169856279144
H            3.76137910208008        1.25650015907132        0.93729061272828
H            3.95744069555759        1.01766921820653       -0.80817782090885
H            2.70025798172012        2.12154467624780       -0.19035405694621
H            3.52597169389149       -1.62010671714145        0.06106302026110
H           -1.62434541663533        3.19553204847116       -0.00447580703233
H           -2.80243596959711        2.20788903346078       -0.91252654038122
H           -2.86381382456422        2.23786274771322        0.85537864783027
H           -0.95451272186806       -3.33781216794256        0.28712800649682
H           -1.68635823405063       -4.82019360907988       -1.61921917701812
H           -2.62643296400310       -2.48719512446089        0.24877347835107
H            1.33450168000869       -2.90391625500195        0.16942767171848

          :  Hamiltonian                  GFN2-xTB          :
         :: total energy             -42.103577073424 Eh    ::
         :: gradient norm              0.003663195233 Eh/a0 ::
         :: HOMO-LUMO gap              0.292611450452 eV    ::
         :: SCC energy               -42.626938955507 Eh    ::
         :: -> dispersion             -0.022710282238 Eh    ::
         :: repulsion energy           0.523265168065 Eh    ::

    * Orbital Energies and Occupations

         #    Occupation            Energy/Eh            Energy/eV
      -------------------------------------------------------------
         1        2.0000           -0.9211507             -25.0658
       ...           ...                  ...                  ...
        25        2.0000           -0.6723284             -18.2950
        26        2.0000           -0.6722890             -18.2939
        27        2.0000           -0.6630304             -18.0420
        28        1.9999           -0.6389859             -17.3877
        29        1.9998           -0.6352969             -17.2873
        30        1.9998           -0.6313861             -17.1809
        31        1.9996           -0.6230122             -16.9530
        32        1.9985           -0.6018221             -16.3764
        33        1.9975           -0.5936043             -16.1528
        34        1.9966           -0.5888870             -16.0244
        35        1.9874           -0.5680170             -15.4565
        36        1.9860           -0.5663334             -15.4107
        37        1.1339           -0.4921954             -13.3933 (HOMO)
        38        0.7980           -0.4814421             -13.1007 (LUMO)
        39        0.0920           -0.4399101             -11.9706
        40        0.0094           -0.4031272             -10.9697
        41        0.0018           -0.3772787             -10.2663
        42        0.0000           -0.2924793              -7.9588
        43                         -0.2168429              -5.9006
        44                         -0.2044334              -5.5629
        45                         -0.1545918              -4.2067
        46                         -0.1384618              -3.7677
        47                         -0.0711271              -1.9355
        48                         -0.0433834              -1.1805
       ...                                ...                  ...
        67                          0.5533972              15.0587
      -------------------------------------------------------------
                  HL-Gap            0.0107533 Eh            0.2926 eV

     #   Z          covCN         q      C6AA      α(0)
     1   6 C        3.691    -0.097    22.546     6.794
     2   7 N        2.832     0.087    19.733     6.598
     3   6 C        3.054     0.055    26.714     8.476
     4   7 N        2.789    -0.055    22.310     7.015
     5   6 C        3.041     0.094    25.880     8.344
     6   6 C        3.114    -0.016    28.237     8.705
     7   6 C        2.763     0.268    22.482     7.765
     8   8 O        0.858    -0.362    20.941     6.135
     9   7 N        2.744    -0.077    22.743     7.083
    10   6 C        3.713    -0.065    21.880     6.684
    11   6 C        2.733     0.311    21.713     7.629
    12   8 O        0.859    -0.333    20.394     6.055
    13   7 N        2.735     0.010    21.082     6.819
    14   6 C        2.798    -0.053    29.305     8.868
    15   1 H        0.924     0.112     1.683     2.029
    16   1 H        0.925     0.108     1.713     2.047
    17   1 H        0.925     0.140     1.463     1.892
    18   1 H        0.926     0.130     1.538     1.939
    19   1 H        0.925     0.117     1.638     2.001
    20   1 H        0.925     0.100     1.789     2.092
    21   1 H        0.925     0.100     1.782     2.088
    22   1 H        0.926     0.094     1.842     2.122
    23   1 H        0.000    -0.034     9.294     5.574
    24   1 H        0.926     0.137     1.481     1.903
    25   1 H        0.860     0.232     0.958     1.534

Wiberg/Mayer (AO) data.
largest (>0.10) Wiberg bond orders for each atom

     #   Z sym  total        # sym  WBO       # sym  WBO       # sym  WBO
 ---------------------------------------------------------------------------
     1   6 C    3.911 --     2 N    0.984    16 H    0.962    17 H    0.959
                            15 H    0.954
     2   7 N    3.677 --     3 C    1.388     6 C    1.166     1 C    0.984
     3   6 C    3.847 --     2 N    1.388     4 N    1.289    18 H    0.951
     4   7 N    3.558 --     3 C    1.289     5 C    1.168    25 H    0.917
     5   6 C    3.888 --     6 C    1.342     4 N    1.168    13 N    1.163
     6   6 C    3.859 --     5 C    1.342     2 N    1.166     7 C    1.072
     7   6 C    3.918 --     8 O    1.678     9 N    1.083     6 C    1.072
     8   8 O    1.992 --     7 C    1.678     9 N    0.138
     9   7 N    3.569 --    11 C    1.169     7 C    1.083    10 C    0.962
                            12 O    0.151     8 O    0.138
    10   6 C    3.909 --    19 H    0.967    21 H    0.966    20 H    0.965
                             9 N    0.962
    11   6 C    3.925 --    12 O    1.732     9 N    1.169    13 N    0.930
    12   8 O    2.060 --    11 C    1.732     9 N    0.151
    13   7 N    3.624 --    14 C    1.307     5 C    1.163    11 C    0.930
    14   6 C    3.356 --    13 N    1.307    22 H    0.965    24 H    0.958
    15   1 H    0.984 --     1 C    0.954
    16   1 H    0.986 --     1 C    0.962
    17   1 H    0.980 --     1 C    0.959
    18   1 H    0.982 --     3 C    0.951
    19   1 H    0.985 --    10 C    0.967
    20   1 H    0.986 --    10 C    0.965
    21   1 H    0.986 --    10 C    0.966
    22   1 H    0.990 --    14 C    0.965
    23   1 H    0.027
    24   1 H    0.980 --    14 C    0.958
    25   1 H    0.946 --     4 N    0.917
 ---------------------------------------------------------------------------

molecular dipole:
                 x           y           z       tot (Debye)
 q only:        2.641      -1.474       0.309
   full:        2.904      -2.066       0.323       9.094

           -------------------------------------------------
          | TOTAL ENERGY              -42.103577073424 Eh   |
          | GRADIENT NORM               0.003663195233 Eh/α |
          | HOMO-LUMO GAP               0.292611450452 eV   |
           -------------------------------------------------

 * finished run on 2024/06/05 at 19:59:20.588
