   * xtb version 6.6.1 (8d0f1dd) compiled by 'conda@1efc2f54142f' on 2023-08-01
          program call               : xtb struc.xyz --opt loose --input .xc1 --gfn2

   ID    Z sym.   atoms
    1    6 C      1, 3, 5-7, 10, 11, 14
    2    7 N      2, 4, 9, 13
    3    8 O      8, 12
    4    1 H      15-25
constraining bond 11 21 to    3.7133300 Å, actual value:    2.6553777 Å

          :  Hamiltonian                  GFN2-xTB          :
 * total energy  :   -44.2463387 Eh     change       -0.6650680E-10 Eh
 * total energy  :   -47.8933917 Eh     change       -0.3647053E+01 Eh
 * total energy  :   -53.3698189 Eh     change       -0.5476427E+01 Eh
 * total energy  :   -59.4246950 Eh     change       -0.6054876E+01 Eh
 * total energy  :   -58.2360855 Eh     change        0.1188610E+01 Eh
 * total energy  :   -59.5218663 Eh     change       -0.1285781E+01 Eh
 * total energy  :   -59.5411529 Eh     change       -0.1928662E-01 Eh
 * total energy  :   -59.5833412 Eh     change       -0.4218827E-01 Eh
 * total energy  :   -59.6066253 Eh     change       -0.2328410E-01 Eh
 * total energy  :   -59.6341328 Eh     change       -0.2750756E-01 Eh
 * total energy  :   -59.7354486 Eh     change       -0.1514930E-03 Eh
 * total energy  :   -59.7355541 Eh     change       -0.1054441E-03 Eh
 * total energy  :   -59.7356744 Eh     change       -0.1203439E-03 Eh
 * total energy  :   -59.7357736 Eh     change       -0.9916971E-04 Eh
 * total energy  :   -59.7358668 Eh     change       -0.9315578E-04 Eh
 * total energy  :   -59.7344479 Eh     change        0.1418901E-02 Eh
 * total energy  :   -59.7359321 Eh     change       -0.1484243E-02 Eh
 * total energy  :   -59.7359463 Eh     change       -0.1424433E-04 Eh
 * total energy  :   -59.7359925 Eh     change       -0.4611724E-04 Eh
   *** GEOMETRY OPTIMIZATION CONVERGED AFTER 47 ITERATIONS ***

 final structure:
================
25
 xtb: 6.6.1 (8d0f1dd)
C            3.23045907106586        1.13550787592892        0.07434899299862
N            2.22211690635139        0.10961481765631        0.06620351025622
C            2.44633802958114       -1.18948123516825        0.01304396323281
N            1.27514321010504       -1.85597436521906        0.05224112607960
C            0.24803532834869       -0.94687390152474        0.13965433120778
C            0.85933707126293        0.32317698106310        0.14038954235961
C            0.18954289588506        1.59124235093498       -0.05210794151532
O            0.71774320552526        2.66463032993837       -0.23553718194141
N           -1.21328760318973        1.40331845126446       -0.06875710992450
C           -2.03378598100600        2.25230771233967       -0.53503351575972
C           -2.03321402938802       -0.13273599239012        0.81949751304740
O           -3.15091825118366       -0.23444126324927        0.33994471043480
N           -1.03849456076622       -1.22941193805852        0.20361082913298
C           -1.60299247189117       -2.50499432120403       -0.14468286988906
H            3.57751650100376        1.31294219043913        1.09380567999660
H            4.07574435546312        0.83186439839397       -0.53983349584302
H            2.80392987316138        2.06263708481691       -0.30757043172575
H            3.41121319372229       -1.65298700109392       -0.05770944411295
H           -1.72081664987976        3.20057033662999       -0.95773101667683
H           -3.08481159840968        1.99034300783946       -0.50399343646399
H           -1.87306764516061        0.00594636330274        1.18694415721267
H           -1.52071535284565       -3.21939255534556        0.67848028769139
H           -1.13329025139757       -2.91073730325995       -1.03970543119586
H           -2.66126609229089       -2.32940166074103       -0.34740490698996
H            1.16997236003309       -2.85943182169351        0.01307375628893

          :  Hamiltonian                  GFN2-xTB          :
         :: total energy             -59.735992456371 Eh    ::
         :: gradient norm              0.003721226133 Eh/a0 ::
         :: HOMO-LUMO gap              2.032445743780 eV    ::
         :: SCC energy               -42.694417083840 Eh    ::
         :: -> dispersion             -0.022992929175 Eh    ::
         :: repulsion energy           2.275503855090 Eh    ::

    * Orbital Energies and Occupations

         #    Occupation            Energy/Eh            Energy/eV
      -------------------------------------------------------------
         1        2.0000           -0.9060468             -24.6548
       ...           ...                  ...                  ...
        25        2.0000           -0.6704710             -18.2444
        26        2.0000           -0.6627017             -18.0330
        27        1.9999           -0.6565994             -17.8670
        28        1.9997           -0.6360176             -17.3069
        29        1.9997           -0.6338851             -17.2489
        30        1.9996           -0.6299194             -17.1410
        31        1.9992           -0.6176954             -16.8083
        32        1.9991           -0.6150760             -16.7371
        33        1.9987           -0.6096991             -16.5908
        34        1.9899           -0.5775813             -15.7168
        35        1.9775           -0.5647025             -15.3663
        36        1.9500           -0.5518462             -15.0165
        37        1.8579           -0.5345493             -14.5458 (HOMO)
        38        0.2093           -0.4598583             -12.5134 (LUMO)
        39        0.0146           -0.4160718             -11.3219
        40        0.0047           -0.3979951             -10.8300
        41        0.0003           -0.3565753              -9.7029
        42        0.0000           -0.3069592              -8.3528
        43        0.0000           -0.2453206              -6.6755
        44                         -0.1887733              -5.1368
        45                         -0.1469694              -3.9992
        46                         -0.1007762              -2.7423
        47                         -0.0849151              -2.3107
        48                         -0.0371582              -1.0111
       ...                                ...                  ...
        67                         10.6114906             288.7534
      -------------------------------------------------------------
                  HL-Gap            0.0746910 Eh            2.0324 eV

     #   Z          covCN         q      C6AA      α(0)
     1   6 C        3.693    -0.095    22.508     6.788
     2   7 N        2.831     0.085    19.768     6.604
     3   6 C        3.025     0.058    26.680     8.473
     4   7 N        2.796    -0.068    22.556     7.054
     5   6 C        2.989     0.126    25.224     8.239
     6   6 C        3.097    -0.029    28.613     8.766
     7   6 C        2.771     0.280    22.271     7.729
     8   8 O        0.857    -0.347    20.650     6.093
     9   7 N        2.273    -0.140    24.329     7.322
    10   6 C        2.785     0.052    26.812     8.482
    11   6 C        3.111     0.204    23.558     7.951
    12   8 O        0.863    -0.345    20.604     6.086
    13   7 N        2.707    -0.108    23.368     7.180
    14   6 C        3.692    -0.065    21.932     6.701
    15   1 H        0.924     0.111     1.692     2.034
    16   1 H        0.925     0.101     1.771     2.081
    17   1 H        0.925     0.137     1.479     1.902
    18   1 H        0.926     0.122     1.596     1.975
    19   1 H        0.925     0.122     1.599     1.977
    20   1 H        0.925     0.136     1.488     1.907
    21   1 H        0.938     0.163     1.306     1.787
    22   1 H        0.924     0.079     1.989     2.205
    23   1 H        0.925     0.074     2.045     2.236
    24   1 H        0.924     0.120     1.612     1.986
    25   1 H        0.860     0.227     0.978     1.549

Wiberg/Mayer (AO) data.
largest (>0.10) Wiberg bond orders for each atom

     #   Z sym  total        # sym  WBO       # sym  WBO       # sym  WBO
 ---------------------------------------------------------------------------
     1   6 C    3.915 --     2 N    0.987    16 H    0.970    17 H    0.953
                            15 H    0.952
     2   7 N    3.700 --     3 C    1.417     6 C    1.150     1 C    0.987
     3   6 C    3.876 --     2 N    1.417     4 N    1.277    18 H    0.952
     4   7 N    3.585 --     3 C    1.277     5 C    1.160    25 H    0.920
     5   6 C    3.941 --    13 N    1.333     6 C    1.274     4 N    1.160
     6   6 C    3.867 --     5 C    1.274     2 N    1.150     7 C    1.099
     7   6 C    3.897 --     8 O    1.704     6 C    1.099     9 N    1.008
     8   8 O    2.001 --     7 C    1.704
     9   7 N    3.388 --    10 C    1.788     7 C    1.008    11 C    0.339
                            12 O    0.133
    10   6 C    3.755 --     9 N    1.788    20 H    0.943    19 H    0.940
    11   6 C    3.917 --    12 O    1.773    21 H    0.957    13 N    0.766
                             9 N    0.339
    12   8 O    2.110 --    11 C    1.773     9 N    0.133    13 N    0.124
    13   7 N    3.430 --     5 C    1.333    14 C    0.998    11 C    0.766
                            12 O    0.124
    14   6 C    3.931 --    13 N    0.998    23 H    0.969    22 H    0.959
                            24 H    0.958
    15   1 H    0.985 --     1 C    0.952
    16   1 H    0.988 --     1 C    0.970
    17   1 H    0.980 --     1 C    0.953
    18   1 H    0.984 --     3 C    0.952
    19   1 H    0.976 --    10 C    0.940
    20   1 H    0.976 --    10 C    0.943
    21   1 H    0.968 --    11 C    0.957
    22   1 H    0.980 --    14 C    0.959
    23   1 H    0.987 --    14 C    0.969
    24   1 H    0.982 --    14 C    0.958
    25   1 H    0.948 --     4 N    0.920
 ---------------------------------------------------------------------------

molecular dipole:
                 x           y           z       tot (Debye)
 q only:        2.107      -1.520       0.110
   full:        2.379      -1.797       0.093       7.582

           -------------------------------------------------
          | TOTAL ENERGY              -59.735992456371 Eh   |
          | GRADIENT NORM               0.003721226133 Eh/α |
          | HOMO-LUMO GAP               2.032445743780 eV   |
           -------------------------------------------------

 * finished run on 2024/06/05 at 19:57:58.250
