   * xtb version 6.6.1 (8d0f1dd) compiled by 'conda@1efc2f54142f' on 2023-08-01
          program call               : xtb xtbopt.xyz --opt crude --input .xc2 --gfn2

   ID    Z sym.   atoms
    1    6 C      1, 3, 5-7, 10, 11, 14
    2    7 N      2, 4, 9, 13
    3    8 O      8, 12
    4    1 H      15-25
########################################################################
[WARNING] Please study the warnings concerning your input carefully
-1- readin_getIntValue: could not parse ''
########################################################################

          :  Hamiltonian                  GFN2-xTB          :
 * total energy  :   -40.4187576 Eh     change        0.1421085E-13 Eh
 * total energy  :   -42.0964886 Eh     change       -0.1677731E+01 Eh
 * total energy  :   -42.1369164 Eh     change       -0.4042775E-01 Eh
 * total energy  :   -42.1469024 Eh     change       -0.9986002E-02 Eh
 * total energy  :   -42.1493474 Eh     change       -0.2444996E-02 Eh
 * total energy  :   -42.1498354 Eh     change       -0.4879980E-03 Eh
 * total energy  :   -42.1506040 Eh     change       -0.7686085E-03 Eh
 * total energy  :   -42.1515013 Eh     change       -0.8973308E-03 Eh
 * total energy  :   -42.1520642 Eh     change       -0.5629201E-03 Eh
 * total energy  :   -42.1522441 Eh     change       -0.1798379E-03 Eh
   *** GEOMETRY OPTIMIZATION CONVERGED AFTER 10 ITERATIONS ***

 final structure:
================
25
 xtb: 6.6.1 (8d0f1dd)
C            3.22361774996217        1.13302745679506        0.10899845607983
N            2.22487750594809        0.09930085989107        0.07340590886020
C            2.44722911142684       -1.20206233859736        0.03729311291323
N            1.27224362717832       -1.86704875942497        0.04803881608186
C            0.25362968333120       -0.95399523092289        0.09901984590605
C            0.86210060181422        0.31256461320057        0.10298433406614
C            0.16739501572585        1.56550885821080       -0.11716441949200
O            0.67398494957298        2.64725674993547       -0.30668055827720
N           -1.22874198379146        1.33502006289482       -0.16050133322959
C           -2.08655220111718        2.17976389643217       -0.57177826488230
C           -1.93555510974816       -0.14646723147162        0.68209171009637
O           -3.11784291995285       -0.19543231448874        0.43838529735216
N           -1.05002870367945       -1.19725669565978        0.14265193994968
C           -1.64220520017026       -2.46568757856943       -0.20930513917045
H            3.49565924517787        1.35573325578864        1.14285457018430
H            4.11337291735825        0.81432030457655       -0.43017964728815
H            2.81755915252514        2.04022084116093       -0.33840567242411
H            3.41214954466545       -1.66879547034446        0.00076374954783
H           -1.81093012301720        3.16455390724808       -0.92743159258379
H           -3.12465949779292        1.86908826156352       -0.54575020444776
H           -1.53055277623944        0.20013445835454        1.65180335757162
H           -1.52929658733244       -3.20053014633858        0.59098142551471
H           -1.20582807934169       -2.84751807901922       -1.13194796161132
H           -2.70668143007012       -2.28261653810795       -0.36305152063069
H            1.16548702166674       -2.87084460150719        0.01409540781440

          :  Hamiltonian                  GFN2-xTB          :
         :: total energy             -42.152244081534 Eh    ::
         :: gradient norm              0.004733838897 Eh/a0 ::
         :: HOMO-LUMO gap              1.917952408264 eV    ::
         :: SCC energy               -42.679685464944 Eh    ::
         :: -> dispersion             -0.023100421433 Eh    ::
         :: repulsion energy           0.527282005946 Eh    ::

    * Orbital Energies and Occupations

         #    Occupation            Energy/Eh            Energy/eV
      -------------------------------------------------------------
         1        2.0000           -0.9107786             -24.7835
       ...           ...                  ...                  ...
        25        2.0000           -0.6707743             -18.2527
        26        2.0000           -0.6618853             -18.0108
        27        1.9999           -0.6503865             -17.6979
        28        1.9998           -0.6381905             -17.3660
        29        1.9997           -0.6355159             -17.2933
        30        1.9994           -0.6216354             -16.9156
        31        1.9993           -0.6191834             -16.8488
        32        1.9992           -0.6164742             -16.7751
        33        1.9989           -0.6118654             -16.6497
        34        1.9896           -0.5767248             -15.6935
        35        1.9642           -0.5569516             -15.1554
        36        1.9414           -0.5489581             -14.9379
        37        1.8435           -0.5325867             -14.4924 (HOMO)
        38        0.2416           -0.4621032             -12.5745 (LUMO)
        39        0.0187           -0.4196765             -11.4200
        40        0.0050           -0.3988067             -10.8521
        41        0.0000           -0.3187810              -8.6745
        42        0.0000           -0.3097931              -8.4299
        43                         -0.1955589              -5.3214
        44                         -0.1834042              -4.9907
        45                         -0.1385672              -3.7706
        46                         -0.0883451              -2.4040
        47                         -0.0821061              -2.2342
        48                         -0.0402612              -1.0956
       ...                                ...                  ...
        67                          0.5359303              14.5834
      -------------------------------------------------------------
                  HL-Gap            0.0704835 Eh            1.9180 eV

     #   Z          covCN         q      C6AA      α(0)
     1   6 C        3.692    -0.095    22.502     6.787
     2   7 N        2.831     0.086    19.743     6.599
     3   6 C        3.035     0.055    26.727     8.480
     4   7 N        2.795    -0.063    22.448     7.037
     5   6 C        3.012     0.119    25.360     8.261
     6   6 C        3.104    -0.029    28.597     8.762
     7   6 C        2.768     0.276    22.327     7.739
     8   8 O        0.857    -0.344    20.590     6.084
     9   7 N        2.481    -0.113    23.536     7.205
    10   6 C        2.783     0.047    26.932     8.500
    11   6 C        3.350     0.251    20.544     7.144
    12   8 O        0.856    -0.373    21.151     6.166
    13   7 N        2.730    -0.063    22.459     7.039
    14   6 C        3.694    -0.069    21.999     6.710
    15   1 H        0.924     0.112     1.678     2.026
    16   1 H        0.925     0.103     1.759     2.074
    17   1 H        0.925     0.137     1.485     1.906
    18   1 H        0.926     0.125     1.577     1.964
    19   1 H        0.925     0.127     1.554     1.950
    20   1 H        0.925     0.144     1.430     1.870
    21   1 H        0.922     0.051     2.306     2.375
    22   1 H        0.924     0.081     1.968     2.194
    23   1 H        0.925     0.078     2.002     2.212
    24   1 H        0.924     0.125     1.570     1.960
    25   1 H        0.860     0.229     0.968     1.541

Wiberg/Mayer (AO) data.
largest (>0.10) Wiberg bond orders for each atom

     #   Z sym  total        # sym  WBO       # sym  WBO       # sym  WBO
 ---------------------------------------------------------------------------
     1   6 C    3.915 --     2 N    0.987    16 H    0.970    17 H    0.955
                            15 H    0.951
     2   7 N    3.697 --     3 C    1.413     6 C    1.152     1 C    0.987
     3   6 C    3.874 --     2 N    1.413     4 N    1.273    18 H    0.952
     4   7 N    3.591 --     3 C    1.273     5 C    1.176    25 H    0.919
     5   6 C    3.939 --    13 N    1.291     6 C    1.291     4 N    1.176
     6   6 C    3.883 --     5 C    1.291     2 N    1.152     7 C    1.093
     7   6 C    3.890 --     8 O    1.706     6 C    1.093     9 N    1.008
     8   8 O    1.997 --     7 C    1.706
     9   7 N    3.447 --    10 C    1.755     7 C    1.008    11 C    0.422
                            12 O    0.130
    10   6 C    3.731 --     9 N    1.755    19 H    0.942    20 H    0.940
    11   6 C    3.937 --    12 O    1.647    13 N    0.896    21 H    0.894
                             9 N    0.422
    12   8 O    1.962 --    11 C    1.647     9 N    0.130
    13   7 N    3.467 --     5 C    1.291    14 C    0.983    11 C    0.896
    14   6 C    3.925 --    13 N    0.983    23 H    0.971    22 H    0.963
                            24 H    0.961
    15   1 H    0.984 --     1 C    0.951
    16   1 H    0.988 --     1 C    0.970
    17   1 H    0.980 --     1 C    0.955
    18   1 H    0.983 --     3 C    0.952
    19   1 H    0.975 --    10 C    0.942
    20   1 H    0.974 --    10 C    0.940
    21   1 H    0.957 --    11 C    0.894
    22   1 H    0.982 --    14 C    0.963
    23   1 H    0.987 --    14 C    0.971
    24   1 H    0.982 --    14 C    0.961
    25   1 H    0.947 --     4 N    0.919
 ---------------------------------------------------------------------------

molecular dipole:
                 x           y           z       tot (Debye)
 q only:        2.332      -1.613      -0.143
   full:        2.625      -1.883      -0.080       8.214

           -------------------------------------------------
          | TOTAL ENERGY              -42.152244081534 Eh   |
          | GRADIENT NORM               0.004733838897 Eh/α |
          | HOMO-LUMO GAP               1.917952408264 eV   |
           -------------------------------------------------

 * finished run on 2024/06/05 at 19:57:58.640
