   * xtb version 6.6.1 (8d0f1dd) compiled by 'conda@1efc2f54142f' on 2023-08-01
          program call               : xtb xtbopt.xyz --opt crude --input .xc2 --gfn2

   ID    Z sym.   atoms
    1    6 C      1, 3, 5-7, 10, 11, 14
    2    7 N      2, 4, 9, 13
    3    8 O      8, 12
    4    1 H      15-25

          :  Hamiltonian                  GFN2-xTB          :
 * total energy  :   -42.1323873 Eh     change       -0.1584510E-11 Eh
   *** GEOMETRY OPTIMIZATION CONVERGED AFTER 1 ITERATIONS ***

 final structure:
================
25
 xtb: 6.6.1 (8d0f1dd)
C            3.22018876041949        1.20269173196583        0.01907762130704
N            2.23401452850782        0.15995891706175        0.00056232332632
C            2.45905334693414       -1.17536865139472       -0.00576832085881
N            1.35308719376016       -1.88466723953028       -0.00549171521790
C            0.34701985595324       -0.98363264664004        0.00228049807723
C            0.88166013331287        0.31550949302219        0.00698335085208
C            0.04155037407042        1.48847859093487       -0.00200494926638
O            0.42637904026145        2.63584064598264       -0.01532396727906
N           -1.31158020478628        1.14879964317222        0.00242686523727
C           -2.27975622581547        2.23087710138433       -0.00244611026757
C           -1.86170263938028       -0.12757599459802        0.00522211266127
O           -3.05286661966151       -0.29643643991106        0.00787148614349
N           -0.97815376847595       -1.21262299667682        0.00354208961041
C           -1.50014841100567       -2.55749164624834       -0.00108197921784
H            3.72314735197777        1.22995797912813        0.98819864124065
H            3.96760055725069        1.02579310483615       -0.75483827945413
H            2.73076945212062        2.16166383504465       -0.15168506503192
H            3.44166818066412       -1.60563983570911       -0.01188276267496
H           -1.74085672557015        3.17596655162294        0.00554061590263
H           -2.91103576208040        2.16137077327055       -0.89026333125543
H           -2.92696833561668        2.15381052514943        0.87304781543961
H           -1.14100859529491       -3.09471083011221        0.87753358393431
H           -1.15658553229376       -3.08300817267681       -0.89298769126823
H           -2.58775419648132       -2.50711401926961        0.00831575062944
H            1.78270975532956       -4.74421187820858       -0.03565696466950

          :  Hamiltonian                  GFN2-xTB          :
         :: total energy             -42.132387270002 Eh    ::
         :: gradient norm              0.001821621459 Eh/a0 ::
         :: HOMO-LUMO gap              0.708904097605 eV    ::
         :: SCC energy               -42.643887043736 Eh    ::
         :: -> dispersion             -0.022475452893 Eh    ::
         :: repulsion energy           0.511406389983 Eh    ::

    * Orbital Energies and Occupations

         #    Occupation            Energy/Eh            Energy/eV
      -------------------------------------------------------------
         1        2.0000           -0.8928174             -24.2948
       ...           ...                  ...                  ...
        25        1.9995           -0.6669978             -18.1499
        26        1.9991           -0.6571649             -17.8824
        27        1.9983           -0.6457879             -17.5728
        28        1.9976           -0.6406260             -17.4323
        29        1.9947           -0.6280485             -17.0901
        30        1.9891           -0.6167029             -16.7813
        31        1.9873           -0.6142682             -16.7151
        32        1.9780           -0.6054760             -16.4758
        33        1.9649           -0.5979898             -16.2721
        34        1.9181           -0.5842124             -15.8972
        35        1.8835           -0.5783334             -15.7373
        36        1.8804           -0.5778867             -15.7251
        37        1.5743           -0.5549782             -15.1017 (HOMO)
        38        0.8329           -0.5289265             -14.3928 (LUMO)
        39        0.0030           -0.4311226             -11.7314
        40        0.0002           -0.3896220             -10.6022
        41        0.0001           -0.3738721             -10.1736
        42        0.0000           -0.2950386              -8.0284
        43                         -0.2060290              -5.6063
        44                         -0.1581964              -4.3047
        45                         -0.1374940              -3.7414
        46                         -0.0794985              -2.1633
        47                         -0.0582370              -1.5847
        48                         -0.0383219              -1.0428
       ...                                ...                  ...
        67                          0.5353561              14.5678
      -------------------------------------------------------------
                  HL-Gap            0.0260517 Eh            0.7089 eV

     #   Z          covCN         q      C6AA      α(0)
     1   6 C        3.689    -0.082    22.268     6.754
     2   7 N        2.830     0.052    20.332     6.697
     3   6 C        3.186     0.097    25.411     8.225
     4   7 N        1.897    -0.209    26.375     7.614
     5   6 C        3.168     0.134    24.755     8.129
     6   6 C        3.117    -0.007    28.022     8.671
     7   6 C        2.763     0.274    22.372     7.746
     8   8 O        0.858    -0.330    20.336     6.046
     9   7 N        2.746    -0.069    22.571     7.056
    10   6 C        3.708    -0.062    21.841     6.680
    11   6 C        2.728     0.317    21.614     7.611
    12   8 O        0.860    -0.330    20.339     6.047
    13   7 N        2.739    -0.019    21.611     6.904
    14   6 C        3.700    -0.073    22.061     6.717
    15   1 H        0.924     0.110     1.697     2.037
    16   1 H        0.924     0.107     1.721     2.051
    17   1 H        0.925     0.126     1.568     1.958
    18   1 H        0.926     0.110     1.700     2.039
    19   1 H        0.925     0.123     1.592     1.973
    20   1 H        0.924     0.115     1.652     2.010
    21   1 H        0.924     0.116     1.649     2.008
    22   1 H        0.924     0.111     1.686     2.030
    23   1 H        0.924     0.111     1.686     2.030
    24   1 H        0.925     0.128     1.554     1.949
    25   1 H        0.000     0.151     3.448     3.395

Wiberg/Mayer (AO) data.
largest (>0.10) Wiberg bond orders for each atom

     #   Z sym  total        # sym  WBO       # sym  WBO       # sym  WBO
 ---------------------------------------------------------------------------
     1   6 C    3.904 --     2 N    0.995    17 H    0.960    16 H    0.957
                            15 H    0.948
     2   7 N    3.637 --     3 C    1.269     6 C    1.218     1 C    0.995
     3   6 C    3.868 --     4 N    1.487     2 N    1.269    18 H    0.954
     4   7 N    2.972 --     3 C    1.487     5 C    1.266
     5   6 C    3.899 --     4 N    1.266     6 C    1.254    13 N    1.209
     6   6 C    3.797 --     5 C    1.254     2 N    1.218     7 C    1.075
     7   6 C    3.946 --     8 O    1.674     9 N    1.100     6 C    1.075
     8   8 O    1.961 --     7 C    1.674     9 N    0.127
     9   7 N    3.501 --    11 C    1.107     7 C    1.100    10 C    0.979
                             8 O    0.127    12 O    0.117
    10   6 C    3.868 --     9 N    0.979    19 H    0.960    21 H    0.943
                            20 H    0.943
    11   6 C    3.951 --    12 O    1.685     9 N    1.107    13 N    1.069
    12   8 O    1.974 --    11 C    1.685     9 N    0.117    13 N    0.101
    13   7 N    3.483 --     5 C    1.209    11 C    1.069    14 C    0.983
                            12 O    0.101
    14   6 C    3.887 --    13 N    0.983    24 H    0.962    22 H    0.948
                            23 H    0.948
    15   1 H    0.974 --     1 C    0.948
    16   1 H    0.978 --     1 C    0.957
    17   1 H    0.978 --     1 C    0.960
    18   1 H    0.986 --     3 C    0.954
    19   1 H    0.978 --    10 C    0.960
    20   1 H    0.960 --    10 C    0.943
    21   1 H    0.961 --    10 C    0.943
    22   1 H    0.965 --    14 C    0.948
    23   1 H    0.964 --    14 C    0.948
    24   1 H    0.980 --    14 C    0.962
    25   1 H    0.017
 ---------------------------------------------------------------------------

molecular dipole:
                 x           y           z       tot (Debye)
 q only:        1.605      -1.615       0.006
   full:        1.876      -1.493       0.013       6.095

           -------------------------------------------------
          | TOTAL ENERGY              -42.132387270002 Eh   |
          | GRADIENT NORM               0.001821621459 Eh/α |
          | HOMO-LUMO GAP               0.708904097605 eV   |
           -------------------------------------------------

 * finished run on 2024/06/05 at 19:58:00.712
