   * xtb version 6.6.1 (8d0f1dd) compiled by 'conda@1efc2f54142f' on 2023-08-01
          program call               : xtb struc.xyz --opt loose --input .xc1 --gfn2

   ID    Z sym.   atoms
    1    7 N      1, 17
    2    6 C      2-6, 8, 9, 11-16, 18-23, 25, 26, 28-33
    3    8 O      7, 10, 24, 27
    4    1 H      34-72
constraining bond 23 56 to    3.7133300 Å, actual value:    2.7036277 Å

          :  Hamiltonian                  GFN2-xTB          :
 * total energy  :   -99.5861657 Eh     change       -0.4035485E-08 Eh
 * total energy  :   -99.8375050 Eh     change       -0.2513393E+00 Eh
 * total energy  :  -100.1427151 Eh     change       -0.3052100E+00 Eh
 * total energy  :  -100.5028126 Eh     change       -0.3600976E+00 Eh
 * total energy  :   -98.2532907 Eh     change        0.2249522E+01 Eh
 * total energy  :  -100.5716865 Eh     change       -0.2318396E+01 Eh
 * total energy  :  -100.6353986 Eh     change       -0.6371207E-01 Eh
 * total energy  :  -100.6152970 Eh     change        0.2010165E-01 Eh
 * total energy  :  -100.6838463 Eh     change       -0.6854935E-01 Eh
 * total energy  :  -100.6907646 Eh     change       -0.6918298E-02 Eh
 * total energy  :  -100.7856398 Eh     change       -0.1053666E-03 Eh
 * total energy  :  -100.7857738 Eh     change       -0.1340148E-03 Eh
 * total energy  :  -100.7859317 Eh     change       -0.1578891E-03 Eh
 * total energy  :  -100.7861200 Eh     change       -0.1882711E-03 Eh
 * total energy  :  -100.7862999 Eh     change       -0.1799307E-03 Eh
 * total energy  :  -100.7864536 Eh     change       -0.1537536E-03 Eh
 * total energy  :  -100.7864769 Eh     change       -0.2326818E-04 Eh
 * total energy  :  -100.7865935 Eh     change       -0.1166186E-03 Eh
 * total energy  :  -100.7866325 Eh     change       -0.3895230E-04 Eh
   *** GEOMETRY OPTIMIZATION CONVERGED AFTER 78 ITERATIONS ***

 final structure:
================
72
 xtb: 6.6.1 (8d0f1dd)
N           -1.66719122705882        2.91438360392239        2.26690824126310
C           -1.62332696862940        2.20789246046860        1.23933992195548
C           -2.78736171565544        1.96743028033351        0.31741232221851
C           -3.25502603038170        0.52542383768255        0.44606055127891
C           -4.16940232938195        0.01119275455822       -0.47561579530000
C           -4.64021089958507       -1.28771708726979       -0.38084181802290
O           -5.52100771070055       -1.86090528883944       -1.22495270546799
C           -6.08877227345277       -1.09252183418756       -2.25956030982354
C           -4.18392060662058       -2.12219238984972        0.67652332234767
O           -4.69600408883160       -3.36739552300496        0.69146638891789
C           -4.36944498648059       -4.23250847159705        1.75445540530550
C           -3.27629389461430       -1.60497860288292        1.58759337445331
C           -2.81869209403252       -0.29834242171441        1.47260569000037
C           -2.25450331560787        2.22487107137848       -1.11570238321588
C           -1.32407749804642        1.12271464333902       -1.64986123397157
C            0.04625448472135        1.16164031254379       -1.09033622913254
N            0.74849350503473        0.11388389106016       -0.69970318744597
C            2.17839431311661        0.20982219694995       -0.51907873894814
C            2.92570660272279       -0.42962540651653       -1.70523192579468
C            4.40194418439636       -0.19583920092577       -1.55035158552349
C            4.99781358277808        0.92729108815084       -2.10698871137232
C            6.35094573006813        1.15699657766350       -1.91952724510830
C            7.14623370244153        0.30248453423389       -1.16724313528130
O            4.33652315839939        0.32868716395217        1.75962813489539
C            5.42530344433089        0.72031894132818        2.08557382661785
C            6.52448576640964       -0.83341938055799       -0.60366581994039
O            7.34490347506598       -1.61375311646650        0.13508449058776
C            6.83661353671528       -2.77627342481164        0.74818550424422
C            5.16973633144191       -1.08023403047379       -0.80639865108206
C            0.15719276032502       -1.19310584597927       -0.54093146969739
C           -4.00480482567519        2.89693300325900        0.60497649224577
C           -4.62589131838835        2.60347021531082        1.96842336028530
C           -3.66493954993880        4.38101883916458        0.50280715018983
H           -4.52964503464559        0.64123200679442       -1.27165216069037
H           -6.62903826905123       -0.22621861208492       -1.86635211432838
H           -6.78985180914377       -1.75491789980303       -2.76342814797430
H           -5.33066051408670       -0.75878038839481       -2.97568195512590
H           -4.66108066280331       -3.80813032747109        2.71951273395193
H           -4.93708928870773       -5.14318506768501        1.57398332448329
H           -3.30068617349688       -4.46840690165903        1.76628277359195
H           -2.92335377410390       -2.20988479924065        2.40687101228914
H           -2.13500533663661        0.07787328132927        2.21780843772165
H           -3.10244885093198        2.31202964895375       -1.79380091648302
H           -1.72422946244161        3.17770008249617       -1.12972983657142
H           -1.79014510759332        0.14833052981880       -1.51360901189204
H           -1.22021037976826        1.29475552754239       -2.72947804371576
H           -0.70253670372177        1.71316030872936        0.87168306697803
H            0.57932985448589        2.09959865545722       -1.15871892685394
H            2.47449400005963       -0.28265733777283        0.40924543719412
H            2.46683830108469        1.25945207792913       -0.44479561727688
H            2.57262724494614        0.02508531407553       -2.63296133740025
H            2.71699700165823       -1.49946913403452       -1.74014353112642
H            4.40868127489756        1.61616855878761       -2.69316600246886
H            6.80864827029189        2.02794983832671       -2.36530991022240
H            5.91238910694908        1.57504036870162        1.59685181425374
H            7.90996750875815        0.43352322529541       -1.04700419444171
H            6.00763417997655        0.25198805577003        2.89114451502097
H            7.66906652932985       -3.20036298288041        1.30586103393326
H            6.01962331848489       -2.54002614248591        1.43647021850678
H            6.49298850584416       -3.50123362914242        0.00471004721105
H            4.70203194431106       -1.95405285498172       -0.38097809046220
H           -0.05614871465620       -1.65449697678942       -1.50757601910590
H           -0.77305360121174       -1.12373593925812        0.02703411325322
H            0.84912776849353       -1.83081316763366        0.00354995789748
H           -4.75438615158506        2.66794006488025       -0.16135727247188
H           -3.91515087753547        2.82791211689184        2.75724685768134
H           -4.92616266421406        1.56160429077165        2.04878892030530
H           -5.50650525670203        3.22488995216989        2.10803302859055
H           -2.90692933910800        4.64642732581588        1.23333721797078
H           -3.31724584299049        4.65191642196624       -0.49054641749166
H           -4.55690449349014        4.96533046393775        0.71280624066291
H           -0.81513414895570        3.03296017716719        2.80528036553593

          :  Hamiltonian                  GFN2-xTB          :
         :: total energy            -100.786632476269 Eh    ::
         :: gradient norm              0.001968314646 Eh/a0 ::
         :: HOMO-LUMO gap              1.765395229781 eV    ::
         :: SCC energy              -100.794806524791 Eh    ::
         :: -> dispersion             -0.076392754176 Eh    ::
         :: repulsion energy           1.538584678167 Eh    ::

    * Orbital Energies and Occupations

         #    Occupation            Energy/Eh            Energy/eV
      -------------------------------------------------------------
         1        2.0000           -0.8133700             -22.1329
       ...           ...                  ...                  ...
        78        1.9978           -0.5313410             -14.4585
        79        1.9973           -0.5280496             -14.3690
        80        1.9969           -0.5260305             -14.3140
        81        1.9951           -0.5185000             -14.1091
        82        1.9942           -0.5159363             -14.0393
        83        1.9938           -0.5149178             -14.0116
        84        1.9931           -0.5131539             -13.9636
        85        1.9857           -0.5015441             -13.6477
        86        1.9785           -0.4950328             -13.4705
        87        1.9778           -0.4945205             -13.4566
        88        1.9255           -0.4749364             -12.9237
        89        1.8996           -0.4700010             -12.7894
        90        1.8506           -0.4632916             -12.6068 (HOMO)
        91        0.3415           -0.3984146             -10.8414 (LUMO)
        92        0.0621           -0.3689547             -10.0398
        93        0.0122           -0.3427943              -9.3279
        94        0.0030           -0.3205824              -8.7235
        95        0.0028           -0.3196808              -8.6990
        96        0.0025           -0.3176919              -8.6448
        97        0.0013           -0.3068158              -8.3489
        98        0.0000           -0.1950360              -5.3072
        99        0.0000           -0.1889890              -5.1427
       100                         -0.1344981              -3.6599
       101                         -0.0719003              -1.9565
       ...                                ...                  ...
       171                          1.2296382              33.4602
      -------------------------------------------------------------
                  HL-Gap            0.0648771 Eh            1.7654 eV

     #   Z          covCN         q      C6AA      α(0)
     1   7 N        1.774    -0.264    27.666     7.789
     2   6 C        2.826     0.102    25.733     8.312
     3   6 C        3.908     0.007    20.410     6.422
     4   6 C        2.974     0.003    27.952     8.672
     5   6 C        2.920    -0.080    30.002     8.982
     6   6 C        2.862     0.130    25.143     8.219
     7   8 O        1.706    -0.227    17.765     5.691
     8   6 C        3.644     0.027    20.463     6.502
     9   6 C        2.864     0.130    25.153     8.221
    10   8 O        1.706    -0.225    17.735     5.686
    11   6 C        3.645     0.026    20.478     6.504
    12   6 C        2.913    -0.073    29.831     8.956
    13   6 C        2.921    -0.053    29.305     8.877
    14   6 C        3.812    -0.065    21.746     6.637
    15   6 C        3.802    -0.070    21.837     6.653
    16   6 C        2.844     0.012    27.739     8.632
    17   7 N        2.729     0.025    20.814     6.776
    18   6 C        3.758    -0.025    21.077     6.545
    19   6 C        3.809    -0.069    21.816     6.649
    20   6 C        2.973     0.017    27.638     8.623
    21   6 C        2.918    -0.046    29.153     8.854
    22   6 C        2.921    -0.029    28.724     8.789
    23   6 C        2.914    -0.077    29.919     8.969
    24   8 O        0.856    -0.317    20.096     6.010
    25   6 C        2.702     0.177    24.183     8.049
    26   6 C        2.866     0.146    24.830     8.168
    27   8 O        1.706    -0.247    18.098     5.744
    28   6 C        3.642     0.029    20.430     6.498
    29   6 C        2.917    -0.070    29.746     8.944
    30   6 C        3.701    -0.073    22.066     6.717
    31   6 C        3.853    -0.007    20.670     6.466
    32   6 C        3.756    -0.119    22.842     6.815
    33   6 C        3.755    -0.119    22.827     6.812
    34   1 H        0.926     0.053     2.283     2.363
    35   1 H        0.924     0.055     2.258     2.350
    36   1 H        0.925     0.083     1.952     2.185
    37   1 H        0.924     0.048     2.343     2.394
    38   1 H        0.924     0.057     2.238     2.339
    39   1 H        0.925     0.083     1.952     2.185
    40   1 H        0.924     0.050     2.315     2.379
    41   1 H        0.926     0.055     2.261     2.352
    42   1 H        0.926     0.042     2.423     2.434
    43   1 H        0.925     0.061     2.189     2.314
    44   1 H        0.924     0.055     2.260     2.351
    45   1 H        0.925     0.067     2.115     2.274
    46   1 H        0.923     0.083     1.948     2.183
    47   1 H        0.922     0.009     2.911     2.668
    48   1 H        0.926     0.074     2.042     2.235
    49   1 H        0.924     0.095     1.829     2.115
    50   1 H        0.924     0.075     2.036     2.232
    51   1 H        0.924     0.052     2.292     2.367
    52   1 H        0.924     0.056     2.249     2.345
    53   1 H        0.926     0.043     2.409     2.427
    54   1 H        0.926     0.055     2.260     2.351
    55   1 H        0.923     0.044     2.400     2.423
    56   1 H        0.930     0.105     1.737     2.061
    57   1 H        0.923     0.051     2.313     2.379
    58   1 H        0.925     0.078     2.003     2.213
    59   1 H        0.924     0.048     2.350     2.397
    60   1 H        0.924     0.053     2.285     2.364
    61   1 H        0.926     0.045     2.378     2.411
    62   1 H        0.924     0.078     2.004     2.214
    63   1 H        0.924     0.080     1.974     2.197
    64   1 H        0.925     0.086     1.923     2.168
    65   1 H        0.924     0.038     2.470     2.458
    66   1 H        0.925     0.071     2.077     2.254
    67   1 H        0.925     0.036     2.497     2.471
    68   1 H        0.925     0.053     2.287     2.365
    69   1 H        0.925     0.060     2.193     2.316
    70   1 H        0.925     0.035     2.511     2.478
    71   1 H        0.925     0.056     2.249     2.345
    72   1 H        0.860     0.161     1.329     1.806

Wiberg/Mayer (AO) data.
largest (>0.10) Wiberg bond orders for each atom

     #   Z sym  total        # sym  WBO       # sym  WBO       # sym  WBO
 ---------------------------------------------------------------------------
     1   7 N    3.041 --     2 C    1.961    72 H    0.940
     2   6 C    3.932 --     1 N    1.961     3 C    0.994    47 H    0.901
     3   6 C    3.974 --     2 C    0.994     4 C    0.969    14 C    0.958
                            31 C    0.940
     4   6 C    3.944 --    13 C    1.411     5 C    1.368     3 C    0.969
     5   6 C    3.960 --     6 C    1.400     4 C    1.368    34 H    0.957
     6   6 C    3.901 --     5 C    1.400     9 C    1.218     7 O    1.103
     7   8 O    2.254 --     6 C    1.103     8 C    0.977
     8   6 C    3.931 --     7 O    0.977    36 H    0.976    37 H    0.973
                            35 H    0.973
     9   6 C    3.897 --    12 C    1.389     6 C    1.218    10 O    1.106
    10   8 O    2.253 --     9 C    1.106    11 C    0.976
    11   6 C    3.929 --    39 H    0.977    10 O    0.976    40 H    0.973
                            38 H    0.973
    12   6 C    3.959 --    13 C    1.405     9 C    1.389    41 H    0.963
    13   6 C    3.950 --     4 C    1.411    12 C    1.405    42 H    0.963
    14   6 C    3.974 --    15 C    0.983    44 H    0.972    43 H    0.969
                             3 C    0.958
    15   6 C    3.985 --    16 C    1.058    14 C    0.983    45 H    0.961
                            46 H    0.924
    16   6 C    3.637 --    17 N    1.439    15 C    1.058    48 H    0.956
    17   7 N    3.513 --    16 C    1.439    30 C    0.997    18 C    0.983
    18   6 C    3.947 --    17 N    0.983    50 H    0.967    19 C    0.965
                            49 H    0.956
    19   6 C    3.977 --    20 C    1.007    51 H    0.973    52 H    0.971
                            18 C    0.965
    20   6 C    3.966 --    29 C    1.412    21 C    1.402    19 C    1.007
    21   6 C    3.941 --    22 C    1.418    20 C    1.402    53 H    0.968
    22   6 C    3.973 --    23 C    1.465    21 C    1.418    54 H    0.967
    23   6 C    3.942 --    22 C    1.465    26 C    1.313    56 H    0.972
    24   8 O    2.032 --    25 C    1.937
    25   6 C    3.829 --    24 O    1.937    55 H    0.944    57 H    0.944
    26   6 C    3.904 --    29 C    1.361    23 C    1.313    27 O    1.093
    27   8 O    2.238 --    26 C    1.093    28 C    0.978
    28   6 C    3.933 --    27 O    0.978    58 H    0.977    59 H    0.974
                            60 H    0.973
    29   6 C    3.949 --    20 C    1.412    26 C    1.361    61 H    0.962
    30   6 C    3.956 --    17 N    0.997    64 H    0.976    62 H    0.964
                            63 H    0.963
    31   6 C    3.970 --    33 C    1.009    32 C    1.008    65 H    0.959
                             3 C    0.940
    32   6 C    3.976 --    31 C    1.008    67 H    0.981    68 H    0.981
                            66 H    0.972
    33   6 C    3.981 --    31 C    1.009    70 H    0.982    71 H    0.980
                            69 H    0.976
    34   1 H    0.996 --     5 C    0.957
    35   1 H    0.993 --     8 C    0.973
    36   1 H    0.992 --     8 C    0.976
    37   1 H    0.993 --     8 C    0.973
    38   1 H    0.992 --    11 C    0.973
    39   1 H    0.992 --    11 C    0.977
    40   1 H    0.992 --    11 C    0.973
    41   1 H    0.995 --    12 C    0.963
    42   1 H    0.997 --    13 C    0.963
    43   1 H    0.995 --    14 C    0.969
    44   1 H    0.996 --    14 C    0.972
    45   1 H    0.995 --    15 C    0.961
    46   1 H    0.972 --    15 C    0.924
    47   1 H    0.984 --     2 C    0.901
    48   1 H    0.994 --    16 C    0.956
    49   1 H    0.986 --    18 C    0.956
    50   1 H    0.994 --    18 C    0.967
    51   1 H    0.996 --    19 C    0.973
    52   1 H    0.996 --    19 C    0.971
    53   1 H    0.997 --    21 C    0.968
    54   1 H    0.994 --    22 C    0.967
    55   1 H    0.993 --    25 C    0.944
    56   1 H    0.988 --    23 C    0.972
    57   1 H    0.993 --    25 C    0.944
    58   1 H    0.993 --    28 C    0.977
    59   1 H    0.993 --    28 C    0.974
    60   1 H    0.992 --    28 C    0.973
    61   1 H    0.997 --    29 C    0.962
    62   1 H    0.985 --    30 C    0.964
    63   1 H    0.988 --    30 C    0.963
    64   1 H    0.992 --    30 C    0.976
    65   1 H    0.991 --    31 C    0.959
    66   1 H    0.990 --    32 C    0.972
    67   1 H    0.996 --    32 C    0.981
    68   1 H    0.993 --    32 C    0.981
    69   1 H    0.993 --    33 C    0.976
    70   1 H    0.997 --    33 C    0.982
    71   1 H    0.993 --    33 C    0.980
    72   1 H    0.968 --     1 N    0.940
 ---------------------------------------------------------------------------

molecular dipole:
                 x           y           z       tot (Debye)
 q only:        0.088      -0.146      -0.741
   full:        0.552      -0.254      -0.763       2.481

           -------------------------------------------------
          | TOTAL ENERGY             -100.786632476269 Eh   |
          | GRADIENT NORM               0.001968314646 Eh/α |
          | HOMO-LUMO GAP               1.765395229781 eV   |
           -------------------------------------------------

 * finished run on 2024/04/06 at 11:17:12.565
