   * xtb version 6.6.1 (8d0f1dd) compiled by 'conda@1efc2f54142f' on 2023-08-01
          program call               : xtb xtbopt.xyz --opt crude --input .xc2 --gfn2

   ID    Z sym.   atoms
    1    7 N      1, 17
    2    6 C      2-6, 8, 9, 11-16, 18-23, 25, 26, 28-33
    3    8 O      7, 10, 24, 27
    4    1 H      34-72

          :  Hamiltonian                  GFN2-xTB          :
 * total energy  :   -99.2546468 Eh     change       -0.3126388E-12 Eh
 * total energy  :   -99.3614387 Eh     change       -0.1067920E+00 Eh
 * total energy  :   -99.3628197 Eh     change       -0.1381018E-02 Eh
 * total energy  :   -99.3633231 Eh     change       -0.5033296E-03 Eh
 * total energy  :   -99.3606805 Eh     change        0.2642602E-02 Eh
 * total energy  :   -99.3633651 Eh     change       -0.2684643E-02 Eh
 * total energy  :   -99.3634490 Eh     change       -0.8391778E-04 Eh
   *** GEOMETRY OPTIMIZATION CONVERGED AFTER 7 ITERATIONS ***

 final structure:
================
72
 xtb: 6.6.1 (8d0f1dd)
N           -1.65914364492977        2.91627371938734        2.25889432963278
C           -1.61951672199366        2.20647643179634        1.23311348312688
C           -2.78678406660734        1.96709476785267        0.31479876449461
C           -3.25456998916825        0.52535108233806        0.44517650421305
C           -4.17039378092785        0.01014302992777       -0.47445494732227
C           -4.64114116479313       -1.28872101630594       -0.37764496663013
O           -5.52323913151388       -1.86242987981521       -1.22012551209072
C           -6.09216647913613       -1.09436963525015       -2.25437994988904
C           -4.18322604675370       -2.12213810076997        0.67977669238643
O           -4.69415488122010       -3.36783312853096        0.69661916108808
C           -4.36395801235442       -4.23223112419867        1.75906184596487
C           -3.27482092562377       -1.60361434804840        1.58941765375414
C           -2.81729498335790       -0.29722954212384        1.47239722526600
C           -2.25917651101034        2.22572908002111       -1.12013768159300
C           -1.33417228623711        1.12199164647711       -1.66115533665120
C            0.03854526334879        1.15955440135314       -1.10845576139105
N            0.73928071942354        0.11271427314891       -0.71260472436302
C            2.16864788417786        0.20955380022244       -0.52822553810316
C            2.92009206458884       -0.43095075439916       -1.71112495056331
C            4.39566508280809       -0.19381558862631       -1.55055139921277
C            4.98760530048783        0.93292374238986       -2.10455741704231
C            6.34109654972147        1.17013937697515       -1.91588626401101
C            7.10271260792472        0.30206209807315       -1.16321296578681
O            4.33296708472973        0.30787942929348        1.78754253947742
C            5.42579317643546        0.70885750325852        2.09120352913802
C            6.51542019350340       -0.83442094293962       -0.59283769607741
O            7.33614984682856       -1.61134018769953        0.14577327515574
C            6.82772931368158       -2.77811314413668        0.75077635722534
C            5.15997762385403       -1.07898773217034       -0.80237690622806
C            0.14786990943062       -1.19362650303731       -0.55090207138210
C           -4.00263850425312        2.89734505140004        0.60680870576257
C           -4.62059673402367        2.60282025720628        1.97138512919448
C           -3.66112713347026        4.38112835233801        0.50568792981867
H           -4.53160652098404        0.63960050477153       -1.27050585980228
H           -6.63311542474427       -0.22875047125223       -1.86059379960126
H           -6.79275182599550       -1.75729007764994       -2.75820360085029
H           -5.33464427094959       -0.75962301622349       -2.97063919053100
H           -4.65582604644668       -3.80899568769836        2.72457408549809
H           -4.92911659111061       -5.14456374712359        1.57901228869471
H           -3.29449295264466       -4.46506184461935        1.76976159403820
H           -2.92134132372863       -2.20756940297903        2.40915464567825
H           -2.13280083333794        0.07980898752835        2.21640948401315
H           -3.10970038254884        2.31781705334813       -1.79435827490923
H           -1.72570807149929        3.17682725230150       -1.13389585787945
H           -1.80070765933327        0.14825303359953       -1.52233334589020
H           -1.23734029794639        1.29413837886081       -2.74128397344316
H           -0.70116779298541        1.70778154227497        0.86575715973744
H            0.57241523819882        2.09681668942075       -1.17940614193125
H            2.46229076944397       -0.28144207855504        0.40190258633755
H            2.45629132984148        1.25952956579142       -0.45480426646619
H            2.56907265760323        0.02162495534356       -2.64070793817764
H            2.71247086585712       -1.50105348633393       -1.74535977594898
H            4.39622586979211        1.61923898725063       -2.69186181335014
H            6.80115408831208        2.04026328798343       -2.35760609268776
H            5.90010358110466        1.56461708089182        1.58941291428038
H            8.15443721775024        0.47424569361490       -1.00192436750578
H            6.02447951630189        0.24804565533845        2.88973551567848
H            7.66206889363452       -3.21118999735429        1.29935624692410
H            6.01556256425427       -2.54642926461967        1.44689685520616
H            6.47669682563339       -3.49546007250846        0.00293930054496
H            4.68725261579153       -1.95228832884537       -0.38116051366285
H           -0.05735245410001       -1.66079262654505       -1.51669530936154
H           -0.78697293679739       -1.12202933236247        0.00941540724975
H            0.83609040384459       -1.82770484659879        0.00285878462285
H           -4.75435410890172        2.67002955596127       -0.15796248914564
H           -3.90818337098949        2.82693445054812        2.75878510286753
H           -4.92046928573261        1.56083609637376        2.05170981819335
H           -5.50109745835119        3.22387955399908        2.11330066155711
H           -2.90001062607060        4.64409611498814        1.23390763609324
H           -3.31655964377002        4.65304393895406       -0.48849966550100
H           -4.55140203554359        4.96651339490040        0.71999144298412
H           -0.80480654954584        3.03222561433465        2.79438655169494

          :  Hamiltonian                  GFN2-xTB          :
         :: total energy             -99.363449037390 Eh    ::
         :: gradient norm              0.001294647891 Eh/a0 ::
         :: HOMO-LUMO gap              1.763718319458 eV    ::
         :: SCC energy              -100.767658052110 Eh    ::
         :: -> dispersion             -0.076370870192 Eh    ::
         :: repulsion energy           1.402622026782 Eh    ::

    * Orbital Energies and Occupations

         #    Occupation            Energy/Eh            Energy/eV
      -------------------------------------------------------------
         1        2.0000           -0.8133450             -22.1322
       ...           ...                  ...                  ...
        78        1.9978           -0.5312826             -14.4569
        79        1.9973           -0.5283192             -14.3763
        80        1.9969           -0.5260123             -14.3135
        81        1.9951           -0.5184779             -14.1085
        82        1.9942           -0.5158112             -14.0359
        83        1.9935           -0.5141306             -13.9902
        84        1.9931           -0.5131471             -13.9634
        85        1.9855           -0.5013701             -13.6430
        86        1.9782           -0.4948715             -13.4661
        87        1.9778           -0.4945306             -13.4569
        88        1.9253           -0.4749090             -12.9229
        89        1.9002           -0.4701174             -12.7925
        90        1.8506           -0.4633177             -12.6075 (HOMO)
        91        0.3425           -0.3985022             -10.8438 (LUMO)
        92        0.0621           -0.3689893             -10.0407
        93        0.0122           -0.3427781              -9.3275
        94        0.0030           -0.3206146              -8.7244
        95        0.0025           -0.3177976              -8.6477
        96        0.0024           -0.3172427              -8.6326
        97        0.0013           -0.3070378              -8.3549
        98        0.0000           -0.1950689              -5.3081
        99        0.0000           -0.1864258              -5.0729
       100                         -0.1345859              -3.6623
       101                         -0.0719551              -1.9580
       ...                                ...                  ...
       171                          0.5715482              15.5526
      -------------------------------------------------------------
                  HL-Gap            0.0648155 Eh            1.7637 eV

     #   Z          covCN         q      C6AA      α(0)
     1   7 N        1.774    -0.264    27.672     7.790
     2   6 C        2.826     0.102    25.735     8.313
     3   6 C        3.907     0.007    20.411     6.422
     4   6 C        2.974     0.003    27.954     8.673
     5   6 C        2.920    -0.080    30.003     8.982
     6   6 C        2.862     0.130    25.143     8.219
     7   8 O        1.706    -0.227    17.766     5.691
     8   6 C        3.644     0.027    20.462     6.502
     9   6 C        2.864     0.130    25.154     8.221
    10   8 O        1.706    -0.225    17.736     5.686
    11   6 C        3.645     0.026    20.478     6.504
    12   6 C        2.913    -0.073    29.831     8.956
    13   6 C        2.921    -0.053    29.304     8.877
    14   6 C        3.812    -0.065    21.745     6.637
    15   6 C        3.802    -0.070    21.837     6.653
    16   6 C        2.844     0.012    27.738     8.631
    17   7 N        2.729     0.025    20.813     6.776
    18   6 C        3.758    -0.025    21.071     6.544
    19   6 C        3.809    -0.069    21.814     6.648
    20   6 C        2.972     0.015    27.662     8.627
    21   6 C        2.922    -0.045    29.127     8.850
    22   6 C        2.917    -0.025    28.626     8.774
    23   6 C        2.920    -0.051    29.273     8.872
    24   8 O        0.856    -0.317    20.097     6.010
    25   6 C        2.702     0.177    24.183     8.049
    26   6 C        2.864     0.150    24.741     8.153
    27   8 O        1.706    -0.246    18.067     5.739
    28   6 C        3.643     0.029    20.424     6.497
    29   6 C        2.921    -0.069    29.726     8.941
    30   6 C        3.701    -0.073    22.065     6.717
    31   6 C        3.853    -0.007    20.669     6.466
    32   6 C        3.756    -0.119    22.840     6.814
    33   6 C        3.755    -0.119    22.828     6.813
    34   1 H        0.926     0.053     2.283     2.363
    35   1 H        0.924     0.055     2.258     2.350
    36   1 H        0.925     0.083     1.953     2.185
    37   1 H        0.924     0.048     2.344     2.394
    38   1 H        0.924     0.057     2.237     2.339
    39   1 H        0.925     0.083     1.952     2.185
    40   1 H        0.924     0.050     2.315     2.379
    41   1 H        0.926     0.055     2.261     2.351
    42   1 H        0.926     0.042     2.422     2.433
    43   1 H        0.925     0.061     2.189     2.313
    44   1 H        0.924     0.055     2.260     2.351
    45   1 H        0.925     0.067     2.115     2.274
    46   1 H        0.923     0.083     1.948     2.183
    47   1 H        0.922     0.008     2.916     2.670
    48   1 H        0.926     0.074     2.043     2.235
    49   1 H        0.924     0.095     1.835     2.118
    50   1 H        0.924     0.074     2.042     2.235
    51   1 H        0.924     0.052     2.294     2.369
    52   1 H        0.924     0.056     2.252     2.347
    53   1 H        0.926     0.043     2.411     2.428
    54   1 H        0.926     0.057     2.231     2.336
    55   1 H        0.923     0.044     2.402     2.424
    56   1 H        0.926     0.067     2.121     2.277
    57   1 H        0.923     0.051     2.310     2.377
    58   1 H        0.925     0.078     1.999     2.211
    59   1 H        0.924     0.048     2.343     2.394
    60   1 H        0.924     0.053     2.283     2.363
    61   1 H        0.926     0.045     2.379     2.412
    62   1 H        0.924     0.078     2.003     2.213
    63   1 H        0.924     0.081     1.974     2.197
    64   1 H        0.925     0.085     1.923     2.169
    65   1 H        0.924     0.038     2.471     2.458
    66   1 H        0.925     0.071     2.078     2.254
    67   1 H        0.925     0.036     2.498     2.471
    68   1 H        0.925     0.053     2.288     2.365
    69   1 H        0.925     0.061     2.190     2.314
    70   1 H        0.925     0.035     2.511     2.478
    71   1 H        0.925     0.056     2.249     2.345
    72   1 H        0.860     0.161     1.330     1.807

Wiberg/Mayer (AO) data.
largest (>0.10) Wiberg bond orders for each atom

     #   Z sym  total        # sym  WBO       # sym  WBO       # sym  WBO
 ---------------------------------------------------------------------------
     1   7 N    3.040 --     2 C    1.961    72 H    0.940
     2   6 C    3.932 --     1 N    1.961     3 C    0.994    47 H    0.902
     3   6 C    3.974 --     2 C    0.994     4 C    0.969    14 C    0.958
                            31 C    0.940
     4   6 C    3.944 --    13 C    1.410     5 C    1.368     3 C    0.969
     5   6 C    3.960 --     6 C    1.399     4 C    1.368    34 H    0.958
     6   6 C    3.901 --     5 C    1.399     9 C    1.218     7 O    1.103
     7   8 O    2.254 --     6 C    1.103     8 C    0.977
     8   6 C    3.931 --     7 O    0.977    36 H    0.976    37 H    0.973
                            35 H    0.973
     9   6 C    3.897 --    12 C    1.389     6 C    1.218    10 O    1.106
    10   8 O    2.253 --     9 C    1.106    11 C    0.976
    11   6 C    3.929 --    39 H    0.977    10 O    0.976    40 H    0.973
                            38 H    0.973
    12   6 C    3.959 --    13 C    1.406     9 C    1.389    41 H    0.963
    13   6 C    3.950 --     4 C    1.410    12 C    1.406    42 H    0.962
    14   6 C    3.974 --    15 C    0.983    44 H    0.972    43 H    0.969
                             3 C    0.958
    15   6 C    3.985 --    16 C    1.059    14 C    0.983    45 H    0.960
                            46 H    0.925
    16   6 C    3.635 --    17 N    1.439    15 C    1.059    48 H    0.956
    17   7 N    3.513 --    16 C    1.439    30 C    0.998    18 C    0.984
    18   6 C    3.947 --    17 N    0.984    50 H    0.967    19 C    0.965
                            49 H    0.956
    19   6 C    3.976 --    20 C    1.006    51 H    0.973    52 H    0.971
                            18 C    0.965
    20   6 C    3.966 --    29 C    1.412    21 C    1.404    19 C    1.006
    21   6 C    3.941 --    22 C    1.411    20 C    1.404    53 H    0.968
    22   6 C    3.973 --    23 C    1.471    21 C    1.411    54 H    0.967
    23   6 C    3.942 --    22 C    1.471    26 C    1.320    56 H    0.965
    24   8 O    2.032 --    25 C    1.937
    25   6 C    3.829 --    24 O    1.937    55 H    0.944    57 H    0.944
    26   6 C    3.907 --    29 C    1.356    23 C    1.320    27 O    1.094
    27   8 O    2.239 --    26 C    1.094    28 C    0.977
    28   6 C    3.933 --    27 O    0.977    58 H    0.977    59 H    0.974
                            60 H    0.973
    29   6 C    3.949 --    20 C    1.412    26 C    1.356    61 H    0.963
    30   6 C    3.956 --    17 N    0.998    64 H    0.976    62 H    0.964
                            63 H    0.963
    31   6 C    3.970 --    33 C    1.009    32 C    1.008    65 H    0.959
                             3 C    0.940
    32   6 C    3.976 --    31 C    1.008    67 H    0.981    68 H    0.981
                            66 H    0.973
    33   6 C    3.981 --    31 C    1.009    70 H    0.982    71 H    0.980
                            69 H    0.976
    34   1 H    0.996 --     5 C    0.958
    35   1 H    0.993 --     8 C    0.973
    36   1 H    0.992 --     8 C    0.976
    37   1 H    0.993 --     8 C    0.973
    38   1 H    0.992 --    11 C    0.973
    39   1 H    0.992 --    11 C    0.977
    40   1 H    0.992 --    11 C    0.973
    41   1 H    0.995 --    12 C    0.963
    42   1 H    0.997 --    13 C    0.962
    43   1 H    0.995 --    14 C    0.969
    44   1 H    0.996 --    14 C    0.972
    45   1 H    0.995 --    15 C    0.960
    46   1 H    0.972 --    15 C    0.925
    47   1 H    0.984 --     2 C    0.902
    48   1 H    0.994 --    16 C    0.956
    49   1 H    0.986 --    18 C    0.956
    50   1 H    0.994 --    18 C    0.967
    51   1 H    0.996 --    19 C    0.973
    52   1 H    0.996 --    19 C    0.971
    53   1 H    0.997 --    21 C    0.968
    54   1 H    0.994 --    22 C    0.967
    55   1 H    0.993 --    25 C    0.944
    56   1 H    0.994 --    23 C    0.965
    57   1 H    0.993 --    25 C    0.944
    58   1 H    0.993 --    28 C    0.977
    59   1 H    0.993 --    28 C    0.974
    60   1 H    0.992 --    28 C    0.973
    61   1 H    0.997 --    29 C    0.963
    62   1 H    0.985 --    30 C    0.964
    63   1 H    0.988 --    30 C    0.963
    64   1 H    0.992 --    30 C    0.976
    65   1 H    0.991 --    31 C    0.959
    66   1 H    0.990 --    32 C    0.973
    67   1 H    0.996 --    32 C    0.981
    68   1 H    0.993 --    32 C    0.981
    69   1 H    0.993 --    33 C    0.976
    70   1 H    0.997 --    33 C    0.982
    71   1 H    0.993 --    33 C    0.980
    72   1 H    0.968 --     1 N    0.940
 ---------------------------------------------------------------------------

molecular dipole:
                 x           y           z       tot (Debye)
 q only:        0.064      -0.159      -0.771
   full:        0.554      -0.258      -0.800       2.559

           -------------------------------------------------
          | TOTAL ENERGY              -99.363449037390 Eh   |
          | GRADIENT NORM               0.001294647891 Eh/α |
          | HOMO-LUMO GAP               1.763718319458 eV   |
           -------------------------------------------------

 * finished run on 2024/04/06 at 11:17:13.969
