   * xtb version 6.6.1 (8d0f1dd) compiled by 'conda@1efc2f54142f' on 2023-08-01
          program call               : xtb xtbopt.xyz --opt crude --input .xc2 --gfn2

   ID    Z sym.   atoms
    1    6 C      1, 3, 5-7, 10, 11, 14
    2    7 N      2, 4, 9, 13
    3    8 O      8, 12
    4    1 H      15-25

          :  Hamiltonian                  GFN2-xTB          :
 * total energy  :   -42.0311791 Eh     change        0.2195577E-11 Eh
 * total energy  :   -42.0312263 Eh     change       -0.4722334E-04 Eh
   *** GEOMETRY OPTIMIZATION CONVERGED AFTER 2 ITERATIONS ***

 final structure:
================
25
 xtb: 6.6.1 (8d0f1dd)
C            3.41900476920099        1.25226980572183        0.05708095254463
N            2.47027101334193        0.17039579386740        0.03232706782332
C            2.74522691769760       -1.13013383673611        0.06262462157572
N            1.60494088538261       -1.84497026947957        0.03468230043339
C            0.55615317304967       -0.96367498140245       -0.01530471095011
C            1.10308332309278        0.31159482908585       -0.01547232750914
C            0.28335120108816        1.50059850545211       -0.05231971585790
O            0.66934204007474        2.64750239071361       -0.07380250763459
N           -1.09337046755597        1.14468320183610       -0.05860368132927
C           -2.03383685125347        2.25731710178123       -0.07151895441062
C           -1.61052437840385       -0.06479781127397       -0.05756320229963
O           -4.09256283164305       -3.09187436837164        0.09556149275360
N           -0.79937632194664       -1.18231354716307       -0.04845746340367
C           -1.35109105912271       -2.39636307581970       -0.06865554976963
H            3.94211869471282        1.27469175459859        1.01396071681946
H            4.15145093498774        1.13127387966391       -0.74057882380825
H            2.88420206769234        2.19197913142823       -0.07745722269683
H            3.73019402145832       -1.55295393631123        0.10413475638467
H           -1.47076744125085        3.18803352551003       -0.03641979779223
H           -2.63462970729765        2.22380021423703       -0.97832808804787
H           -2.69644600384715        2.18963401569822        0.78873341935579
H           -0.72608402490014       -3.27041277753919       -0.07025407812810
H           -2.43832737783616       -2.49945303641943       -0.05767939111765
H           -5.00172689873199       -2.81439152071946        0.21513314874692
H            1.54983583610661       -2.85419644674880        0.04934865621619

          :  Hamiltonian                  GFN2-xTB          :
         :: total energy             -42.031226333262 Eh    ::
         :: gradient norm              0.001134773179 Eh/a0 ::
         :: HOMO-LUMO gap              0.714016315677 eV    ::
         :: SCC energy               -42.543120965025 Eh    ::
         :: -> dispersion             -0.021403521385 Eh    ::
         :: repulsion energy           0.511846353737 Eh    ::

    * Orbital Energies and Occupations

         #    Occupation            Energy/Eh            Energy/eV
      -------------------------------------------------------------
         1        2.0000           -0.9235102             -25.1300
       ...           ...                  ...                  ...
        25        1.9999           -0.6581862             -17.9102
        26        1.9999           -0.6557271             -17.8432
        27        1.9998           -0.6409998             -17.4425
        28        1.9998           -0.6356269             -17.2963
        29        1.9996           -0.6265109             -17.0482
        30        1.9984           -0.6044815             -16.4488
        31        1.9980           -0.6004739             -16.3397
        32        1.9966           -0.5921242             -16.1125
        33        1.9943           -0.5837760             -15.8854
        34        1.9934           -0.5816258             -15.8268
        35        1.7728           -0.5236673             -14.2497
        36        1.6343           -0.5148383             -14.0095
        37        1.6123           -0.5137008             -13.9785 (HOMO)
        38        0.8845           -0.4874612             -13.2645 (LUMO)
        39        0.0948           -0.4436214             -12.0716
        40        0.0190           -0.4175373             -11.3618
        41        0.0025           -0.3853471             -10.4858
        42        0.0000           -0.2954041              -8.0384
        43                         -0.2094684              -5.6999
        44                         -0.1948334              -5.3017
        45                         -0.1443728              -3.9286
        46                         -0.1234128              -3.3582
        47                         -0.0657476              -1.7891
        48                         -0.0402951              -1.0965
       ...                                ...                  ...
        67                          0.5212661              14.1844
      -------------------------------------------------------------
                  HL-Gap            0.0262396 Eh            0.7140 eV

     #   Z          covCN         q      C6AA      α(0)
     1   6 C        3.691    -0.094    22.485     6.786
     2   7 N        2.832     0.078    19.881     6.622
     3   6 C        3.056     0.059    26.626     8.462
     4   7 N        2.791    -0.053    22.259     7.007
     5   6 C        3.062     0.088    25.982     8.359
     6   6 C        3.115    -0.002    27.915     8.655
     7   6 C        2.767     0.255    22.714     7.805
     8   8 O        0.857    -0.359    20.873     6.125
     9   7 N        2.745     0.022    20.871     6.785
    10   6 C        3.719    -0.079    22.136     6.720
    11   6 C        1.920    -0.066    32.902     9.263
    12   8 O        0.806    -0.514    24.129     6.585
    13   7 N        2.740     0.096    19.585     6.573
    14   6 C        2.813    -0.055    29.365     8.878
    15   1 H        0.924     0.110     1.698     2.038
    16   1 H        0.925     0.108     1.716     2.048
    17   1 H        0.925     0.137     1.484     1.905
    18   1 H        0.926     0.129     1.545     1.944
    19   1 H        0.925     0.114     1.660     2.015
    20   1 H        0.925     0.104     1.745     2.066
    21   1 H        0.925     0.104     1.746     2.066
    22   1 H        0.926     0.091     1.870     2.138
    23   1 H        0.924     0.202     1.091     1.633
    24   1 H        0.806     0.293     0.743     1.354
    25   1 H        0.860     0.233     0.952     1.528

Wiberg/Mayer (AO) data.
largest (>0.10) Wiberg bond orders for each atom

     #   Z sym  total        # sym  WBO       # sym  WBO       # sym  WBO
 ---------------------------------------------------------------------------
     1   6 C    3.912 --     2 N    0.984    16 H    0.961    17 H    0.961
                            15 H    0.956
     2   7 N    3.669 --     3 C    1.384     6 C    1.160     1 C    0.984
     3   6 C    3.858 --     2 N    1.384     4 N    1.303    18 H    0.951
     4   7 N    3.574 --     3 C    1.303     5 C    1.175    25 H    0.916
     5   6 C    3.879 --     6 C    1.367     4 N    1.175    13 N    1.118
     6   6 C    3.892 --     5 C    1.367     2 N    1.160     7 C    1.085
     7   6 C    3.884 --     8 O    1.680     6 C    1.085     9 N    1.025
     8   8 O    1.958 --     7 C    1.680     9 N    0.111
     9   7 N    3.652 --    11 C    1.465     7 C    1.025    10 C    0.971
                             8 O    0.111
    10   6 C    3.913 --     9 N    0.971    19 H    0.967    21 H    0.963
                            20 H    0.962
    11   6 C    2.782 --     9 N    1.465    13 N    1.126
    12   8 O    0.976 --    24 H    0.906
    13   7 N    3.700 --    14 C    1.336    11 C    1.126     5 C    1.118
    14   6 C    3.316 --    13 N    1.336    22 H    0.968    23 H    0.887
    15   1 H    0.984 --     1 C    0.956
    16   1 H    0.985 --     1 C    0.961
    17   1 H    0.981 --     1 C    0.961
    18   1 H    0.982 --     3 C    0.951
    19   1 H    0.985 --    10 C    0.967
    20   1 H    0.985 --    10 C    0.962
    21   1 H    0.985 --    10 C    0.963
    22   1 H    0.990 --    14 C    0.968
    23   1 H    0.957 --    14 C    0.887
    24   1 H    0.913 --    12 O    0.906
    25   1 H    0.945 --     4 N    0.916
 ---------------------------------------------------------------------------

molecular dipole:
                 x           y           z       tot (Debye)
 q only:        2.921      -0.699       0.068
   full:        3.286      -1.178       0.117       8.877

           -------------------------------------------------
          | TOTAL ENERGY              -42.031226333262 Eh   |
          | GRADIENT NORM               0.001134773179 Eh/α |
          | HOMO-LUMO GAP               0.714016315677 eV   |
           -------------------------------------------------

 * finished run on 2024/06/05 at 19:58:05.569
