   * xtb version 6.6.1 (8d0f1dd) compiled by 'conda@1efc2f54142f' on 2023-08-01
          program call               : xtb xtbopt.xyz --opt crude --input .xc2 --gfn2

   ID    Z sym.   atoms
    1    6 C      1, 3, 5-7, 10, 11, 14
    2    7 N      2, 4, 9, 13
    3    8 O      8, 12
    4    1 H      15-25

          :  Hamiltonian                  GFN2-xTB          :
 * total energy  :   -42.1363685 Eh     change       -0.2994938E-10 Eh
   *** GEOMETRY OPTIMIZATION CONVERGED AFTER 1 ITERATIONS ***

 final structure:
================
25
 xtb: 6.6.1 (8d0f1dd)
C            3.96836953476713        3.34469172572366        0.19006412769511
N            2.17259806080701       -1.10901458067389       -0.06097499931853
C            2.05889502915507       -2.40128132975665       -0.12080165656616
N            0.74887734045502       -2.80424078264172       -0.13228708903143
C            0.00310409094198       -1.67286990105123       -0.07502578080972
C            0.91495013532550       -0.60861270470183       -0.03056036769940
C            0.45255642315034        0.75883924698717        0.02978098435258
O            1.14642788071688        1.75049036435220        0.06734921756968
N           -0.94162303327335        0.83584222789197        0.03880856591555
C           -1.54636971812045        2.15750842086198        0.08862042894361
C           -1.84945134094006       -0.20877304851956        0.00267351594992
O           -3.03677006332014       -0.01922042918881        0.02227968925001
N           -1.33094830306009       -1.51289207555880       -0.05894997220595
C           -2.24828507389123       -2.63130760407277       -0.10814315321634
H            4.30011304880423        3.78621862623193        1.11186012968729
H            4.56659115096620        3.45991693223364       -0.69386524249604
H            3.04526462375478        2.79375070294881        0.15244015645362
H            2.88543465093833       -3.08237209877462       -0.15838189912000
H           -0.74988110805059        2.89785440489508        0.07639108674196
H           -2.20632804098515        2.29394775802793       -0.76896894764666
H           -2.14421212192394        2.26014489980689        0.99505917191218
H           -2.10210941203825       -3.28255046288618        0.75464636733110
H           -2.10564423450128       -3.19908559533145       -1.02867286569869
H           -3.26144458349534       -2.23107955078812       -0.08679220847938
H            0.42031657799344       -3.75766660430969       -0.17537764168848

          :  Hamiltonian                  GFN2-xTB          :
         :: total energy             -42.136368477327 Eh    ::
         :: gradient norm              0.001584819282 Eh/a0 ::
         :: HOMO-LUMO gap              1.094883777067 eV    ::
         :: SCC energy               -42.661630561364 Eh    ::
         :: -> dispersion             -0.020645205882 Eh    ::
         :: repulsion energy           0.525205635954 Eh    ::

    * Orbital Energies and Occupations

         #    Occupation            Energy/Eh            Energy/eV
      -------------------------------------------------------------
         1        2.0000           -0.8844107             -24.0660
       ...           ...                  ...                  ...
        25        1.9996           -0.6527293             -17.7617
        26        1.9989           -0.6360271             -17.3072
        27        1.9981           -0.6278292             -17.0841
        28        1.9978           -0.6252747             -17.0146
        29        1.9973           -0.6221265             -16.9289
        30        1.9969           -0.6201040             -16.8739
        31        1.9931           -0.6073124             -16.5258
        32        1.9930           -0.6071161             -16.5205
        33        1.9741           -0.5862896             -15.9538
        34        1.9226           -0.5685527             -15.4711
        35        1.9164           -0.5672845             -15.4366
        36        1.8675           -0.5595908             -15.2272
        37        1.7094           -0.5457557             -14.8508 (HOMO)
        38        0.6334           -0.5055195             -13.7559 (LUMO)
        39        0.0021           -0.4089222             -11.1273
        40        0.0006           -0.3898158             -10.6074
        41        0.0001           -0.3601321              -9.7997
        42        0.0000           -0.2791945              -7.5973
        43                         -0.1979305              -5.3860
        44                         -0.1557087              -4.2370
        45                         -0.1305681              -3.5529
        46                         -0.0664057              -1.8070
        47                         -0.0443548              -1.2070
        48                         -0.0294073              -0.8002
       ...                                ...                  ...
        67                          0.5515641              15.0088
      -------------------------------------------------------------
                  HL-Gap            0.0402362 Eh            1.0949 eV

     #   Z          covCN         q      C6AA      α(0)
     1   6 C        2.778    -0.068    29.679     8.923
     2   7 N        1.905    -0.152    25.076     7.424
     3   6 C        3.154     0.105    25.406     8.243
     4   7 N        2.789    -0.079    22.783     7.089
     5   6 C        3.055     0.115    25.419     8.268
     6   6 C        3.203     0.024    26.887     8.447
     7   6 C        2.764     0.276    22.324     7.738
     8   8 O        0.858    -0.344    20.591     6.084
     9   7 N        2.745    -0.076    22.717     7.079
    10   6 C        3.710    -0.061    21.810     6.674
    11   6 C        2.732     0.319    21.581     7.606
    12   8 O        0.860    -0.346    20.626     6.089
    13   7 N        2.737    -0.042    22.060     6.976
    14   6 C        3.697    -0.070    22.020     6.712
    15   1 H        0.926     0.137     1.482     1.904
    16   1 H        0.926     0.137     1.484     1.905
    17   1 H        0.926     0.160     1.324     1.799
    18   1 H        0.926     0.111     1.687     2.031
    19   1 H        0.925     0.114     1.665     2.018
    20   1 H        0.924     0.107     1.721     2.052
    21   1 H        0.924     0.107     1.724     2.053
    22   1 H        0.924     0.092     1.865     2.135
    23   1 H        0.924     0.091     1.867     2.137
    24   1 H        0.925     0.128     1.554     1.950
    25   1 H        0.860     0.216     1.030     1.590

Wiberg/Mayer (AO) data.
largest (>0.10) Wiberg bond orders for each atom

     #   Z sym  total        # sym  WBO       # sym  WBO       # sym  WBO
 ---------------------------------------------------------------------------
     1   6 C    2.924 --    16 H    0.978    15 H    0.978    17 H    0.961
     2   7 N    3.001 --     3 C    1.559     6 C    1.272
     3   6 C    3.847 --     2 N    1.559     4 N    1.212    18 H    0.954
     4   7 N    3.576 --     5 C    1.224     3 C    1.212    25 H    0.924
     5   6 C    3.894 --     6 C    1.274     4 N    1.224    13 N    1.212
     6   6 C    3.833 --     5 C    1.274     2 N    1.272     7 C    1.070
     7   6 C    3.945 --     8 O    1.673     9 N    1.099     6 C    1.070
     8   8 O    1.970 --     7 C    1.673     9 N    0.127
     9   7 N    3.514 --    11 C    1.121     7 C    1.099    10 C    0.976
                             8 O    0.127    12 O    0.123
    10   6 C    3.888 --     9 N    0.976    19 H    0.964    20 H    0.953
                            21 H    0.952
    11   6 C    3.954 --    12 O    1.686     9 N    1.121    13 N    1.054
    12   8 O    1.994 --    11 C    1.686     9 N    0.123    13 N    0.108
    13   7 N    3.496 --     5 C    1.212    11 C    1.054    14 C    0.977
                            12 O    0.108
    14   6 C    3.910 --    13 N    0.977    24 H    0.962    23 H    0.962
                            22 H    0.962
    15   1 H    0.980 --     1 C    0.978
    16   1 H    0.980 --     1 C    0.978
    17   1 H    0.972 --     1 C    0.961
    18   1 H    0.985 --     3 C    0.954
    19   1 H    0.982 --    10 C    0.964
    20   1 H    0.971 --    10 C    0.953
    21   1 H    0.970 --    10 C    0.952
    22   1 H    0.979 --    14 C    0.962
    23   1 H    0.979 --    14 C    0.962
    24   1 H    0.982 --    14 C    0.962
    25   1 H    0.952 --     4 N    0.924
 ---------------------------------------------------------------------------

molecular dipole:
                 x           y           z       tot (Debye)
 q only:        1.723      -0.881      -0.023
   full:        1.534      -1.545      -0.051       5.535

           -------------------------------------------------
          | TOTAL ENERGY              -42.136368477327 Eh   |
          | GRADIENT NORM               0.001584819282 Eh/α |
          | HOMO-LUMO GAP               1.094883777067 eV   |
           -------------------------------------------------

 * finished run on 2024/06/05 at 20:00:07.666
