   * xtb version 6.6.1 (8d0f1dd) compiled by 'conda@1efc2f54142f' on 2023-08-01
          program call               : xtb struc.xyz --opt loose --input .xc1 --gfn2

   ID    Z sym.   atoms
    1    7 N      1, 17
    2    6 C      2-6, 8, 9, 11-16, 18-23, 25, 26, 28-33
    3    8 O      7, 10, 24, 27
    4    1 H      34-72
constraining bond 20 21 to    4.0000000 Å, actual value:    1.3812242 Å

          :  Hamiltonian                  GFN2-xTB          :
 * total energy  :   -98.1796154 Eh     change       -0.4035485E-08 Eh
 * total energy  :   -98.3639828 Eh     change       -0.1843674E+00 Eh
 * total energy  :   -98.5575993 Eh     change       -0.1936165E+00 Eh
 * total energy  :   -98.7503658 Eh     change       -0.1927665E+00 Eh
 * total energy  :   -98.9468234 Eh     change       -0.1964576E+00 Eh
 * total energy  :   -99.0567414 Eh     change       -0.1099180E+00 Eh
 * total energy  :   -99.0872768 Eh     change       -0.3053541E-01 Eh
 * total energy  :   -99.1084237 Eh     change       -0.2114694E-01 Eh
 * total energy  :   -99.1196980 Eh     change       -0.1127427E-01 Eh
 * total energy  :   -99.1269015 Eh     change       -0.7203466E-02 Eh
 * total energy  :   -99.2891905 Eh     change       -0.1251000E-03 Eh
 * total energy  :   -99.2892921 Eh     change       -0.1016188E-03 Eh
 * total energy  :   -99.2893679 Eh     change       -0.7585810E-04 Eh
 * total energy  :   -99.2894294 Eh     change       -0.6150731E-04 Eh
 * total energy  :   -99.2894865 Eh     change       -0.5707919E-04 Eh
 * total energy  :   -99.2895454 Eh     change       -0.5891360E-04 Eh
 * total energy  :   -99.2896058 Eh     change       -0.6032196E-04 Eh
 * total energy  :   -99.2896598 Eh     change       -0.5407279E-04 Eh
 * total energy  :   -99.2896766 Eh     change       -0.1680551E-04 Eh
   *** GEOMETRY OPTIMIZATION CONVERGED AFTER 122 ITERATIONS ***

 final structure:
================
72
 xtb: 6.6.1 (8d0f1dd)
N           -1.89919743245593        2.85998642113889        2.08510338140574
C           -1.91160333023413        2.03129227492592        1.15022589192390
C           -3.05078527630188        1.83929677624109        0.18831362631246
C           -3.58568381837026        0.42114195744288        0.31497602611668
C           -4.48128123425328       -0.07016062585449       -0.63714138990945
C           -5.00974770878055       -1.34641197037897       -0.54379639340064
O           -5.88208656463684       -1.89419363894533       -1.41697200042972
C           -6.39304429030964       -1.10482962185711       -2.46487787095095
C           -4.63105779880784       -2.18271977748691        0.54008940077852
O           -5.18999263551134       -3.41070699379929        0.54935131813695
C           -4.93672428081249       -4.26865292010825        1.63710853951337
C           -3.74585076124412       -1.68777491904699        1.48390464699180
C           -3.23317016603606       -0.40134156628683        1.37293148826999
C           -2.44912266575439        2.05760154507247       -1.22560996110556
C           -1.55522002467578        0.90708018743237       -1.72175789816774
C           -0.25027820801783        0.84612615927169       -1.02850485338263
N            0.35569794355858       -0.26870191678149       -0.62382399162561
C            1.68715753356502       -0.19564774759440       -0.06991470662394
C            2.77596852872498       -0.35653186443070       -1.14931329367186
C            4.12429313187220       -0.06964559599165       -0.57956107632759
C            6.73415879267155        2.91365398634944       -0.74538458566973
C            6.77375338100528        1.74812611647029       -0.42691866609437
C            7.17560246474590        0.48019668741083        0.03532646306626
O            8.39567987035778        0.36752099928148        0.62083919373524
C            9.21859651612341        1.50288535016747        0.72816485034568
C            6.48913649813873       -0.71832607841874       -0.10653693720587
O            7.23443158412806       -1.78955899278165        0.27871857784393
C            6.64195929193697       -3.05620055405867        0.42559444792906
C            5.15818351192495       -0.91997885184297       -0.62125555066115
C           -0.26306421245789       -1.56479001713982       -0.76245687732306
C           -4.23135777933091        2.82709022485934        0.42107649793240
C           -4.87164184628855        2.61465245175499        1.79090092105149
C           -3.83241770842675        4.29151005119006        0.26007039687547
H           -4.77978910597917        0.56227509783006       -1.45660498863256
H           -6.90670126126933       -0.21671506505914       -2.08452735333627
H           -7.10832537824674       -1.73853951760145       -2.98540393877643
H           -5.60552305122347       -0.80244345101251       -3.16316920529560
H           -5.25690414083244       -3.82176463914669        2.58301177760518
H           -5.52325351932573       -5.16484157636289        1.44478670932946
H           -3.87704389438143       -4.53661964355849        1.69973801944117
H           -3.45561820834522       -2.29248992347896        2.32772843237159
H           -2.57206265266250       -0.04101993728242        2.14593427762747
H           -3.26532331551966        2.18388102199905       -1.93615555470585
H           -1.87052052289696        2.98205018813718       -1.22169019459145
H           -2.09490828002895       -0.03505655811368       -1.64039693223566
H           -1.36297717835032        1.09095080431105       -2.78710547928224
H           -1.05417570222860        1.37917185954349        0.89582343229102
H            0.32074334298028        1.75934055460214       -0.95304797703496
H            1.80183584148957       -0.97366507408393        0.68800136323677
H            1.81819694636557        0.77477245545531        0.41575895280750
H            2.56591622170151        0.35985174530396       -1.94963263619694
H            2.74151147472645       -1.36099312488260       -1.57253659693758
H            6.56692568110684        3.89777721022084       -1.07119181570517
H            4.25021478450451        0.90721976239158       -0.13264377588921
H            8.74582312092554        2.28481150824916        1.33038316672281
H            9.46514102567210        1.91531523283998       -0.25443277283646
H           10.12572388948936        1.15788358186330        1.22031641388771
H            7.37082859402011       -3.65335538403338        0.97172669892166
H            5.71002122247586       -3.00553273408422        0.99678554304304
H            6.45405240549114       -3.53128305939244       -0.54309028312427
H            4.98927111409950       -1.89988418319530       -1.05067044319306
H           -0.46832193033837       -1.79202727332718       -1.81020762237660
H           -1.20416980498511       -1.60156189833152       -0.20601136730540
H            0.40342146708992       -2.32705132117402       -0.36809034007836
H           -4.98402399358909        2.59440056680183       -0.34113552279950
H           -4.16464955889325        2.86569735538625        2.57505811036295
H           -5.19147834911486        1.58338901202011        1.91933525997417
H           -5.74187908579311        3.25790246343098        1.89061360154898
H           -3.05110094170477        4.54845836099674        0.96844223012110
H           -3.49132511107268        4.51154000264977       -0.74806817536061
H           -4.69567839101990        4.91980246590658        0.46315614686377
H           -1.05864946273854        2.92050510064250        2.65160806684207

          :  Hamiltonian                  GFN2-xTB          :
         :: total energy             -99.289676642679 Eh    ::
         :: gradient norm              0.001247986603 Eh/a0 ::
         :: HOMO-LUMO gap              1.304608656376 eV    ::
         :: SCC energy              -100.712336360652 Eh    ::
         :: -> dispersion             -0.073157739884 Eh    ::
         :: repulsion energy           1.421149466581 Eh    ::

    * Orbital Energies and Occupations

         #    Occupation            Energy/Eh            Energy/eV
      -------------------------------------------------------------
         1        2.0000           -0.8078577             -21.9829
       ...           ...                  ...                  ...
        78        1.9985           -0.5244574             -14.2712
        79        1.9985           -0.5242407             -14.2653
        80        1.9982           -0.5219780             -14.2037
        81        1.9977           -0.5181375             -14.0992
        82        1.9976           -0.5174644             -14.0809
        83        1.9971           -0.5140843             -13.9889
        84        1.9964           -0.5106987             -13.8968
        85        1.9958           -0.5083611             -13.8332
        86        1.9950           -0.5055655             -13.7571
        87        1.9827           -0.4857816             -13.2188
        88        1.9447           -0.4670785             -12.7099
        89        1.8847           -0.4549534             -12.3799
        90        1.7045           -0.4384540             -11.9309 (HOMO)
        91        0.4366           -0.3905105             -10.6263 (LUMO)
        92        0.0551           -0.3542736              -9.6403
        93        0.0159           -0.3343243              -9.0974
        94        0.0039           -0.3117586              -8.4834
        95        0.0031           -0.3084626              -8.3937
        96        0.0004           -0.2758017              -7.5049
        97        0.0003           -0.2723430              -7.4108
        98        0.0000           -0.1903032              -5.1784
        99        0.0000           -0.1858362              -5.0569
       100                         -0.1367349              -3.7207
       101                         -0.0791592              -2.1540
       ...                                ...                  ...
       171                          1.2699418              34.5569
      -------------------------------------------------------------
                  HL-Gap            0.0479435 Eh            1.3046 eV

     #   Z          covCN         q      C6AA      α(0)
     1   7 N        1.773    -0.272    27.886     7.820
     2   6 C        2.827     0.101    25.754     8.316
     3   6 C        3.908     0.006    20.415     6.422
     4   6 C        2.974     0.001    28.004     8.680
     5   6 C        2.921    -0.080    30.011     8.984
     6   6 C        2.862     0.128    25.185     8.226
     7   8 O        1.706    -0.233    17.858     5.706
     8   6 C        3.644     0.029    20.430     6.497
     9   6 C        2.864     0.128    25.201     8.229
    10   8 O        1.706    -0.231    17.835     5.702
    11   6 C        3.645     0.028    20.439     6.498
    12   6 C        2.914    -0.075    29.867     8.962
    13   6 C        2.922    -0.053    29.321     8.880
    14   6 C        3.813    -0.064    21.719     6.633
    15   6 C        3.802    -0.069    21.816     6.650
    16   6 C        2.845     0.003    27.945     8.664
    17   7 N        2.729     0.004    21.202     6.839
    18   6 C        3.756    -0.016    20.918     6.521
    19   6 C        3.805    -0.065    21.743     6.638
    20   6 C        2.892    -0.046    29.136     8.850
    21   6 C        1.910    -0.077    33.204     9.306
    22   6 C        1.966    -0.028    31.802     9.107
    23   6 C        2.840     0.142    24.905     8.179
    24   8 O        1.707    -0.216    17.593     5.663
    25   6 C        3.643     0.026    20.488     6.507
    26   6 C        2.840     0.122    25.312     8.245
    27   8 O        1.708    -0.228    17.783     5.694
    28   6 C        3.639     0.029    20.439     6.502
    29   6 C        2.891    -0.057    29.423     8.893
    30   6 C        3.698    -0.068    21.978     6.705
    31   6 C        3.853    -0.007    20.672     6.467
    32   6 C        3.756    -0.118    22.810     6.810
    33   6 C        3.755    -0.119    22.835     6.814
    34   1 H        0.926     0.051     2.312     2.378
    35   1 H        0.924     0.053     2.286     2.364
    36   1 H        0.925     0.080     1.981     2.201
    37   1 H        0.924     0.046     2.375     2.410
    38   1 H        0.924     0.054     2.271     2.357
    39   1 H        0.925     0.080     1.981     2.201
    40   1 H        0.924     0.047     2.360     2.402
    41   1 H        0.926     0.051     2.312     2.378
    42   1 H        0.926     0.038     2.477     2.461
    43   1 H        0.925     0.060     2.204     2.322
    44   1 H        0.924     0.053     2.282     2.362
    45   1 H        0.925     0.066     2.128     2.281
    46   1 H        0.923     0.076     2.017     2.221
    47   1 H        0.922     0.004     2.983     2.701
    48   1 H        0.926     0.067     2.122     2.278
    49   1 H        0.924     0.067     2.117     2.275
    50   1 H        0.924     0.067     2.124     2.279
    51   1 H        0.924     0.060     2.200     2.320
    52   1 H        0.924     0.056     2.247     2.344
    53   1 H        0.928     0.103     1.760     2.075
    54   1 H        0.925     0.044     2.399     2.422
    55   1 H        0.924     0.055     2.256     2.349
    56   1 H        0.924     0.057     2.230     2.335
    57   1 H        0.925     0.083     1.950     2.184
    58   1 H        0.925     0.081     1.966     2.193
    59   1 H        0.924     0.047     2.364     2.405
    60   1 H        0.924     0.053     2.289     2.366
    61   1 H        0.925     0.059     2.211     2.325
    62   1 H        0.924     0.076     2.024     2.225
    63   1 H        0.924     0.077     2.009     2.217
    64   1 H        0.925     0.079     1.990     2.206
    65   1 H        0.924     0.036     2.502     2.474
    66   1 H        0.925     0.067     2.122     2.278
    67   1 H        0.925     0.035     2.520     2.483
    68   1 H        0.925     0.050     2.322     2.383
    69   1 H        0.925     0.062     2.179     2.308
    70   1 H        0.925     0.034     2.533     2.489
    71   1 H        0.925     0.053     2.278     2.360
    72   1 H        0.860     0.154     1.375     1.837

Wiberg/Mayer (AO) data.
largest (>0.10) Wiberg bond orders for each atom

     #   Z sym  total        # sym  WBO       # sym  WBO       # sym  WBO
 ---------------------------------------------------------------------------
     1   7 N    3.036 --     2 C    1.953    72 H    0.943
     2   6 C    3.927 --     1 N    1.953     3 C    0.995    47 H    0.902
     3   6 C    3.977 --     2 C    0.995     4 C    0.971    14 C    0.955
                            31 C    0.944
     4   6 C    3.952 --    13 C    1.417     5 C    1.368     3 C    0.971
     5   6 C    3.964 --     6 C    1.403     4 C    1.368    34 H    0.958
     6   6 C    3.908 --     5 C    1.403     9 C    1.225     7 O    1.095
     7   8 O    2.253 --     6 C    1.095     8 C    0.979
     8   6 C    3.934 --     7 O    0.979    36 H    0.977    35 H    0.974
                            37 H    0.974
     9   6 C    3.905 --    12 C    1.394     6 C    1.225    10 O    1.098
    10   8 O    2.251 --     9 C    1.098    11 C    0.978
    11   6 C    3.933 --    10 O    0.978    39 H    0.977    40 H    0.974
                            38 H    0.974
    12   6 C    3.964 --    13 C    1.403     9 C    1.394    41 H    0.964
    13   6 C    3.957 --     4 C    1.417    12 C    1.403    42 H    0.963
    14   6 C    3.973 --    15 C    0.983    44 H    0.972    43 H    0.968
                             3 C    0.955
    15   6 C    3.988 --    16 C    1.060    14 C    0.983    45 H    0.960
                            46 H    0.928
    16   6 C    3.565 --    17 N    1.381    15 C    1.060    48 H    0.958
    17   7 N    3.459 --    16 C    1.381    30 C    0.999    18 C    0.990
    18   6 C    3.956 --    17 N    0.990    19 C    0.968    49 H    0.967
                            50 H    0.966
    19   6 C    3.978 --    20 C    1.032    52 H    0.973    18 C    0.968
                            51 H    0.956
    20   6 C    3.894 --    29 C    1.765    19 C    1.032    54 H    0.963
    21   6 C    3.887 --    22 C    2.762    53 H    0.967
    22   6 C    3.966 --    21 C    2.762    23 C    1.141
    23   6 C    3.816 --    26 C    1.394    22 C    1.141    24 O    1.087
    24   8 O    2.241 --    23 C    1.087    25 C    0.979
    25   6 C    3.926 --    24 O    0.979    57 H    0.976    55 H    0.972
                            56 H    0.971
    26   6 C    3.819 --    23 C    1.394    29 C    1.141    27 O    1.087
    27   8 O    2.224 --    26 C    1.087    28 C    0.982
    28   6 C    3.932 --    27 O    0.982    59 H    0.975    58 H    0.975
                            60 H    0.969
    29   6 C    3.964 --    20 C    1.765    26 C    1.141    61 H    0.951
    30   6 C    3.959 --    17 N    0.999    64 H    0.978    62 H    0.968
                            63 H    0.963
    31   6 C    3.974 --    33 C    1.009    32 C    1.008    65 H    0.961
                             3 C    0.944
    32   6 C    3.981 --    31 C    1.008    67 H    0.982    68 H    0.982
                            66 H    0.975
    33   6 C    3.983 --    31 C    1.009    70 H    0.983    71 H    0.981
                            69 H    0.976
    34   1 H    0.996 --     5 C    0.958
    35   1 H    0.994 --     8 C    0.974
    36   1 H    0.993 --     8 C    0.977
    37   1 H    0.994 --     8 C    0.974
    38   1 H    0.993 --    11 C    0.974
    39   1 H    0.993 --    11 C    0.977
    40   1 H    0.994 --    11 C    0.974
    41   1 H    0.996 --    12 C    0.964
    42   1 H    0.998 --    13 C    0.963
    43   1 H    0.995 --    14 C    0.968
    44   1 H    0.996 --    14 C    0.972
    45   1 H    0.994 --    15 C    0.960
    46   1 H    0.969 --    15 C    0.928
    47   1 H    0.988 --     2 C    0.902
    48   1 H    0.995 --    16 C    0.958
    49   1 H    0.992 --    18 C    0.967
    50   1 H    0.993 --    18 C    0.966
    51   1 H    0.991 --    19 C    0.956
    52   1 H    0.997 --    19 C    0.973
    53   1 H    0.989 --    21 C    0.967
    54   1 H    0.998 --    20 C    0.963
    55   1 H    0.989 --    25 C    0.972
    56   1 H    0.989 --    25 C    0.971
    57   1 H    0.992 --    25 C    0.976
    58   1 H    0.992 --    28 C    0.975
    59   1 H    0.993 --    28 C    0.975
    60   1 H    0.989 --    28 C    0.969
    61   1 H    0.994 --    29 C    0.951
    62   1 H    0.986 --    30 C    0.968
    63   1 H    0.985 --    30 C    0.963
    64   1 H    0.994 --    30 C    0.978
    65   1 H    0.993 --    31 C    0.961
    66   1 H    0.992 --    32 C    0.975
    67   1 H    0.997 --    32 C    0.982
    68   1 H    0.995 --    32 C    0.982
    69   1 H    0.993 --    33 C    0.976
    70   1 H    0.997 --    33 C    0.983
    71   1 H    0.994 --    33 C    0.981
    72   1 H    0.971 --     1 N    0.943
 ---------------------------------------------------------------------------

molecular dipole:
                 x           y           z       tot (Debye)
 q only:        1.426      -0.147      -0.786
   full:        1.686      -0.218      -0.933       4.929

           -------------------------------------------------
          | TOTAL ENERGY              -99.289676642679 Eh   |
          | GRADIENT NORM               0.001247986603 Eh/α |
          | HOMO-LUMO GAP               1.304608656376 eV   |
           -------------------------------------------------

 * finished run on 2024/04/06 at 11:14:05.415
