   * xtb version 6.6.1 (8d0f1dd) compiled by 'conda@1efc2f54142f' on 2023-08-01
          program call               : xtb struc.xyz --opt loose --input .xc1 --gfn2

   ID    Z sym.   atoms
    1    6 C      1, 3, 5-7, 10, 11, 14
    2    7 N      2, 4, 9, 13
    3    8 O      8, 12
    4    1 H      15-25
constraining bond 9 13 to    4.8400000 Å, actual value:    2.3869999 Å

          :  Hamiltonian                  GFN2-xTB          :
 * total energy  :   -31.5013627 Eh     change       -0.6633627E-10 Eh
 * total energy  :   -35.4527051 Eh     change       -0.3951342E+01 Eh
 * total energy  :   -38.3941683 Eh     change       -0.2941463E+01 Eh
 * total energy  :   -40.1834823 Eh     change       -0.1789314E+01 Eh
 * total energy  :   -41.2539022 Eh     change       -0.1070420E+01 Eh
 * total energy  :   -41.5609029 Eh     change       -0.3070007E+00 Eh
 * total energy  :   -41.6076942 Eh     change       -0.4679132E-01 Eh
 * total energy  :   -41.6666358 Eh     change       -0.5894161E-01 Eh
 * total energy  :   -41.7140373 Eh     change       -0.4740145E-01 Eh
 * total energy  :   -41.7400205 Eh     change       -0.2598324E-01 Eh
 * total energy  :   -42.1515197 Eh     change       -0.8305599E-04 Eh
 * total energy  :   -42.1515890 Eh     change       -0.6936741E-04 Eh
 * total energy  :   -42.1516657 Eh     change       -0.7665107E-04 Eh
 * total energy  :   -42.1517296 Eh     change       -0.6390386E-04 Eh
 * total energy  :   -42.1518428 Eh     change       -0.1131693E-03 Eh
 * total energy  :   -42.1519153 Eh     change       -0.7251917E-04 Eh
 * total energy  :   -42.1518658 Eh     change        0.4949307E-04 Eh
 * total energy  :   -42.1519748 Eh     change       -0.1090424E-03 Eh
 * total energy  :   -42.1519938 Eh     change       -0.1900696E-04 Eh
   *** GEOMETRY OPTIMIZATION CONVERGED AFTER 87 ITERATIONS ***

 final structure:
================
25
 xtb: 6.6.1 (8d0f1dd)
C            1.97601823815007        1.48773969286754        0.79504193636745
N            1.55176334433572        0.18812300993684        0.34705393268622
C            2.32965286358944       -0.85577587713771        0.24713503930151
N            1.68305001940044       -1.93247416516981       -0.14319130450622
C            0.29992609043019       -1.70677192969067       -0.28209670045839
C            0.19126879968049       -0.11586363949737       -0.10758147450733
C           -0.01368606355616        0.92910575297641       -1.31845625926506
O            0.42970399361384        0.75126798487894       -2.41096829712651
N           -0.58310297067101        2.06113016622431       -0.80542311283336
C           -1.27887224816819        1.80804743520260        0.44095370496278
C           -0.84398697096350        0.42357319838187        0.90468772334957
O           -1.21189431035451       -0.15119868949692        1.87958604876197
N           -0.40932497292644       -2.74122272147129       -0.38490195288832
C           -1.82140274073774       -2.77626124462518       -0.52114198456900
H            1.41538196838529        1.78336804778483        1.68256339629440
H            3.03300677237677        1.44746357256094        1.04926872487026
H            1.83391477877639        2.23692123821553        0.01606575724247
H            3.38369060100151       -0.83391388521657        0.47220187722210
H           -0.89541873767754        2.78124156587972       -1.44061870597708
H           -2.36972433215714        1.82012428265147        0.32465763991522
H           -1.02919004595146        2.55236541762694        1.20481595238818
H           -2.21214839165774       -3.41661112492635        0.27130257211145
H           -2.05265865433231       -3.26045141480655       -1.47035922061318
H           -2.30333165369639       -1.79550399683900       -0.47677050818561
H            2.05779613721234       -2.86618413471453       -0.24265316664296

          :  Hamiltonian                  GFN2-xTB          :
         :: total energy             -42.151993828485 Eh    ::
         :: gradient norm              0.002032481434 Eh/a0 ::
         :: HOMO-LUMO gap              2.588750938610 eV    ::
         :: SCC energy               -42.661669101643 Eh    ::
         :: -> dispersion             -0.023520649248 Eh    ::
         :: repulsion energy           0.508916680757 Eh    ::

    * Orbital Energies and Occupations

         #    Occupation            Energy/Eh            Energy/eV
      -------------------------------------------------------------
         1        2.0000           -0.9035175             -24.5860
       ...           ...                  ...                  ...
        25        2.0000           -0.6784885             -18.4626
        26        2.0000           -0.6665800             -18.1386
        27        2.0000           -0.6613301             -17.9957
        28        2.0000           -0.6588863             -17.9292
        29        2.0000           -0.6548198             -17.8186
        30        2.0000           -0.6503727             -17.6975
        31        2.0000           -0.6188960             -16.8410
        32        2.0000           -0.6157384             -16.7551
        33        2.0000           -0.5898654             -16.0511
        34        2.0000           -0.5848821             -15.9155
        35        1.9999           -0.5735119             -15.6061
        36        1.9982           -0.5475360             -14.8992
        37        1.9953           -0.5398144             -14.6891 (HOMO)
        38        0.0051           -0.4446796             -12.1003 (LUMO)
        39        0.0015           -0.4349029             -11.8343
        40        0.0000           -0.3865397             -10.5183
        41        0.0000           -0.3742657             -10.1843
        42                         -0.2313894              -6.2964
        43                         -0.2037609              -5.5446
        44                         -0.1566440              -4.2625
        45                         -0.1508028              -4.1036
        46                         -0.1272753              -3.4633
        47                         -0.1104900              -3.0066
        48                         -0.0977854              -2.6609
       ...                                ...                  ...
        67                          0.5358836              14.5821
      -------------------------------------------------------------
                  HL-Gap            0.0951348 Eh            2.5888 eV

     #   Z          covCN         q      C6AA      α(0)
     1   6 C        3.694    -0.085    22.303     6.757
     2   7 N        2.797     0.033    20.673     6.753
     3   6 C        2.897     0.110    25.577     8.292
     4   7 N        2.765    -0.062    22.430     7.034
     5   6 C        2.893     0.145    24.854     8.174
     6   6 C        3.889    -0.012    20.736     6.474
     7   6 C        2.780     0.277    22.311     7.737
     8   8 O        0.857    -0.336    20.444     6.062
     9   7 N        2.691    -0.170    24.683     7.379
    10   6 C        3.771    -0.035    21.231     6.566
    11   6 C        2.826     0.236    23.062     7.869
    12   8 O        0.856    -0.271    19.273     5.886
    13   7 N        1.840    -0.167    25.406     7.470
    14   6 C        3.701    -0.041    21.462     6.625
    15   1 H        0.924     0.098     1.799     2.098
    16   1 H        0.925     0.104     1.746     2.067
    17   1 H        0.925     0.105     1.744     2.065
    18   1 H        0.926     0.129     1.542     1.942
    19   1 H        0.860     0.221     1.003     1.569
    20   1 H        0.924     0.113     1.675     2.024
    21   1 H        0.924     0.115     1.655     2.012
    22   1 H        0.924     0.105     1.741     2.063
    23   1 H        0.924     0.103     1.760     2.075
    24   1 H        0.924     0.038     2.469     2.457
    25   1 H        0.860     0.246     0.899     1.485

Wiberg/Mayer (AO) data.
largest (>0.10) Wiberg bond orders for each atom

     #   Z sym  total        # sym  WBO       # sym  WBO       # sym  WBO
 ---------------------------------------------------------------------------
     1   6 C    3.934 --     2 N    0.991    16 H    0.971    15 H    0.962
                            17 H    0.960
     2   7 N    3.653 --     3 C    1.458     1 C    0.991     6 C    0.951
                             4 N    0.145
     3   6 C    3.950 --     2 N    1.458     4 N    1.385    18 H    0.941
     4   7 N    3.609 --     3 C    1.385     5 C    1.047    25 H    0.909
                             2 N    0.145
     5   6 C    3.945 --    13 N    1.838     4 N    1.047     6 C    0.898
     6   6 C    3.931 --     2 N    0.951    11 C    0.916     5 C    0.898
                             7 C    0.830
     7   6 C    3.955 --     8 O    1.791     9 N    1.239     6 C    0.830
     8   8 O    2.152 --     7 C    1.791     9 N    0.203
     9   7 N    3.420 --     7 C    1.239    10 C    1.003    19 H    0.918
                             8 O    0.203
    10   6 C    3.965 --     9 N    1.003    11 C    0.979    21 H    0.933
                            20 H    0.932
    11   6 C    3.932 --    12 O    1.929    10 C    0.979     6 C    0.916
    12   8 O    2.172 --    11 C    1.929
    13   7 N    3.181 --     5 C    1.838    14 C    1.048
    14   6 C    3.966 --    13 N    1.048    24 H    0.976    22 H    0.944
                            23 H    0.942
    15   1 H    0.989 --     1 C    0.962
    16   1 H    0.989 --     1 C    0.971
    17   1 H    0.987 --     1 C    0.960
    18   1 H    0.982 --     3 C    0.941
    19   1 H    0.949 --     9 N    0.918
    20   1 H    0.987 --    10 C    0.932
    21   1 H    0.986 --    10 C    0.933
    22   1 H    0.987 --    14 C    0.944
    23   1 H    0.986 --    14 C    0.942
    24   1 H    0.997 --    14 C    0.976
    25   1 H    0.939 --     4 N    0.909
 ---------------------------------------------------------------------------

molecular dipole:
                 x           y           z       tot (Debye)
 q only:        1.548       0.115       0.546
   full:        1.530       0.481       0.516       4.282

           -------------------------------------------------
          | TOTAL ENERGY              -42.151993828485 Eh   |
          | GRADIENT NORM               0.002032481434 Eh/α |
          | HOMO-LUMO GAP               2.588750938610 eV   |
           -------------------------------------------------

 * finished run on 2024/06/05 at 19:58:05.508
