   * xtb version 6.6.1 (8d0f1dd) compiled by 'conda@1efc2f54142f' on 2023-08-01
          program call               : xtb xtbopt.xyz --opt crude --input .xc2 --gfn2

   ID    Z sym.   atoms
    1    6 C      1, 3, 5-7, 10, 11, 14
    2    7 N      2, 4, 9, 13
    3    8 O      8, 12
    4    1 H      15-25
########################################################################
[WARNING] Please study the warnings concerning your input carefully
-1- readin_getIntValue: could not parse ''
########################################################################

          :  Hamiltonian                  GFN2-xTB          :
 * total energy  :   -42.1524589 Eh     change       -0.4973799E-13 Eh
 * total energy  :   -42.1593057 Eh     change       -0.6846818E-02 Eh
 * total energy  :   -42.1632599 Eh     change       -0.3954223E-02 Eh
 * total energy  :   -42.1651886 Eh     change       -0.1928642E-02 Eh
 * total energy  :   -42.1666802 Eh     change       -0.1491565E-02 Eh
 * total energy  :   -42.1680513 Eh     change       -0.1371114E-02 Eh
 * total energy  :   -42.1693316 Eh     change       -0.1280339E-02 Eh
 * total energy  :   -42.1703247 Eh     change       -0.9930566E-03 Eh
 * total energy  :   -42.1710171 Eh     change       -0.6923979E-03 Eh
 * total energy  :   -42.1714568 Eh     change       -0.4397299E-03 Eh
 * total energy  :   -42.1716233 Eh     change       -0.1665477E-03 Eh
 * total energy  :   -42.1717595 Eh     change       -0.1361224E-03 Eh
 * total energy  :   -42.1719828 Eh     change       -0.2233471E-03 Eh
   *** GEOMETRY OPTIMIZATION CONVERGED AFTER 13 ITERATIONS ***

 final structure:
================
25
 xtb: 6.6.1 (8d0f1dd)
C            2.18148427308129        1.49490206526271        0.80031299785212
N            1.72947804316040        0.18278677604228        0.42809323499742
C            2.44522058489926       -0.90761584494938        0.34916433419433
N            1.72840769386478       -1.95666797670056       -0.01377858166738
C            0.38625424499718       -1.60028300544077       -0.20187825057857
C            0.35888432724289       -0.07626716360499        0.03978039386018
C           -0.02762978369360        0.71694808622920       -1.25814783706147
O            0.56920539000575        0.63387879966819       -2.29055753766878
N           -1.09680502361496        1.45981981251613       -0.95809957078612
C           -1.55992042912207        1.41694354242446        0.40209652990036
C           -0.68216644807442        0.38391517077141        1.07843021826989
O           -0.74107319942174       -0.01332428778461        2.20017876764985
N           -0.47731836485483       -2.44631373561173       -0.49065795202663
C           -1.85547551344501       -2.19608153503848       -0.68464412921695
H            1.66414308826618        1.82714471800015        1.70295895241208
H            3.25123760626264        1.47370245143655        0.99482871152609
H            1.98343747662031        2.20354586890576       -0.00638544027778
H            3.50124798577949       -0.94488339073659        0.56172942317712
H           -1.53667810783196        2.04186073144603       -1.65430611297983
H           -2.61912230323525        1.15090385882861        0.48014086601000
H           -1.43369368558298        2.38100978731936        0.91001159141947
H           -2.40527800044544       -2.79247238241020        0.04392655240701
H           -2.12429727894591       -2.56485179485906       -1.67508252046716
H           -2.13118254621554       -1.14456182094595       -0.58821272235870
H            2.05207148440575       -2.90580018917186       -0.13873030068669

          :  Hamiltonian                  GFN2-xTB          :
         :: total energy             -42.171982807336 Eh    ::
         :: gradient norm              0.006465138208 Eh/a0 ::
         :: HOMO-LUMO gap              2.560128916119 eV    ::
         :: SCC energy               -42.701247750035 Eh    ::
         :: -> dispersion             -0.024415949923 Eh    ::
         :: repulsion energy           0.528963679477 Eh    ::

    * Orbital Energies and Occupations

         #    Occupation            Energy/Eh            Energy/eV
      -------------------------------------------------------------
         1        2.0000           -0.9078601             -24.7041
       ...           ...                  ...                  ...
        25        2.0000           -0.6787400             -18.4695
        26        2.0000           -0.6700235             -18.2323
        27        2.0000           -0.6631250             -18.0445
        28        2.0000           -0.6614578             -17.9992
        29        2.0000           -0.6582156             -17.9110
        30        2.0000           -0.6517917             -17.7362
        31        2.0000           -0.6267227             -17.0540
        32        2.0000           -0.6186801             -16.8351
        33        2.0000           -0.5904775             -16.0677
        34        2.0000           -0.5855371             -15.9333
        35        1.9999           -0.5726317             -15.5821
        36        1.9982           -0.5488563             -14.9351
        37        1.9951           -0.5407916             -14.7157 (HOMO)
        38        0.0056           -0.4467086             -12.1556 (LUMO)
        39        0.0012           -0.4347113             -11.8291
        40        0.0000           -0.3825283             -10.4091
        41        0.0000           -0.3642530              -9.9118
        42                         -0.1980334              -5.3888
        43                         -0.1769422              -4.8148
        44                         -0.1474679              -4.0128
        45                         -0.1262718              -3.4360
        46                         -0.1122951              -3.0557
        47                         -0.1057556              -2.8778
        48                         -0.0934255              -2.5422
       ...                                ...                  ...
        67                          0.5560001              15.1295
      -------------------------------------------------------------
                  HL-Gap            0.0940830 Eh            2.5601 eV

     #   Z          covCN         q      C6AA      α(0)
     1   6 C        3.691    -0.081    22.246     6.749
     2   7 N        2.798     0.044    20.464     6.719
     3   6 C        2.929     0.112    25.539     8.288
     4   7 N        2.757    -0.059    22.388     7.027
     5   6 C        2.937     0.152    24.715     8.153
     6   6 C        3.944    -0.007    20.629     6.454
     7   6 C        2.772     0.276    22.336     7.740
     8   8 O        0.857    -0.364    20.971     6.140
     9   7 N        2.709    -0.157    24.396     7.336
    10   6 C        3.765    -0.033    21.213     6.565
    11   6 C        2.830     0.235    23.086     7.873
    12   8 O        0.856    -0.277    19.372     5.901
    13   7 N        1.829    -0.181    25.733     7.517
    14   6 C        3.707    -0.040    21.430     6.617
    15   1 H        0.924     0.102     1.769     2.080
    16   1 H        0.925     0.106     1.730     2.057
    17   1 H        0.924     0.104     1.751     2.070
    18   1 H        0.926     0.133     1.516     1.925
    19   1 H        0.860     0.222     1.001     1.567
    20   1 H        0.924     0.118     1.634     1.999
    21   1 H        0.924     0.116     1.650     2.009
    22   1 H        0.924     0.103     1.761     2.075
    23   1 H        0.924     0.104     1.749     2.068
    24   1 H        0.924     0.029     2.605     2.524
    25   1 H        0.860     0.246     0.898     1.485

Wiberg/Mayer (AO) data.
largest (>0.10) Wiberg bond orders for each atom

     #   Z sym  total        # sym  WBO       # sym  WBO       # sym  WBO
 ---------------------------------------------------------------------------
     1   6 C    3.933 --     2 N    0.992    16 H    0.972    17 H    0.961
                            15 H    0.961
     2   7 N    3.665 --     3 C    1.466     1 C    0.992     6 C    0.968
                             4 N    0.143
     3   6 C    3.946 --     2 N    1.466     4 N    1.373    18 H    0.942
     4   7 N    3.607 --     3 C    1.373     5 C    1.053    25 H    0.910
                             2 N    0.143
     5   6 C    3.955 --    13 N    1.827     4 N    1.053     6 C    0.907
     6   6 C    3.950 --     2 N    0.968    11 C    0.911     5 C    0.907
                             7 C    0.853
     7   6 C    3.962 --     8 O    1.742     9 N    1.273     6 C    0.853
     8   8 O    2.112 --     7 C    1.742     9 N    0.217
     9   7 N    3.468 --     7 C    1.273    10 C    1.009    19 H    0.918
                             8 O    0.217
    10   6 C    3.965 --     9 N    1.009    11 C    0.982    20 H    0.933
                            21 H    0.925
    11   6 C    3.936 --    12 O    1.915    10 C    0.982     6 C    0.911
    12   8 O    2.169 --    11 C    1.915
    13   7 N    3.180 --     5 C    1.827    14 C    1.044
    14   6 C    3.967 --    13 N    1.044    24 H    0.969    23 H    0.947
                            22 H    0.946
    15   1 H    0.989 --     1 C    0.961
    16   1 H    0.988 --     1 C    0.972
    17   1 H    0.989 --     1 C    0.961
    18   1 H    0.981 --     3 C    0.942
    19   1 H    0.949 --     9 N    0.918
    20   1 H    0.986 --    10 C    0.933
    21   1 H    0.986 --    10 C    0.925
    22   1 H    0.989 --    14 C    0.946
    23   1 H    0.989 --    14 C    0.947
    24   1 H    0.998 --    14 C    0.969
    25   1 H    0.939 --     4 N    0.910
 ---------------------------------------------------------------------------

molecular dipole:
                 x           y           z       tot (Debye)
 q only:        1.297      -0.035       0.515
   full:        1.337       0.292       0.521       3.723

           -------------------------------------------------
          | TOTAL ENERGY              -42.171982807336 Eh   |
          | GRADIENT NORM               0.006465138208 Eh/α |
          | HOMO-LUMO GAP               2.560128916119 eV   |
           -------------------------------------------------

 * finished run on 2024/06/05 at 19:58:06.024
