   * xtb version 6.6.1 (8d0f1dd) compiled by 'conda@1efc2f54142f' on 2023-08-01
          program call               : xtb struc.xyz --opt loose --input .xc1 --gfn2

   ID    Z sym.   atoms
    1    6 C      1, 3, 5-7, 10, 11, 14
    2    7 N      2, 4, 9, 13
    3    8 O      8, 12
    4    1 H      15-25
constraining bond 7 11 to    5.0000000 Å, actual value:    2.4967489 Å

          :  Hamiltonian                  GFN2-xTB          :
 * total energy  :     2.5066188 Eh     change       -0.6650680E-10 Eh
 * total energy  :   -18.0497874 Eh     change       -0.2055641E+02 Eh
 * total energy  :   -29.8849870 Eh     change       -0.1183520E+02 Eh
 * total energy  :   -37.7393556 Eh     change       -0.7854369E+01 Eh
 * total energy  :   -41.2057658 Eh     change       -0.3466410E+01 Eh
 * total energy  :   -41.6726435 Eh     change       -0.4668777E+00 Eh
 * total energy  :   -41.6864617 Eh     change       -0.1381817E-01 Eh
 * total energy  :   -41.6700236 Eh     change        0.1643805E-01 Eh
 * total energy  :   -41.7239506 Eh     change       -0.5392697E-01 Eh
 * total energy  :   -41.7314163 Eh     change       -0.7465718E-02 Eh
 * total energy  :   -42.0431824 Eh     change        0.1820590E-02 Eh
 * total energy  :   -42.0452437 Eh     change       -0.2061286E-02 Eh
 * total energy  :   -42.0453257 Eh     change       -0.8193275E-04 Eh
 * total energy  :   -42.0453894 Eh     change       -0.6371534E-04 Eh
 * total energy  :   -42.0454399 Eh     change       -0.5047861E-04 Eh
 * total energy  :   -42.0455184 Eh     change       -0.7853910E-04 Eh
 * total energy  :   -42.0455407 Eh     change       -0.2230202E-04 Eh
 * total energy  :   -42.0455954 Eh     change       -0.5473314E-04 Eh
 * total energy  :   -42.0456394 Eh     change       -0.4396608E-04 Eh
   *** GEOMETRY OPTIMIZATION CONVERGED AFTER 55 ITERATIONS ***

 final structure:
================
25
 xtb: 6.6.1 (8d0f1dd)
C            3.29451630086486        1.17008746155048        0.02004556968589
N            2.34357636652093        0.08793609534417        0.01344748337895
C            2.66966834573129       -1.19850331145610        0.01675354178335
N            1.56503714165869       -1.95043316661247        0.03373492242913
C            0.43900099599943       -1.11010032793905        0.04048785772347
C            0.98268054772455        0.20535532427270        0.02932715383008
C            0.23529466942279        1.47070109369902        0.00320514332409
O            0.79970862384601        2.56572991870655       -0.08649854828643
N           -1.07608488655333        1.29905707654317        0.08224513428742
C           -2.02214899665612        2.32152628890208        0.08888835455877
C           -4.02249801430201       -1.08813812802118       -0.56363956337360
O           -4.37254457772681       -0.06010886617308       -0.26951852410704
N           -0.79601836048404       -1.44473557720062        0.04369649448734
C           -1.32758529650463       -2.74863896656251        0.05249026868948
H            3.72244259581270        1.28734334935175        1.01705485482828
H            4.09590624740275        0.96773738356183       -0.68873044600876
H            2.78052344933986        2.09520616903972       -0.24661051768515
H            3.67540678197111       -1.57585902645993        0.00777369335462
H           -1.56837744038891        3.31427111747868        0.21519943405452
H           -2.58618814017533        2.30853638774790       -0.85197383382560
H           -2.73551873182597        2.13927106212347        0.89922529485272
H           -0.96039830315935       -3.34550899320999        0.89530343176541
H           -1.10396845886095       -3.27932287835534       -0.88082271754407
H           -2.41393402088216       -2.65370265969427        0.12727391597641
H            1.54193467529018       -2.95946828503287        0.03281321972011

          :  Hamiltonian                  GFN2-xTB          :
         :: total energy             -42.045639397275 Eh    ::
         :: gradient norm              0.003553423118 Eh/a0 ::
         :: HOMO-LUMO gap              0.281380666181 eV    ::
         :: SCC energy               -42.582524396340 Eh    ::
         :: -> dispersion             -0.020268076735 Eh    ::
         :: repulsion energy           0.536767546202 Eh    ::

    * Orbital Energies and Occupations

         #    Occupation            Energy/Eh            Energy/eV
      -------------------------------------------------------------
         1        2.0000           -0.8965461             -24.3963
       ...           ...                  ...                  ...
        25        1.9999           -0.6561177             -17.8539
        26        1.9998           -0.6550785             -17.8256
        27        1.9994           -0.6331778             -17.2296
        28        1.9992           -0.6281133             -17.0918
        29        1.9988           -0.6228246             -16.9479
        30        1.9983           -0.6164783             -16.7752
        31        1.9972           -0.6088144             -16.5667
        32        1.9957           -0.6021289             -16.3848
        33        1.9725           -0.5725289             -15.5793
        34        1.9008           -0.5516140             -15.0102
        35        1.7693           -0.5371076             -14.6154
        36        1.6705           -0.5305559             -14.4372
        37        1.4871           -0.5217077             -14.1964 (HOMO)
        38        1.2028           -0.5113671             -13.9150 (LUMO)
        39        0.0071           -0.4155722             -11.3083
        40        0.0008           -0.3801332             -10.3440
        41        0.0007           -0.3798599             -10.3365
        42        0.0003           -0.3666470              -9.9770
        43        0.0000           -0.2871660              -7.8142
        44                         -0.1819323              -4.9506
        45                         -0.1472040              -4.0056
        46                         -0.0748899              -2.0379
        47                         -0.0714011              -1.9429
        48                         -0.0224717              -0.6115
       ...                                ...                  ...
        67                          0.7241311              19.7046
      -------------------------------------------------------------
                  HL-Gap            0.0103405 Eh            0.2814 eV

     #   Z          covCN         q      C6AA      α(0)
     1   6 C        3.693    -0.095    22.504     6.787
     2   7 N        2.825     0.087    19.732     6.597
     3   6 C        3.009     0.068    26.467     8.439
     4   7 N        2.787    -0.081    22.808     7.093
     5   6 C        2.966     0.142    24.916     8.188
     6   6 C        3.095     0.005    27.790     8.640
     7   6 C        2.760     0.283    22.203     7.716
     8   8 O        0.858    -0.381    21.301     6.188
     9   7 N        1.838    -0.165    25.358     7.463
    10   6 C        3.694    -0.034    21.356     6.612
    11   6 C        0.856     0.061    33.316     9.631
    12   8 O        0.856    -0.028    15.493     5.277
    13   7 N        1.825    -0.156    25.172     7.434
    14   6 C        3.695    -0.054    21.718     6.667
    15   1 H        0.924     0.108     1.713     2.047
    16   1 H        0.925     0.101     1.773     2.082
    17   1 H        0.924     0.146     1.419     1.863
    18   1 H        0.926     0.120     1.616     1.988
    19   1 H        0.923     0.117     1.638     2.001
    20   1 H        0.924     0.117     1.634     1.999
    21   1 H        0.924     0.117     1.638     2.002
    22   1 H        0.924     0.085     1.929     2.172
    23   1 H        0.924     0.094     1.837     2.119
    24   1 H        0.924     0.120     1.616     1.988
    25   1 H        0.860     0.222     1.001     1.568

Wiberg/Mayer (AO) data.
largest (>0.10) Wiberg bond orders for each atom

     #   Z sym  total        # sym  WBO       # sym  WBO       # sym  WBO
 ---------------------------------------------------------------------------
     1   6 C    3.898 --     2 N    0.983    16 H    0.965    15 H    0.954
                            17 H    0.943
     2   7 N    3.710 --     3 C    1.366     6 C    1.212     1 C    0.983
     3   6 C    3.820 --     2 N    1.366     4 N    1.329    18 H    0.951
     4   7 N    3.519 --     3 C    1.329     5 C    1.067    25 H    0.922
     5   6 C    3.944 --    13 N    1.530     6 C    1.208     4 N    1.067
     6   6 C    3.688 --     2 N    1.212     5 C    1.208     7 C    1.032
     7   6 C    3.925 --     8 O    1.519     9 N    1.304     6 C    1.032
     8   8 O    1.748 --     7 C    1.519     9 N    0.113
     9   7 N    2.585 --     7 C    1.304    10 C    1.113     8 O    0.113
    10   6 C    3.862 --     9 N    1.113    21 H    0.912    19 H    0.904
                            20 H    0.901
    11   6 C    2.637 --    12 O    2.615
    12   8 O    2.619 --    11 C    2.615
    13   7 N    2.732 --     5 C    1.530    14 C    1.068
    14   6 C    3.900 --    13 N    1.068    24 H    0.932    22 H    0.930
                            23 H    0.923
    15   1 H    0.984 --     1 C    0.954
    16   1 H    0.987 --     1 C    0.965
    17   1 H    0.976 --     1 C    0.943
    18   1 H    0.983 --     3 C    0.951
    19   1 H    0.908 --    10 C    0.904
    20   1 H    0.922 --    10 C    0.901
    21   1 H    0.931 --    10 C    0.912
    22   1 H    0.947 --    14 C    0.930
    23   1 H    0.942 --    14 C    0.923
    24   1 H    0.957 --    14 C    0.932
    25   1 H    0.950 --     4 N    0.922
 ---------------------------------------------------------------------------

molecular dipole:
                 x           y           z       tot (Debye)
 q only:        1.543      -1.948       0.066
   full:        1.771      -2.073       0.145       6.939

           -------------------------------------------------
          | TOTAL ENERGY              -42.045639397275 Eh   |
          | GRADIENT NORM               0.003553423118 Eh/α |
          | HOMO-LUMO GAP               0.281380666181 eV   |
           -------------------------------------------------

 * finished run on 2024/06/05 at 20:00:14.813
