   * xtb version 6.6.1 (8d0f1dd) compiled by 'conda@1efc2f54142f' on 2023-08-01
          program call               : xtb struc.xyz --opt loose --input .xc1 --gfn2

   ID    Z sym.   atoms
    1    6 C      1, 3, 5-7, 10, 11, 14
    2    7 N      2, 4, 9, 13
    3    8 O      8, 12
    4    1 H      15-25
constraining bond 2 18 to    2.6866700 Å, actual value:    2.1303834 Å

          :  Hamiltonian                  GFN2-xTB          :
 * total energy  :   -42.8003999 Eh     change       -0.6650680E-10 Eh
 * total energy  :   -44.8977364 Eh     change       -0.2097336E+01 Eh
 * total energy  :   -48.1952181 Eh     change       -0.3297482E+01 Eh
 * total energy  :   -25.2250830 Eh     change        0.2297014E+02 Eh
 * total energy  :   -49.3524644 Eh     change       -0.2412738E+02 Eh
 * total energy  :   -49.3086013 Eh     change        0.4386312E-01 Eh
 * total energy  :   -49.4461968 Eh     change       -0.1375955E+00 Eh
 * total energy  :   -49.4762384 Eh     change       -0.3004158E-01 Eh
 * total energy  :   -49.4834614 Eh     change       -0.7223016E-02 Eh
 * total energy  :   -49.4995706 Eh     change       -0.1610924E-01 Eh
 * total energy  :   -49.6808724 Eh     change       -0.3184947E-03 Eh
 * total energy  :   -49.6810911 Eh     change       -0.2186735E-03 Eh
 * total energy  :   -49.6811436 Eh     change       -0.5249685E-04 Eh
 * total energy  :   -49.6813243 Eh     change       -0.1806960E-03 Eh
 * total energy  :   -49.6813936 Eh     change       -0.6935188E-04 Eh
 * total energy  :   -49.6814509 Eh     change       -0.5728462E-04 Eh
 * total energy  :   -49.6814796 Eh     change       -0.2873446E-04 Eh
 * total energy  :   -49.6815083 Eh     change       -0.2867886E-04 Eh
 * total energy  :   -49.6815314 Eh     change       -0.2308228E-04 Eh
   *** GEOMETRY OPTIMIZATION CONVERGED AFTER 62 ITERATIONS ***

 final structure:
================
25
 xtb: 6.6.1 (8d0f1dd)
C            3.15636539009237        0.77702800721451        0.47287674153151
N            2.36653589988096        0.06869417784216       -0.59727971315844
C            2.63842973227248       -1.39970932982155       -0.43346104856343
N            1.46959324732113       -1.96216413517338       -0.19741777317621
C            0.41013992846878       -1.06227867197432       -0.15348657079718
C            0.92698907627453        0.18607257005578       -0.36245507819154
C            0.12030375282286        1.37743723720718       -0.35143605467345
O            0.52687791357977        2.50428964059523       -0.50196138756036
N           -1.22272618524627        1.06191424699044       -0.12033330278054
C           -2.17195548199496        2.16473779341622       -0.08589740051862
C           -1.77856957026103       -0.18900301516351        0.06770986936763
O           -2.95086616815478       -0.35781508003758        0.23965574345501
N           -0.88839652272362       -1.29664052891624        0.05868497045613
C           -1.42675216092356       -2.62823766764758        0.25370853065210
H            2.88333669547192        0.41991288625268        1.46398470364220
H            4.21382051663895        0.58744002040080        0.29854400821835
H            2.94710417657970        1.84460561539811        0.39443963093201
H            2.51771764486066        0.24497528478432       -1.03705941764099
H           -1.62075881633476        3.09034069712922       -0.23559645467295
H           -2.91792143567436        2.03687338927483       -0.87045579590733
H           -2.68588248799030        2.18008042975663        0.87520715271288
H           -1.00976028636394       -3.08412845849938        1.15253565288222
H           -1.22253775901010       -3.25493101812604       -0.61525537014492
H           -2.50537151125408       -2.52987082578828        0.37402725114999
H            1.38471592576622       -2.96138472356584       -0.05810726931323

          :  Hamiltonian                  GFN2-xTB          :
         :: total energy             -49.681531392287 Eh    ::
         :: gradient norm              0.003076053114 Eh/a0 ::
         :: HOMO-LUMO gap              2.621965129203 eV    ::
         :: SCC energy               -42.668878569130 Eh    ::
         :: -> dispersion             -0.023008064614 Eh    ::
         :: repulsion energy           1.545605366307 Eh    ::

    * Orbital Energies and Occupations

         #    Occupation            Energy/Eh            Energy/eV
      -------------------------------------------------------------
         1        2.0000           -0.9173004             -24.9610
       ...           ...                  ...                  ...
        25        1.9999           -0.6765763             -18.4106
        26        1.9999           -0.6681832             -18.1822
        27        1.9998           -0.6584871             -17.9183
        28        1.9998           -0.6559547             -17.8494
        29        1.9994           -0.6404809             -17.4284
        30        1.9991           -0.6342233             -17.2581
        31        1.9987           -0.6280563             -17.0903
        32        1.9955           -0.6087557             -16.5651
        33        1.9878           -0.5928338             -16.1318
        34        1.9802           -0.5851816             -15.9236
        35        1.9598           -0.5737996             -15.6139
        36        1.9568           -0.5726254             -15.5819
        37        1.9516           -0.5707581             -15.5311 (HOMO)
        38        0.1680           -0.4744027             -12.9092 (LUMO)
        39        0.0029           -0.4088119             -11.1243
        40        0.0010           -0.3912498             -10.6465
        41        0.0000           -0.3061339              -8.3303
        42                         -0.2453829              -6.6772
        43                         -0.2046258              -5.5682
        44                         -0.2003742              -5.4525
        45                         -0.1705961              -4.6422
        46                         -0.1602522              -4.3607
        47                         -0.1244509              -3.3865
        48                         -0.0478974              -1.3034
       ...                                ...                  ...
        67                          3.6674551              99.7965
      -------------------------------------------------------------
                  HL-Gap            0.0963554 Eh            2.6220 eV

     #   Z          covCN         q      C6AA      α(0)
     1   6 C        3.711    -0.087    22.304     6.749
     2   7 N        3.620     0.048    20.401     6.708
     3   6 C        1.945    -0.103    33.937     9.408
     4   7 N        2.762    -0.028    21.780     6.931
     5   6 C        2.938     0.122    25.325     8.253
     6   6 C        3.010    -0.050    29.227     8.868
     7   6 C        2.765     0.269    22.451     7.760
     8   8 O        0.858    -0.365    21.002     6.144
     9   7 N        2.748    -0.083    22.850     7.100
    10   6 C        3.709    -0.062    21.827     6.677
    11   6 C        2.728     0.318    21.594     7.608
    12   8 O        0.859    -0.344    20.592     6.084
    13   7 N        2.739    -0.055    22.296     7.013
    14   6 C        3.696    -0.071    22.033     6.715
    15   1 H        0.925     0.104     1.745     2.066
    16   1 H        0.925     0.128     1.553     1.949
    17   1 H        0.924     0.128     1.550     1.947
    18   1 H        0.893     0.267     0.818     1.416
    19   1 H        0.925     0.117     1.636     2.000
    20   1 H        0.925     0.105     1.742     2.064
    21   1 H        0.925     0.104     1.747     2.067
    22   1 H        0.924     0.088     1.894     2.152
    23   1 H        0.924     0.088     1.896     2.153
    24   1 H        0.925     0.129     1.545     1.943
    25   1 H        0.860     0.232     0.958     1.534

Wiberg/Mayer (AO) data.
largest (>0.10) Wiberg bond orders for each atom

     #   Z sym  total        # sym  WBO       # sym  WBO       # sym  WBO
 ---------------------------------------------------------------------------
     1   6 C    3.870 --    15 H    0.982    16 H    0.970    17 H    0.967
                             2 N    0.889
     2   7 N    3.733 --     6 C    0.950     3 C    0.936     1 C    0.889
                            18 H    0.886
     3   6 C    2.644 --     4 N    1.519     2 N    0.936
     4   7 N    3.632 --     3 C    1.519     5 C    1.094    25 H    0.914
     5   6 C    3.936 --     6 C    1.438    13 N    1.241     4 N    1.094
     6   6 C    3.836 --     5 C    1.438     7 C    1.099     2 N    0.950
     7   6 C    3.955 --     8 O    1.681     6 C    1.099     9 N    1.083
     8   8 O    2.013 --     7 C    1.681     9 N    0.140
     9   7 N    3.536 --    11 C    1.130     7 C    1.083    10 C    0.971
                             8 O    0.140    12 O    0.139
    10   6 C    3.898 --     9 N    0.971    19 H    0.965    21 H    0.957
                            20 H    0.956
    11   6 C    3.958 --    12 O    1.718     9 N    1.130    13 N    1.019
    12   8 O    2.065 --    11 C    1.718     9 N    0.139    13 N    0.116
    13   7 N    3.554 --     5 C    1.241    11 C    1.019    14 C    0.975
                            12 O    0.116
    14   6 C    3.917 --    13 N    0.975    23 H    0.967    22 H    0.967
                            24 H    0.963
    15   1 H    0.989 --     1 C    0.982
    16   1 H    0.982 --     1 C    0.970
    17   1 H    0.983 --     1 C    0.967
    18   1 H    0.927 --     2 N    0.886
    19   1 H    0.983 --    10 C    0.965
    20   1 H    0.977 --    10 C    0.956
    21   1 H    0.977 --    10 C    0.957
    22   1 H    0.986 --    14 C    0.967
    23   1 H    0.986 --    14 C    0.967
    24   1 H    0.982 --    14 C    0.963
    25   1 H    0.946 --     4 N    0.914
 ---------------------------------------------------------------------------

molecular dipole:
                 x           y           z       tot (Debye)
 q only:        2.107      -1.509       0.041
   full:        1.839      -1.663      -0.068       6.303

           -------------------------------------------------
          | TOTAL ENERGY              -49.681531392287 Eh   |
          | GRADIENT NORM               0.003076053114 Eh/α |
          | HOMO-LUMO GAP               2.621965129203 eV   |
           -------------------------------------------------

 * finished run on 2024/06/05 at 19:58:06.526
