   * xtb version 6.6.1 (8d0f1dd) compiled by 'conda@1efc2f54142f' on 2023-08-01
          program call               : xtb xtbopt.xyz --opt crude --input .xc2 --gfn2

   ID    Z sym.   atoms
    1    6 C      1, 3, 5-7, 10, 11, 14
    2    7 N      2, 4, 9, 13
    3    8 O      8, 12
    4    1 H      15-25

          :  Hamiltonian                  GFN2-xTB          :
 * total energy  :   -42.1079206 Eh     change       -0.1122658E-11 Eh
   *** GEOMETRY OPTIMIZATION CONVERGED AFTER 1 ITERATIONS ***

 final structure:
================
25
 xtb: 6.6.1 (8d0f1dd)
C            3.07610245283249        1.06434977943028       -0.26978994576798
N            2.21193731071770        0.05969255175458       -0.19737729645431
C            2.47758062146766       -1.26718241344917       -0.18324500684876
N            1.31533040048036       -1.97207675624679       -0.11049811673318
C            0.28343412673073       -1.08720907074693       -0.07491071076340
C            0.82566421428395        0.18602405480429       -0.12661387907181
C            0.00022317671997        1.37261033053359       -0.10219540268101
O            0.39940207646079        2.51273250962841       -0.13175271018536
N           -1.35441847001178        1.04200361481402       -0.03927227787334
C           -2.31127700159374        2.13943596265105       -0.00781612118852
C           -1.92052308344364       -0.21866186418554        0.00347807975742
O           -3.10582606905792       -0.39039791761957        0.05436621995409
N           -1.03653532279350       -1.32104203299787       -0.01479450196001
C           -1.58542226481797       -2.66083871652037        0.04308968953555
H            5.21997774446151        1.86205208298981        1.94708238733681
H            4.12852103397698        0.85712852765892       -0.34252185155903
H            2.69591686188632        2.06910628089253       -0.27650896866053
H            3.45410140021810       -1.70347204605449       -0.22703009026515
H           -1.75513756454685        3.07366544882167        0.00277465195230
H           -2.95673596962845        2.09391465077636       -0.88516168087164
H           -2.93633406016486        2.05751509802102        0.88108467659821
H           -1.25153178193161       -3.17192841801802        0.94651222178549
H           -1.29643357758411       -3.23084597977701       -0.84011475527640
H           -2.67085926224502       -2.56883812943607        0.06767795503458
H            1.25327452168268       -2.97949900612441       -0.08529094789399

          :  Hamiltonian                  GFN2-xTB          :
         :: total energy             -42.107920577458 Eh    ::
         :: gradient norm              0.003298410110 Eh/a0 ::
         :: HOMO-LUMO gap              0.296244822021 eV    ::
         :: SCC energy               -42.631131692416 Eh    ::
         :: -> dispersion             -0.022709832796 Eh    ::
         :: repulsion energy           0.523110922950 Eh    ::

    * Orbital Energies and Occupations

         #    Occupation            Energy/Eh            Energy/eV
      -------------------------------------------------------------
         1        2.0000           -0.9114432             -24.8016
       ...           ...                  ...                  ...
        25        1.9999           -0.6684469             -18.1894
        26        1.9999           -0.6683893             -18.1878
        27        1.9999           -0.6589762             -17.9317
        28        1.9995           -0.6369217             -17.3315
        29        1.9994           -0.6329482             -17.2234
        30        1.9991           -0.6275360             -17.0761
        31        1.9986           -0.6197673             -16.8647
        32        1.9953           -0.6008004             -16.3486
        33        1.9846           -0.5819853             -15.8366
        34        1.9549           -0.5647472             -15.3676
        35        1.9496           -0.5629486             -15.3186
        36        1.9436           -0.5611210             -15.2689
        37        1.2525           -0.5132430             -13.9661 (HOMO)
        38        0.9145           -0.5023562             -13.6698 (LUMO)
        39        0.0054           -0.4113843             -11.1943
        40        0.0030           -0.4022280             -10.9452
        41        0.0004           -0.3691332             -10.0446
        42        0.0000           -0.2872445              -7.8163
        43                         -0.2076217              -5.6497
        44                         -0.1868857              -5.0854
        45                         -0.1449389              -3.9440
        46                         -0.1161974              -3.1619
        47                         -0.0834042              -2.2695
        48                         -0.0506933              -1.3794
       ...                                ...                  ...
        67                          0.5532433              15.0545
      -------------------------------------------------------------
                  HL-Gap            0.0108868 Eh            0.2962 eV

     #   Z          covCN         q      C6AA      α(0)
     1   6 C        2.790    -0.068    29.689     8.925
     2   7 N        2.808     0.130    19.019     6.477
     3   6 C        3.039     0.026    27.396     8.585
     4   7 N        2.780    -0.058    22.364     7.024
     5   6 C        3.022     0.120    25.346     8.258
     6   6 C        3.110    -0.038    28.793     8.791
     7   6 C        2.764     0.275    22.355     7.743
     8   8 O        0.858    -0.356    20.825     6.118
     9   7 N        2.746    -0.080    22.801     7.092
    10   6 C        3.710    -0.062    21.842     6.679
    11   6 C        2.728     0.318    21.593     7.608
    12   8 O        0.860    -0.349    20.688     6.098
    13   7 N        2.739    -0.053    22.260     7.007
    14   6 C        3.697    -0.073    22.076     6.721
    15   1 H        0.000     0.046     5.896     4.440
    16   1 H        0.926     0.109     1.706     2.043
    17   1 H        0.926     0.140     1.458     1.888
    18   1 H        0.926     0.121     1.602     1.979
    19   1 H        0.925     0.117     1.642     2.004
    20   1 H        0.925     0.103     1.754     2.071
    21   1 H        0.925     0.104     1.749     2.068
    22   1 H        0.924     0.086     1.918     2.166
    23   1 H        0.925     0.086     1.923     2.169
    24   1 H        0.925     0.129     1.540     1.941
    25   1 H        0.860     0.228     0.973     1.545

Wiberg/Mayer (AO) data.
largest (>0.10) Wiberg bond orders for each atom

     #   Z sym  total        # sym  WBO       # sym  WBO       # sym  WBO
 ---------------------------------------------------------------------------
     1   6 C    3.405 --     2 N    1.334    16 H    0.965    17 H    0.956
     2   7 N    3.765 --     1 C    1.334     3 C    1.246     6 C    1.088
     3   6 C    3.640 --     2 N    1.246     4 N    1.241    18 H    0.955
     4   7 N    3.526 --     3 C    1.241     5 C    1.194    25 H    0.919
     5   6 C    3.938 --     6 C    1.349    13 N    1.218     4 N    1.194
     6   6 C    3.844 --     5 C    1.349     2 N    1.088     7 C    1.084
     7   6 C    3.959 --     8 O    1.686     9 N    1.094     6 C    1.084
     8   8 O    2.019 --     7 C    1.686     9 N    0.138
     9   7 N    3.531 --    11 C    1.126     7 C    1.094    10 C    0.971
                             8 O    0.138    12 O    0.133
    10   6 C    3.898 --     9 N    0.971    19 H    0.965    21 H    0.958
                            20 H    0.957
    11   6 C    3.958 --    12 O    1.707     9 N    1.126    13 N    1.035
    12   8 O    2.046 --    11 C    1.707     9 N    0.133    13 N    0.118
    13   7 N    3.532 --     5 C    1.218    11 C    1.035    14 C    0.975
                            12 O    0.118
    14   6 C    3.919 --    13 N    0.975    23 H    0.968    22 H    0.968
                            24 H    0.963
    15   1 H    0.014
    16   1 H    0.987 --     1 C    0.965
    17   1 H    0.980 --     1 C    0.956
    18   1 H    0.984 --     3 C    0.955
    19   1 H    0.983 --    10 C    0.965
    20   1 H    0.976 --    10 C    0.957
    21   1 H    0.977 --    10 C    0.958
    22   1 H    0.986 --    14 C    0.968
    23   1 H    0.986 --    14 C    0.968
    24   1 H    0.982 --    14 C    0.963
    25   1 H    0.947 --     4 N    0.919
 ---------------------------------------------------------------------------

molecular dipole:
                 x           y           z       tot (Debye)
 q only:        2.301      -1.954      -0.041
   full:        2.588      -2.420      -0.048       9.007

           -------------------------------------------------
          | TOTAL ENERGY              -42.107920577458 Eh   |
          | GRADIENT NORM               0.003298410110 Eh/α |
          | HOMO-LUMO GAP               0.296244822021 eV   |
           -------------------------------------------------

 * finished run on 2024/06/05 at 20:00:13.111
