   * xtb version 6.6.1 (8d0f1dd) compiled by 'conda@1efc2f54142f' on 2023-08-01
          program call               : xtb struc.xyz --opt loose --input .xc1 --gfn2

   ID    Z sym.   atoms
    1    6 C      1, 3, 5-7, 10, 11, 14
    2    7 N      2, 4, 9, 13
    3    8 O      8, 12
    4    1 H      15-25
constraining bond 6 14 to    6.0000000 Å, actual value:    3.7374765 Å

          :  Hamiltonian                  GFN2-xTB          :
 * total energy  :    -5.6872139 Eh     change       -0.6650680E-10 Eh
 * total energy  :   -24.0901255 Eh     change       -0.1840291E+02 Eh
 * total energy  :   -34.6984933 Eh     change       -0.1060837E+02 Eh
 * total energy  :   -40.0697646 Eh     change       -0.5371271E+01 Eh
 * total energy  :   -41.5773110 Eh     change       -0.1507546E+01 Eh
 * total energy  :   -41.6795708 Eh     change       -0.1022598E+00 Eh
 * total energy  :   -41.6930943 Eh     change       -0.1352358E-01 Eh
 * total energy  :   -41.7172532 Eh     change       -0.2415890E-01 Eh
 * total energy  :   -41.7364895 Eh     change       -0.1923630E-01 Eh
 * total energy  :   -41.7568322 Eh     change       -0.2034261E-01 Eh
 * total energy  :   -42.1342269 Eh     change       -0.6435908E-03 Eh
 * total energy  :   -42.1344278 Eh     change       -0.2008641E-03 Eh
 * total energy  :   -42.1349433 Eh     change       -0.5154898E-03 Eh
 * total energy  :   -42.1352219 Eh     change       -0.2786414E-03 Eh
 * total energy  :   -42.1353916 Eh     change       -0.1696589E-03 Eh
 * total energy  :   -42.1355992 Eh     change       -0.2076159E-03 Eh
 * total energy  :   -42.1357451 Eh     change       -0.1458784E-03 Eh
 * total energy  :   -42.1358410 Eh     change       -0.9591422E-04 Eh
 * total energy  :   -42.1358828 Eh     change       -0.4179615E-04 Eh
   *** GEOMETRY OPTIMIZATION CONVERGED AFTER 50 ITERATIONS ***

 final structure:
================
25
 xtb: 6.6.1 (8d0f1dd)
C            3.42846353128501        1.60773856683257        0.00756752488142
N            2.61202106545629        0.42204913805548        0.01662682762383
C            3.02608451859666       -0.83794710887334        0.03381473068105
N            1.97499344263784       -1.67535154753155        0.05079761063887
C            0.82669149419030       -0.92442040600272        0.04414232392701
C            1.24475302408135        0.41252380141397        0.02331746293792
C            0.26630392211562        1.47717235974034       -0.00809702339861
O            0.51952085122000        2.66480303953855       -0.04754047004926
N           -1.02250642196577        0.97379664485004        0.00769480334124
C           -2.11850479713015        1.92094775516447       -0.01484829200281
C           -1.39031082848456       -0.39496844902427        0.03495366301056
O           -2.56880278357742       -0.67445936009622        0.03922020433806
N           -0.41553571730725       -1.33825201623985        0.05047577501178
C           -3.26061040766649       -3.54916203401705       -0.06759027440065
H            3.96044683000594        1.70822347381325        0.95475540529293
H            4.15580218407980        1.56344746106307       -0.80135528718711
H            2.78013961895713        2.47359629881116       -0.12785182663990
H            4.05401169641182       -1.14838152335796        0.03284207485544
H           -1.70107632046025        2.92619172827380       -0.01916780518251
H           -2.73009574879211        1.76034063191655       -0.90395588127609
H           -2.75127042659460        1.77446708878914        0.86161469225908
H           -3.05334266649497       -4.08462581775173        0.83901428651615
H           -3.07282135321151       -4.01783148954277       -1.01456982946179
H           -3.61986124503652       -2.53715377803520       -0.02638294255282
H            2.01593805179962       -2.68450591619446        0.06569386473793

          :  Hamiltonian                  GFN2-xTB          :
         :: total energy             -42.135882762691 Eh    ::
         :: gradient norm              0.001695458082 Eh/a0 ::
         :: HOMO-LUMO gap              1.155418010791 eV    ::
         :: SCC energy               -42.663446911567 Eh    ::
         :: -> dispersion             -0.020997702754 Eh    ::
         :: repulsion energy           0.527520018629 Eh    ::

    * Orbital Energies and Occupations

         #    Occupation            Energy/Eh            Energy/eV
      -------------------------------------------------------------
         1        2.0000           -0.9031776             -24.5767
       ...           ...                  ...                  ...
        25        1.9998           -0.6568285             -17.8732
        26        1.9993           -0.6348748             -17.2758
        27        1.9993           -0.6335406             -17.2395
        28        1.9982           -0.6197240             -16.8635
        29        1.9980           -0.6175112             -16.8033
        30        1.9974           -0.6140199             -16.7083
        31        1.9970           -0.6112418             -16.6327
        32        1.9937           -0.5997710             -16.3206
        33        1.9652           -0.5724071             -15.5760
        34        1.9072           -0.5563952             -15.1403
        35        1.8969           -0.5546342             -15.0924
        36        1.8445           -0.5476935             -14.9035
        37        1.7476           -0.5391666             -14.6715 (HOMO)
        38        0.6432           -0.4967057             -13.5161 (LUMO)
        39        0.0119           -0.4274332             -11.6310
        40        0.0010           -0.3877159             -10.5503
        41        0.0001           -0.3553703              -9.6701
        42        0.0000           -0.2681519              -7.2968
        43                         -0.1847657              -5.0277
        44                         -0.1650387              -4.4909
        45                         -0.1230532              -3.3484
        46                         -0.0733761              -1.9967
        47                         -0.0281282              -0.7654
        48                         -0.0226692              -0.6169
       ...                                ...                  ...
        67                          0.5406992              14.7132
      -------------------------------------------------------------
                  HL-Gap            0.0424608 Eh            1.1554 eV

     #   Z          covCN         q      C6AA      α(0)
     1   6 C        3.692    -0.093    22.465     6.782
     2   7 N        2.826     0.087    19.736     6.598
     3   6 C        3.064     0.064    26.501     8.442
     4   7 N        2.795    -0.055    22.307     7.015
     5   6 C        3.067     0.149    24.702     8.150
     6   6 C        3.134    -0.021    28.317     8.711
     7   6 C        2.767     0.276    22.327     7.738
     8   8 O        0.858    -0.365    20.991     6.143
     9   7 N        2.747    -0.084    22.867     7.102
    10   6 C        3.704    -0.055    21.727     6.664
    11   6 C        2.757     0.337    21.272     7.553
    12   8 O        0.860    -0.359    20.868     6.125
    13   7 N        1.832    -0.266    27.750     7.806
    14   6 C        2.779    -0.071    29.758     8.935
    15   1 H        0.924     0.109     1.704     2.041
    16   1 H        0.925     0.106     1.728     2.056
    17   1 H        0.925     0.136     1.488     1.907
    18   1 H        0.926     0.126     1.569     1.959
    19   1 H        0.925     0.113     1.669     2.020
    20   1 H        0.924     0.104     1.749     2.068
    21   1 H        0.924     0.105     1.743     2.064
    22   1 H        0.926     0.129     1.540     1.941
    23   1 H        0.926     0.129     1.543     1.943
    24   1 H        0.926     0.162     1.315     1.793
    25   1 H        0.860     0.236     0.940     1.519

Wiberg/Mayer (AO) data.
largest (>0.10) Wiberg bond orders for each atom

     #   Z sym  total        # sym  WBO       # sym  WBO       # sym  WBO
 ---------------------------------------------------------------------------
     1   6 C    3.910 --     2 N    0.983    16 H    0.962    17 H    0.960
                            15 H    0.956
     2   7 N    3.711 --     3 C    1.395     6 C    1.180     1 C    0.983
     3   6 C    3.878 --     2 N    1.395     4 N    1.314    18 H    0.951
     4   7 N    3.595 --     3 C    1.314     5 C    1.153    25 H    0.917
     5   6 C    3.948 --    13 N    1.374     6 C    1.263     4 N    1.153
     6   6 C    3.812 --     5 C    1.263     2 N    1.180     7 C    1.077
     7   6 C    3.954 --     8 O    1.640     9 N    1.139     6 C    1.077
     8   8 O    1.945 --     7 C    1.640     9 N    0.139
     9   7 N    3.477 --     7 C    1.139    11 C    1.040    10 C    0.986
                             8 O    0.139
    10   6 C    3.887 --     9 N    0.986    19 H    0.961    21 H    0.950
                            20 H    0.949
    11   6 C    3.943 --    12 O    1.635    13 N    1.182     9 N    1.040
    12   8 O    1.917 --    11 C    1.635
    13   7 N    2.835 --     5 C    1.374    11 C    1.182
    14   6 C    2.936 --    23 H    0.980    22 H    0.980    24 H    0.959
    15   1 H    0.985 --     1 C    0.956
    16   1 H    0.986 --     1 C    0.962
    17   1 H    0.980 --     1 C    0.960
    18   1 H    0.983 --     3 C    0.951
    19   1 H    0.979 --    10 C    0.961
    20   1 H    0.968 --    10 C    0.949
    21   1 H    0.968 --    10 C    0.950
    22   1 H    0.982 --    14 C    0.980
    23   1 H    0.982 --    14 C    0.980
    24   1 H    0.971 --    14 C    0.959
    25   1 H    0.943 --     4 N    0.917
 ---------------------------------------------------------------------------

molecular dipole:
                 x           y           z       tot (Debye)
 q only:        2.021      -2.076      -0.001
   full:        2.472      -2.232       0.007       8.466

           -------------------------------------------------
          | TOTAL ENERGY              -42.135882762691 Eh   |
          | GRADIENT NORM               0.001695458082 Eh/α |
          | HOMO-LUMO GAP               1.155418010791 eV   |
           -------------------------------------------------

 * finished run on 2024/06/05 at 20:00:13.373
