   * xtb version 6.6.1 (8d0f1dd) compiled by 'conda@1efc2f54142f' on 2023-08-01
          program call               : xtb struc.xyz --opt loose --input .xc1 --gfn2

   ID    Z sym.   atoms
    1    6 C      1, 3, 5-7, 10, 11, 14
    2    7 N      2, 4, 9, 13
    3    8 O      8, 12
    4    1 H      15-25
constraining bond 9 12 to    4.6800000 Å, actual value:    2.2666725 Å

          :  Hamiltonian                  GFN2-xTB          :
 * total energy  :   -31.8608440 Eh     change       -0.2401990E-09 Eh
 * total energy  :   -35.7368901 Eh     change       -0.3876046E+01 Eh
 * total energy  :   -38.6986537 Eh     change       -0.2961764E+01 Eh
 * total energy  :   -40.5956987 Eh     change       -0.1897045E+01 Eh
 * total energy  :   -41.5298267 Eh     change       -0.9341281E+00 Eh
 * total energy  :   -41.7231406 Eh     change       -0.1933138E+00 Eh
 * total energy  :   -41.7363482 Eh     change       -0.1320769E-01 Eh
 * total energy  :   -41.7587053 Eh     change       -0.2235701E-01 Eh
 * total energy  :   -41.7789063 Eh     change       -0.2020109E-01 Eh
 * total energy  :   -41.7926380 Eh     change       -0.1373163E-01 Eh
 * total energy  :   -42.2335009 Eh     change       -0.1264466E-03 Eh
 * total energy  :   -42.2336134 Eh     change       -0.1124632E-03 Eh
 * total energy  :   -42.2337376 Eh     change       -0.1242176E-03 Eh
 * total energy  :   -42.2338250 Eh     change       -0.8740222E-04 Eh
 * total energy  :   -42.2339414 Eh     change       -0.1163967E-03 Eh
 * total energy  :   -42.2340026 Eh     change       -0.6119215E-04 Eh
 * total energy  :   -42.2340383 Eh     change       -0.3564588E-04 Eh
 * total energy  :   -42.2340765 Eh     change       -0.3828002E-04 Eh
 * total energy  :   -42.2341099 Eh     change       -0.3338661E-04 Eh
   *** GEOMETRY OPTIMIZATION CONVERGED AFTER 92 ITERATIONS ***

 final structure:
================
25
 xtb: 6.6.1 (8d0f1dd)
C            2.66368183329311        1.36646192573308        0.24198674911621
N            1.93179580488271        0.13737482815655        0.14452694409543
C            2.43527101065360       -1.10230202065314        0.12485780954410
N            1.42513920238339       -2.00364266867629        0.00368772720724
C            0.25077835722585       -1.31314160471254       -0.05737880057478
C            0.56480546724558        0.03904157686063        0.03156155862001
C           -0.46289696227728        1.02937626777529        0.01495285594124
O           -1.75423620961781        0.45071773773748       -0.12896304355725
N           -0.20900760956962        2.27540183693218        0.12829428325206
C           -1.19217877182398        3.29968019546927        0.13689894133597
C           -2.08514091482062       -0.86398290395915       -0.24619025572775
O           -3.20562148608377       -1.26651428822721       -0.39719678153095
N           -1.01077790067650       -1.78432548401337       -0.17531670538722
C           -1.28517707428175       -3.20320339097406       -0.27418160690310
H            2.24433406153102        1.97926087712972        1.03986374382334
H            3.71076417346764        1.15401284551229        0.44466810322858
H            2.57669560876532        1.92879420662684       -0.68824730503542
H            3.47276443361290       -1.35560273919661        0.19432235786555
H           -0.67656728486857        4.25649598271973        0.20970123639848
H           -1.79858986911548        3.27999940380572       -0.77168389521502
H           -1.86911135945532        3.18988759252339        0.98878610989153
H           -0.90847485741277       -3.72441733022878        0.60535831440579
H           -0.83364249714564       -3.61708671251510       -1.17673322239586
H           -2.36451065362012       -3.32880426554421       -0.33078683246281
H            1.54033501179992       -3.00524332668589       -0.03161666804171

          :  Hamiltonian                  GFN2-xTB          :
         :: total energy             -42.234109920220 Eh    ::
         :: gradient norm              0.003610708054 Eh/a0 ::
         :: HOMO-LUMO gap              2.929726080503 eV    ::
         :: SCC energy               -42.747527272189 Eh    ::
         :: -> dispersion             -0.021875525507 Eh    ::
         :: repulsion energy           0.513117477529 Eh    ::

    * Orbital Energies and Occupations

         #    Occupation            Energy/Eh            Energy/eV
      -------------------------------------------------------------
         1        2.0000           -0.9043788             -24.6094
       ...           ...                  ...                  ...
        25        1.9993           -0.6643916             -18.0790
        26        1.9993           -0.6634738             -18.0540
        27        1.9985           -0.6460003             -17.5786
        28        1.9978           -0.6377460             -17.3540
        29        1.9965           -0.6264525             -17.0466
        30        1.9959           -0.6226599             -16.9434
        31        1.9956           -0.6209971             -16.8982
        32        1.9942           -0.6144516             -16.7201
        33        1.9924           -0.6080639             -16.5463
        34        1.9786           -0.5833604             -15.8740
        35        1.9702           -0.5753506             -15.6561
        36        1.8690           -0.5389335             -14.6651
        37        1.8536           -0.5361003             -14.5880 (HOMO)
        38        0.2396           -0.4284349             -11.6583 (LUMO)
        39        0.0929           -0.4040395             -10.9945
        40        0.0276           -0.3744177             -10.1884
        41        0.0010           -0.2945314              -8.0146
        42        0.0000           -0.2040817              -5.5533
        43        0.0000           -0.1929761              -5.2511
        44        0.0000           -0.1618611              -4.4045
        45        0.0000           -0.1417189              -3.8564
        46        0.0000           -0.0782358              -2.1289
        47                         -0.0618683              -1.6835
        48                         -0.0405288              -1.1028
       ...                                ...                  ...
        67                          0.5148470              14.0097
      -------------------------------------------------------------
                  HL-Gap            0.1076655 Eh            2.9297 eV

     #   Z          covCN         q      C6AA      α(0)
     1   6 C        3.692    -0.092    22.456     6.781
     2   7 N        2.824     0.068    20.050     6.650
     3   6 C        3.041     0.039    27.079     8.535
     4   7 N        2.785    -0.066    22.524     7.049
     5   6 C        3.032     0.114    25.457     8.276
     6   6 C        3.104    -0.005    28.022     8.674
     7   6 C        2.771     0.214    23.474     7.935
     8   8 O        1.704    -0.247    18.095     5.743
     9   7 N        1.829    -0.190    25.930     7.546
    10   6 C        3.701    -0.039    21.435     6.621
    11   6 C        2.647     0.401    20.242     7.360
    12   8 O        0.858    -0.325    20.234     6.031
    13   7 N        2.734    -0.069    22.585     7.058
    14   6 C        3.696    -0.071    22.046     6.716
    15   1 H        0.925     0.120     1.611     1.985
    16   1 H        0.925     0.105     1.736     2.060
    17   1 H        0.924     0.116     1.648     2.008
    18   1 H        0.927     0.120     1.617     1.988
    19   1 H        0.925     0.096     1.821     2.110
    20   1 H        0.924     0.093     1.850     2.127
    21   1 H        0.924     0.093     1.846     2.125
    22   1 H        0.925     0.085     1.926     2.170
    23   1 H        0.924     0.086     1.918     2.166
    24   1 H        0.925     0.127     1.555     1.950
    25   1 H        0.860     0.227     0.978     1.549

Wiberg/Mayer (AO) data.
largest (>0.10) Wiberg bond orders for each atom

     #   Z sym  total        # sym  WBO       # sym  WBO       # sym  WBO
 ---------------------------------------------------------------------------
     1   6 C    3.919 --     2 N    0.994    16 H    0.972    15 H    0.955
                            17 H    0.953
     2   7 N    3.609 --     3 C    1.335     6 C    1.150     1 C    0.994
     3   6 C    3.733 --     2 N    1.335     4 N    1.245    18 H    0.954
     4   7 N    3.544 --     3 C    1.245     5 C    1.189    25 H    0.920
     5   6 C    3.876 --     6 C    1.321     4 N    1.189    13 N    1.186
     6   6 C    3.865 --     5 C    1.321     2 N    1.150     7 C    1.135
     7   6 C    3.842 --     9 N    1.650     6 C    1.135     8 O    0.939
     8   8 O    2.318 --    11 C    1.066     7 C    0.939    12 O    0.127
     9   7 N    2.924 --     7 C    1.650    10 C    1.048
    10   6 C    3.905 --     9 N    1.048    19 H    0.957    20 H    0.932
                            21 H    0.930
    11   6 C    3.904 --    12 O    1.733     8 O    1.066    13 N    1.034
    12   8 O    2.059 --    11 C    1.733     8 O    0.127    13 N    0.120
    13   7 N    3.493 --     5 C    1.186    11 C    1.034    14 C    0.978
                            12 O    0.120
    14   6 C    3.916 --    13 N    0.978    22 H    0.968    23 H    0.966
                            24 H    0.962
    15   1 H    0.979 --     1 C    0.955
    16   1 H    0.987 --     1 C    0.972
    17   1 H    0.978 --     1 C    0.953
    18   1 H    0.985 --     3 C    0.954
    19   1 H    0.968 --    10 C    0.957
    20   1 H    0.957 --    10 C    0.932
    21   1 H    0.958 --    10 C    0.930
    22   1 H    0.985 --    14 C    0.968
    23   1 H    0.984 --    14 C    0.966
    24   1 H    0.981 --    14 C    0.962
    25   1 H    0.948 --     4 N    0.920
 ---------------------------------------------------------------------------

molecular dipole:
                 x           y           z       tot (Debye)
 q only:        2.964      -0.969       0.209
   full:        3.006      -1.366       0.188       8.405

           -------------------------------------------------
          | TOTAL ENERGY              -42.234109920220 Eh   |
          | GRADIENT NORM               0.003610708054 Eh/α |
          | HOMO-LUMO GAP               2.929726080503 eV   |
           -------------------------------------------------

 * finished run on 2024/06/05 at 19:58:53.369
