   * xtb version 6.6.1 (8d0f1dd) compiled by 'conda@1efc2f54142f' on 2023-08-01
          program call               : xtb xtbopt.xyz --opt crude --input .xc2 --gfn2

   ID    Z sym.   atoms
    1    6 C      1, 3, 5-7, 10, 11, 14
    2    7 N      2, 4, 9, 13
    3    8 O      8, 12
    4    1 H      15-25
########################################################################
[WARNING] Please study the warnings concerning your input carefully
-1- readin_getIntValue: could not parse ''
########################################################################

          :  Hamiltonian                  GFN2-xTB          :
 * total energy  :   -42.2343199 Eh     change       -0.1918465E-12 Eh
 * total energy  :   -42.2361932 Eh     change       -0.1873319E-02 Eh
 * total energy  :   -42.2367073 Eh     change       -0.5140382E-03 Eh
 * total energy  :   -42.2367854 Eh     change       -0.7813875E-04 Eh
   *** GEOMETRY OPTIMIZATION CONVERGED AFTER 4 ITERATIONS ***

 final structure:
================
25
 xtb: 6.6.1 (8d0f1dd)
C            2.68051505180362        1.36110312015236        0.24802524529311
N            1.95400992288510        0.12958313471134        0.14741018466721
C            2.45585374162644       -1.11170581774745        0.12295767543154
N            1.44376008844056       -2.01207495390536       -0.00095501019514
C            0.27092722434353       -1.31972080623592       -0.05714806136638
C            0.58788510025003        0.03113039740672        0.03601886812930
C           -0.44553760595502        1.01399511492873        0.02075112038476
O           -1.72171229095927        0.46922933361405       -0.11923060110057
N           -0.24235519998248        2.25767060396320        0.12672851788212
C           -1.23855676661262        3.26720608702109        0.12576505483470
C           -2.04870785420898       -0.82680114899922       -0.23211254933493
O           -3.18215332513415       -1.16627069122819       -0.36641902308652
N           -0.99888200267440       -1.77332630964045       -0.17878131927341
C           -1.30416727119013       -3.18519586508658       -0.27877480383004
H            2.25640256699439        1.97129073592897        1.04542889976967
H            3.72885368349818        1.15619841447534        0.45050728304912
H            2.59013078508993        1.92456391083389       -0.68213249622378
H            3.49290181377336       -1.36605787611924        0.19155322076038
H           -0.73025213826466        4.22914717794877        0.19176426416328
H           -1.84319306905708        3.23580218569292       -0.78508298725714
H           -1.91434014055542        3.15703169466564        0.97864411980197
H           -0.94255666656752       -3.71409346920747        0.60410087710809
H           -0.85808683635129       -3.61004577427018       -1.17933856138105
H           -2.38713792647161       -3.28664440642275       -0.33753323138979
H            1.55683062937128       -3.01377625088437       -0.04097506894285

          :  Hamiltonian                  GFN2-xTB          :
         :: total energy             -42.236785415482 Eh    ::
         :: gradient norm              0.003690695367 Eh/a0 ::
         :: HOMO-LUMO gap              2.864442589687 eV    ::
         :: SCC energy               -42.759765483317 Eh    ::
         :: -> dispersion             -0.021925558120 Eh    ::
         :: repulsion energy           0.522888904198 Eh    ::

    * Orbital Energies and Occupations

         #    Occupation            Energy/Eh            Energy/eV
      -------------------------------------------------------------
         1        2.0000           -0.9056017             -24.6427
       ...           ...                  ...                  ...
        25        1.9994           -0.6649204             -18.0934
        26        1.9993           -0.6642988             -18.0765
        27        1.9985           -0.6452621             -17.5585
        28        1.9979           -0.6375743             -17.3493
        29        1.9967           -0.6263901             -17.0449
        30        1.9961           -0.6225952             -16.9417
        31        1.9959           -0.6210537             -16.8997
        32        1.9945           -0.6143190             -16.7165
        33        1.9932           -0.6090068             -16.5719
        34        1.9803           -0.5836792             -15.8827
        35        1.9718           -0.5750195             -15.6471
        36        1.8776           -0.5389903             -14.6667
        37        1.8403           -0.5321994             -14.4819 (HOMO)
        38        0.2410           -0.4269330             -11.6174 (LUMO)
        39        0.0925           -0.4022500             -10.9458
        40        0.0256           -0.3709445             -10.0939
        41        0.0008           -0.2896186              -7.8809
        42        0.0000           -0.1952967              -5.3143
        43        0.0000           -0.1895168              -5.1570
        44        0.0000           -0.1456658              -3.9638
        45        0.0000           -0.1329273              -3.6171
        46        0.0000           -0.0771896              -2.1004
        47                         -0.0609651              -1.6589
        48                         -0.0389170              -1.0590
       ...                                ...                  ...
        67                          0.5402733              14.7016
      -------------------------------------------------------------
                  HL-Gap            0.1052663 Eh            2.8644 eV

     #   Z          covCN         q      C6AA      α(0)
     1   6 C        3.691    -0.092    22.445     6.779
     2   7 N        2.823     0.068    20.062     6.652
     3   6 C        3.042     0.038    27.100     8.538
     4   7 N        2.785    -0.066    22.525     7.049
     5   6 C        3.034     0.113    25.470     8.278
     6   6 C        3.106    -0.008    28.089     8.684
     7   6 C        2.778     0.217    23.426     7.927
     8   8 O        1.708    -0.233    17.864     5.707
     9   7 N        1.828    -0.192    25.978     7.553
    10   6 C        3.700    -0.039    21.442     6.622
    11   6 C        2.654     0.402    20.215     7.356
    12   8 O        0.858    -0.328    20.292     6.040
    13   7 N        2.734    -0.074    22.669     7.071
    14   6 C        3.695    -0.070    22.021     6.713
    15   1 H        0.925     0.119     1.620     1.990
    16   1 H        0.925     0.105     1.736     2.060
    17   1 H        0.924     0.115     1.656     2.012
    18   1 H        0.927     0.119     1.622     1.991
    19   1 H        0.925     0.097     1.813     2.106
    20   1 H        0.924     0.093     1.853     2.129
    21   1 H        0.924     0.094     1.845     2.124
    22   1 H        0.924     0.085     1.930     2.172
    23   1 H        0.924     0.086     1.921     2.167
    24   1 H        0.925     0.125     1.570     1.960
    25   1 H        0.860     0.227     0.980     1.551

Wiberg/Mayer (AO) data.
largest (>0.10) Wiberg bond orders for each atom

     #   Z sym  total        # sym  WBO       # sym  WBO       # sym  WBO
 ---------------------------------------------------------------------------
     1   6 C    3.920 --     2 N    0.994    16 H    0.972    15 H    0.956
                            17 H    0.953
     2   7 N    3.605 --     3 C    1.331     6 C    1.150     1 C    0.994
     3   6 C    3.728 --     2 N    1.331     4 N    1.242    18 H    0.955
     4   7 N    3.541 --     3 C    1.242     5 C    1.190    25 H    0.921
     5   6 C    3.876 --     6 C    1.324     4 N    1.190    13 N    1.181
     6   6 C    3.863 --     5 C    1.324     2 N    1.150     7 C    1.127
     7   6 C    3.851 --     9 N    1.651     6 C    1.127     8 O    0.956
     8   8 O    2.340 --    11 C    1.074     7 C    0.956    12 O    0.126
     9   7 N    2.923 --     7 C    1.651    10 C    1.047
    10   6 C    3.905 --     9 N    1.047    19 H    0.956    20 H    0.932
                            21 H    0.931
    11   6 C    3.908 --    12 O    1.731     8 O    1.074    13 N    1.032
    12   8 O    2.057 --    11 C    1.731     8 O    0.126    13 N    0.121
    13   7 N    3.491 --     5 C    1.181    11 C    1.032    14 C    0.978
                            12 O    0.121
    14   6 C    3.918 --    13 N    0.978    22 H    0.968    23 H    0.967
                            24 H    0.963
    15   1 H    0.980 --     1 C    0.956
    16   1 H    0.987 --     1 C    0.972
    17   1 H    0.979 --     1 C    0.953
    18   1 H    0.985 --     3 C    0.955
    19   1 H    0.966 --    10 C    0.956
    20   1 H    0.958 --    10 C    0.932
    21   1 H    0.959 --    10 C    0.931
    22   1 H    0.985 --    14 C    0.968
    23   1 H    0.984 --    14 C    0.967
    24   1 H    0.982 --    14 C    0.963
    25   1 H    0.948 --     4 N    0.921
 ---------------------------------------------------------------------------

molecular dipole:
                 x           y           z       tot (Debye)
 q only:        2.927      -0.987       0.189
   full:        2.998      -1.417       0.168       8.440

           -------------------------------------------------
          | TOTAL ENERGY              -42.236785415482 Eh   |
          | GRADIENT NORM               0.003690695367 Eh/α |
          | HOMO-LUMO GAP               2.864442589687 eV   |
           -------------------------------------------------

 * finished run on 2024/06/05 at 19:58:53.587
