   * xtb version 6.6.1 (8d0f1dd) compiled by 'conda@1efc2f54142f' on 2023-08-01
          program call               : xtb struc.xyz --opt loose --input .xc1 --gfn2

   ID    Z sym.   atoms
    1    6 C      1, 3, 5-7, 10, 11, 14
    2    7 N      2, 4, 9, 13
    3    8 O      8, 12
    4    1 H      15-25
constraining bond 2 19 to    5.6866700 Å, actual value:    4.9871931 Å

          :  Hamiltonian                  GFN2-xTB          :
 * total energy  :   -43.1214622 Eh     change       -0.6650680E-10 Eh
 * total energy  :   -45.7757773 Eh     change       -0.2654315E+01 Eh
 * total energy  :   -50.0773302 Eh     change       -0.4301553E+01 Eh
 * total energy  :   -56.2266826 Eh     change       -0.6149352E+01 Eh
 * total energy  :   -64.3758391 Eh     change       -0.8149157E+01 Eh
 * total energy  :   -73.7766338 Eh     change       -0.9400795E+01 Eh
 * total energy  :   -84.1402080 Eh     change       -0.1036357E+02 Eh
 * total energy  :   -67.1168946 Eh     change        0.1702331E+02 Eh
 * total energy  :   -76.2711400 Eh     change       -0.9154245E+01 Eh
 * total energy  :   -83.2839443 Eh     change       -0.7012804E+01 Eh
 * total energy  :   -89.9344068 Eh     change       -0.2896452E-04 Eh
 * total energy  :   -89.9344406 Eh     change       -0.3381347E-04 Eh
 * total energy  :   -89.9344819 Eh     change       -0.4133572E-04 Eh
 * total energy  :   -89.9345198 Eh     change       -0.3788052E-04 Eh
 * total energy  :   -89.9345408 Eh     change       -0.2097554E-04 Eh
 * total energy  :   -89.9345541 Eh     change       -0.1336601E-04 Eh
 * total energy  :   -89.9330234 Eh     change        0.1530745E-02 Eh
 * total energy  :   -89.9345711 Eh     change       -0.1547689E-02 Eh
 * total energy  :   -89.9345767 Eh     change       -0.5608823E-05 Eh
   *** GEOMETRY OPTIMIZATION CONVERGED AFTER 70 ITERATIONS ***

 final structure:
================
25
 xtb: 6.6.1 (8d0f1dd)
C            3.55867690460044       -0.17401130823642       -0.04355512053209
N           -0.20826091900664        2.91740232410008       -0.00308425796969
C            2.86517387613623       -1.45582718157560       -0.02729717036097
N            1.54951934182548       -1.61065153733375        0.01837447314210
C            0.56919907536995       -0.64558643159430        0.00863305213332
C            0.86999057279003        0.69860623450426        0.01214107348467
C           -0.20797878909336        1.55746797750118        0.00846422246419
O           -1.58937227070950        3.32994578239698        0.03462622916781
N           -1.48846947424435        1.08291900632653        0.05546838825451
C           -2.42037689819774        2.19124729556363        0.08200720179280
C           -1.83309526060747       -0.25227020961991        0.03047138027819
O           -2.97482708344197       -0.62151440067941        0.04045223586500
N           -0.73931693352581       -1.11564959296156       -0.01029740162891
C           -1.06017635008347       -2.53191749671482       -0.06676440702722
H            3.78587375301807        0.14483608606642        0.97815026401765
H            4.50453412417697       -0.25289134809587       -0.57420034872753
H            2.90756033801590        0.60215833952432       -0.46172978997292
H            3.43911811005173       -2.37096426430691       -0.05301769438619
H            0.05706108659645        3.18151176369398       -0.00407309357008
H           -3.09136046759140        2.17170374639397       -0.78910610387699
H           -3.01829671558040        2.19192435071715        1.00502678742462
H           -0.71902171006479       -3.05194043873575        0.83073984566838
H           -0.65051852272493       -2.99252134418164       -0.96741090849431
H           -2.14754746321916       -2.61014296730933       -0.10759636444766
H            1.20234318960514       -2.56559584384367        0.03474912520242

          :  Hamiltonian                  GFN2-xTB          :
         :: total energy             -89.934576676976 Eh    ::
         :: gradient norm              0.001887649731 Eh/a0 ::
         :: HOMO-LUMO gap              1.107238113394 eV    ::
         :: SCC energy               -42.621711957833 Eh    ::
         :: -> dispersion             -0.022000097567 Eh    ::
         :: repulsion energy           3.075770690715 Eh    ::

    * Orbital Energies and Occupations

         #    Occupation            Energy/Eh            Energy/eV
      -------------------------------------------------------------
         1        2.0000           -0.9078892             -24.7049
       ...           ...                  ...                  ...
        25        2.0000           -0.6697164             -18.2239
        26        2.0000           -0.6654085             -18.1067
        27        2.0000           -0.6589750             -17.9316
        28        1.9999           -0.6423432             -17.4790
        29        1.9999           -0.6407996             -17.4370
        30        1.9998           -0.6334741             -17.2377
        31        1.9997           -0.6241696             -16.9845
        32        1.9994           -0.6151457             -16.7390
        33        1.9985           -0.6007528             -16.3473
        34        1.9931           -0.5761911             -15.6790
        35        1.9727           -0.5542021             -15.0806
        36        1.9256           -0.5379585             -14.6386
        37        1.6136           -0.5090733             -13.8526 (HOMO)
        38        0.4845           -0.4683831             -12.7454 (LUMO)
        39        0.0121           -0.4056387             -11.0380
        40        0.0012           -0.3692706             -10.0484
        41        0.0000           -0.2909997              -7.9185
        42        0.0000           -0.2803140              -7.6277
        43                         -0.1892031              -5.1485
        44                         -0.1512138              -4.1147
        45                         -0.1373704              -3.7380
        46                         -0.1107821              -3.0145
        47                         -0.0848791              -2.3097
        48                         -0.0346180              -0.9420
       ...                                ...                  ...
        67                          7.9602408             216.6092
      -------------------------------------------------------------
                  HL-Gap            0.0406903 Eh            1.1072 eV

     #   Z          covCN         q      C6AA      α(0)
     1   6 C        3.753    -0.144    23.335     6.888
     2   7 N        2.722    -0.029    21.809     6.936
     3   6 C        2.825     0.048    26.915     8.501
     4   7 N        2.693    -0.035    21.927     6.955
     5   6 C        2.861     0.122    25.317     8.247
     6   6 C        1.980    -0.198    36.828     9.800
     7   6 C        2.957     0.142    24.908     8.186
     8   8 O        1.766    -0.209    17.467     5.643
     9   7 N        2.773    -0.078    22.750     7.084
    10   6 C        3.677     0.137    18.572     6.174
    11   6 C        2.713     0.323    21.512     7.592
    12   8 O        0.859    -0.385    21.383     6.200
    13   7 N        2.745    -0.072    22.646     7.068
    14   6 C        3.699    -0.073    22.058     6.717
    15   1 H        0.924     0.132     1.518     1.927
    16   1 H        0.925     0.112     1.678     2.026
    17   1 H        0.924     0.125     1.577     1.964
    18   1 H        0.926     0.101     1.775     2.084
    19   1 H        0.911     0.261     0.837     1.431
    20   1 H        0.923     0.106     1.728     2.056
    21   1 H        0.923     0.105     1.741     2.063
    22   1 H        0.924     0.079     1.989     2.205
    23   1 H        0.924     0.079     1.989     2.206
    24   1 H        0.924     0.128     1.553     1.949
    25   1 H        0.860     0.224     0.992     1.560

Wiberg/Mayer (AO) data.
largest (>0.10) Wiberg bond orders for each atom

     #   Z sym  total        # sym  WBO       # sym  WBO       # sym  WBO
 ---------------------------------------------------------------------------
     1   6 C    3.932 --     3 C    1.124    16 H    0.952    17 H    0.908
                            15 H    0.895
     2   7 N    3.321 --     7 C    1.240     8 O    0.961    19 H    0.913
     3   6 C    3.612 --     4 N    1.404     1 C    1.124    18 H    0.957
     4   7 N    3.600 --     3 C    1.404     5 C    1.139    25 H    0.902
     5   6 C    3.848 --     6 C    1.392     4 N    1.139    13 N    1.125
     6   6 C    3.016 --     5 C    1.392     7 C    1.305
     7   6 C    3.844 --     6 C    1.305     2 N    1.240     9 N    1.146
     8   8 O    2.061 --    10 C    0.986     2 N    0.961
     9   7 N    3.506 --     7 C    1.146    11 C    1.090    10 C    0.971
                            12 O    0.129
    10   6 C    3.896 --     8 O    0.986     9 N    0.971    21 H    0.946
                            20 H    0.945
    11   6 C    3.958 --    12 O    1.682    13 N    1.096     9 N    1.090
    12   8 O    2.041 --    11 C    1.682    13 N    0.141     9 N    0.129
    13   7 N    3.498 --     5 C    1.125    11 C    1.096    14 C    0.980
                            12 O    0.141
    14   6 C    3.928 --    13 N    0.980    23 H    0.967    22 H    0.965
                            24 H    0.957
    15   1 H    0.951 --     1 C    0.895
    16   1 H    0.975 --     1 C    0.952
    17   1 H    0.975 --     1 C    0.908
    18   1 H    0.987 --     3 C    0.957
    19   1 H    0.932 --     2 N    0.913
    20   1 H    0.980 --    10 C    0.945
    21   1 H    0.981 --    10 C    0.946
    22   1 H    0.988 --    14 C    0.965
    23   1 H    0.989 --    14 C    0.967
    24   1 H    0.981 --    14 C    0.957
    25   1 H    0.949 --     4 N    0.902
 ---------------------------------------------------------------------------

molecular dipole:
                 x           y           z       tot (Debye)
 q only:        2.301      -0.748       0.018
   full:        2.075      -1.025       0.028       5.884

           -------------------------------------------------
          | TOTAL ENERGY              -89.934576676976 Eh   |
          | GRADIENT NORM               0.001887649731 Eh/α |
          | HOMO-LUMO GAP               1.107238113394 eV   |
           -------------------------------------------------

 * finished run on 2024/06/05 at 19:58:06.123
