   * xtb version 6.6.1 (8d0f1dd) compiled by 'conda@1efc2f54142f' on 2023-08-01
          program call               : xtb xtbopt.xyz --opt crude --input .xc2 --gfn2

   ID    Z sym.   atoms
    1    6 C      1, 3, 5-7, 10, 11, 14
    2    7 N      2, 4, 9, 13
    3    8 O      8, 12
    4    1 H      15-25
########################################################################
[WARNING] Please study the warnings concerning your input carefully
-1- readin_getIntValue: could not parse ''
########################################################################

          :  Hamiltonian                  GFN2-xTB          :
 * total energy  :   -39.5458537 Eh     change       -0.1421085E-13 Eh
 * total energy  :   -42.0265927 Eh     change       -0.2480739E+01 Eh
 * total energy  :   -42.0759818 Eh     change       -0.4938906E-01 Eh
 * total energy  :   -42.0836184 Eh     change       -0.7636602E-02 Eh
 * total energy  :   -42.0849388 Eh     change       -0.1320369E-02 Eh
 * total energy  :   -42.0851102 Eh     change       -0.1714682E-03 Eh
 * total energy  :   -42.0851575 Eh     change       -0.4725104E-04 Eh
   *** GEOMETRY OPTIMIZATION CONVERGED AFTER 7 ITERATIONS ***

 final structure:
================
25
 xtb: 6.6.1 (8d0f1dd)
C            3.55675982760510       -0.18007443169422       -0.04169184331896
N           -0.30564720856604        2.86795845363114       -0.01832605375422
C            2.85869316325848       -1.46083692199314       -0.02456248198906
N            1.54269542948883       -1.61334826369535        0.01843115528892
C            0.55952996580051       -0.65015380827942        0.00852101947137
C            0.85763093757846        0.69369144356779        0.01250549191726
C           -0.23097463431498        1.54333133551859        0.00911595766883
O           -1.62876632731633        3.31675697241330        0.03950600562756
N           -1.51522172232372        1.05784030589238        0.06283905912328
C           -2.45474142911254        2.16327017023953        0.08921720444236
C           -1.84862176740076       -0.27680023842951        0.03160818004524
O           -2.98730762874118       -0.65856003812678        0.03895434036383
N           -0.74727527370593       -1.13136796439942       -0.01154294961846
C           -1.05682502255239       -2.54987006391529       -0.07019076947218
H            3.77952532290341        0.14142201578381        0.97993095042273
H            4.50467856016866       -0.26619481267009       -0.56735032955265
H            2.91180375410415        0.59481787340140       -0.46897013511290
H            3.43057915760393       -2.37718036327100       -0.04565183671634
H            0.41441419355285        3.58021981644313       -0.02163743555198
H           -3.12796915637379        2.13927125761235       -0.77987361744264
H           -3.05108644264666        2.16450976610194        1.01291775225210
H           -0.70889038356447       -3.06976232380889        0.82490583675825
H           -0.64680521590499       -3.00562788585760       -0.97331267711059
H           -2.14365513065283       -2.63620135519791       -0.10777489522293
H            1.19790854520759       -2.56887239766718        0.03360368938228

          :  Hamiltonian                  GFN2-xTB          :
         :: total energy             -42.085157487181 Eh    ::
         :: gradient norm              0.007685367274 Eh/a0 ::
         :: HOMO-LUMO gap              1.156687178125 eV    ::
         :: SCC energy               -42.585866641714 Eh    ::
         :: -> dispersion             -0.021958183202 Eh    ::
         :: repulsion energy           0.500625389504 Eh    ::

    * Orbital Energies and Occupations

         #    Occupation            Energy/Eh            Energy/eV
      -------------------------------------------------------------
         1        2.0000           -0.9058012             -24.6481
       ...           ...                  ...                  ...
        25        2.0000           -0.6632681             -18.0484
        26        2.0000           -0.6616079             -18.0033
        27        2.0000           -0.6547026             -17.8154
        28        1.9999           -0.6372880             -17.3415
        29        1.9999           -0.6356749             -17.2976
        30        1.9998           -0.6284911             -17.1021
        31        1.9997           -0.6187519             -16.8371
        32        1.9995           -0.6102323             -16.6053
        33        1.9986           -0.5944217             -16.1750
        34        1.9935           -0.5696348             -15.5006
        35        1.9755           -0.5486198             -14.9287
        36        1.9143           -0.5282742             -14.3751
        37        1.6370           -0.5029371             -13.6856 (HOMO)
        38        0.4707           -0.4604296             -12.5289 (LUMO)
        39        0.0105           -0.3960782             -10.7778
        40        0.0012           -0.3618197              -9.8456
        41        0.0000           -0.2720995              -7.4042
        42        0.0000           -0.2609141              -7.0998
        43                         -0.1819948              -4.9523
        44                         -0.1479795              -4.0267
        45                         -0.1333778              -3.6294
        46                         -0.1182458              -3.2176
        47                         -0.1019472              -2.7741
        48                         -0.0792864              -2.1575
       ...                                ...                  ...
        67                          0.5275688              14.3559
      -------------------------------------------------------------
                  HL-Gap            0.0425075 Eh            1.1567 eV

     #   Z          covCN         q      C6AA      α(0)
     1   6 C        3.754    -0.143    23.314     6.885
     2   7 N        2.778     0.029    20.747     6.765
     3   6 C        2.825     0.045    26.975     8.510
     4   7 N        2.693    -0.037    21.967     6.961
     5   6 C        2.862     0.121    25.335     8.250
     6   6 C        1.978    -0.206    37.090     9.835
     7   6 C        2.905     0.147    24.806     8.167
     8   8 O        1.771    -0.189    17.151     5.592
     9   7 N        2.799    -0.080    22.794     7.091
    10   6 C        3.693     0.136    18.542     6.161
    11   6 C        2.713     0.322    21.520     7.594
    12   8 O        0.859    -0.392    21.529     6.221
    13   7 N        2.745    -0.077    22.744     7.083
    14   6 C        3.699    -0.071    22.023     6.712
    15   1 H        0.924     0.127     1.554     1.950
    16   1 H        0.925     0.109     1.709     2.045
    17   1 H        0.924     0.121     1.607     1.982
    18   1 H        0.926     0.098     1.805     2.101
    19   1 H        0.860     0.234     0.946     1.524
    20   1 H        0.923     0.104     1.751     2.069
    21   1 H        0.923     0.103     1.759     2.074
    22   1 H        0.924     0.076     2.020     2.223
    23   1 H        0.924     0.076     2.018     2.222
    24   1 H        0.924     0.126     1.568     1.958
    25   1 H        0.860     0.222     0.999     1.566

Wiberg/Mayer (AO) data.
largest (>0.10) Wiberg bond orders for each atom

     #   Z sym  total        # sym  WBO       # sym  WBO       # sym  WBO
 ---------------------------------------------------------------------------
     1   6 C    3.938 --     3 C    1.119    16 H    0.954    17 H    0.913
                            15 H    0.899
     2   7 N    3.408 --     7 C    1.298     8 O    0.986    19 H    0.918
     3   6 C    3.608 --     4 N    1.404     1 C    1.119    18 H    0.958
     4   7 N    3.593 --     3 C    1.404     5 C    1.136    25 H    0.903
     5   6 C    3.854 --     6 C    1.407     4 N    1.136    13 N    1.116
     6   6 C    3.001 --     5 C    1.407     7 C    1.277
     7   6 C    3.852 --     2 N    1.298     6 C    1.277     9 N    1.124
     8   8 O    2.084 --     2 N    0.986    10 C    0.976
     9   7 N    3.501 --     7 C    1.124    11 C    1.098    10 C    0.972
                            12 O    0.131
    10   6 C    3.897 --     8 O    0.976     9 N    0.972    21 H    0.949
                            20 H    0.949
    11   6 C    3.959 --    12 O    1.675     9 N    1.098    13 N    1.097
    12   8 O    2.034 --    11 C    1.675    13 N    0.140     9 N    0.131
    13   7 N    3.494 --     5 C    1.116    11 C    1.097    14 C    0.982
                            12 O    0.140
    14   6 C    3.931 --    13 N    0.982    23 H    0.967    22 H    0.966
                            24 H    0.957
    15   1 H    0.953 --     1 C    0.899
    16   1 H    0.977 --     1 C    0.954
    17   1 H    0.977 --     1 C    0.913
    18   1 H    0.988 --     3 C    0.958
    19   1 H    0.944 --     2 N    0.918
    20   1 H    0.981 --    10 C    0.949
    21   1 H    0.982 --    10 C    0.949
    22   1 H    0.989 --    14 C    0.966
    23   1 H    0.989 --    14 C    0.967
    24   1 H    0.981 --    14 C    0.957
    25   1 H    0.950 --     4 N    0.903
 ---------------------------------------------------------------------------

molecular dipole:
                 x           y           z       tot (Debye)
 q only:        2.317      -0.241       0.013
   full:        2.143      -0.456       0.025       5.570

           -------------------------------------------------
          | TOTAL ENERGY              -42.085157487181 Eh   |
          | GRADIENT NORM               0.007685367274 Eh/α |
          | HOMO-LUMO GAP               1.156687178125 eV   |
           -------------------------------------------------

 * finished run on 2024/06/05 at 19:58:06.449
