   * xtb version 6.6.1 (8d0f1dd) compiled by 'conda@1efc2f54142f' on 2023-08-01
          program call               : xtb struc.xyz --opt loose --input .xc1 --gfn2

   ID    Z sym.   atoms
    1    6 C      1, 3, 5-7, 10, 11, 14
    2    7 N      2, 4, 9, 13
    3    8 O      8, 12
    4    1 H      15-25
constraining bond 3 13 to    5.9200000 Å, actual value:    3.5082066 Å

          :  Hamiltonian                  GFN2-xTB          :
 * total energy  :   -31.8618695 Eh     change       -0.6650680E-10 Eh
 * total energy  :   -35.8225517 Eh     change       -0.3960682E+01 Eh
 * total energy  :   -38.6619487 Eh     change       -0.2839397E+01 Eh
 * total energy  :   -40.5523645 Eh     change       -0.1890416E+01 Eh
 * total energy  :   -41.4579180 Eh     change       -0.9055535E+00 Eh
 * total energy  :   -41.6243545 Eh     change       -0.1664366E+00 Eh
 * total energy  :   -41.6548819 Eh     change       -0.3052734E-01 Eh
 * total energy  :   -41.7229478 Eh     change       -0.6806590E-01 Eh
 * total energy  :   -41.7639775 Eh     change       -0.4102969E-01 Eh
 * total energy  :   -41.7940603 Eh     change       -0.3008284E-01 Eh
 * total energy  :   -41.9272031 Eh     change       -0.5394314E-04 Eh
 * total energy  :   -41.9272575 Eh     change       -0.5444111E-04 Eh
 * total energy  :   -41.9273217 Eh     change       -0.6421989E-04 Eh
 * total energy  :   -41.9274066 Eh     change       -0.8480718E-04 Eh
 * total energy  :   -41.9274897 Eh     change       -0.8312557E-04 Eh
 * total energy  :   -41.9273603 Eh     change        0.1293798E-03 Eh
 * total energy  :   -41.9275333 Eh     change       -0.1730233E-03 Eh
 * total energy  :   -41.9275604 Eh     change       -0.2710419E-04 Eh
 * total energy  :   -41.9275743 Eh     change       -0.1385131E-04 Eh
   *** GEOMETRY OPTIMIZATION CONVERGED AFTER 68 ITERATIONS ***

 final structure:
================
25
 xtb: 6.6.1 (8d0f1dd)
C            3.70752169723933        2.05650087875789       -0.11690787421065
N            3.58881358772719        0.69938014489676       -0.00048874222957
C            3.40389856680380       -0.43705916346551        0.09595059903555
N            1.72918923767865       -2.87220538424320        0.36670003969533
C            0.99430127100085       -1.89020923559620        0.26131683002697
C            0.43694586506788       -0.77671716840056        0.11927871354297
C            0.07154414164580        0.52626807887242        0.00124087929673
O            0.75605301825403        1.52134986440573       -0.15462518990433
N           -1.41518595615044        0.75999978232632        0.08694601254746
C           -1.90023501834713        2.12231137952176       -0.03139411678548
C           -2.22066441635584       -0.20565481294212        0.30236441318972
O           -3.48764566887245       -0.43961722515253        0.53404312604473
N           -2.39769161941581       -1.50314321274777        0.60379616288575
C           -2.49377330114946       -2.55497119975996       -0.36687107459597
H            4.18551258041524        2.45984405345157        0.77828208612603
H            4.30900848044107        2.29828008552105       -0.99530936585786
H            2.70195521248144        2.47773510547149       -0.22428756584921
H            3.29727484056631       -1.49133952358046        0.18751312404170
H           -1.07416660662092        2.78259388174544        0.23155259730539
H           -2.19707263874254        2.32485472706857       -1.06125385994483
H           -2.74753934318017        2.28146907397881        0.63200505535189
H           -1.51406649306656       -3.03032256109829       -0.39129464018379
H           -2.76177444813336       -2.20946290814342       -1.36751398971263
H           -3.23050056558218       -3.27065133934340       -0.00621913771850
H            1.41872909039539       -3.81099477994545        0.54634753580476

          :  Hamiltonian                  GFN2-xTB          :
         :: total energy             -41.927574278262 Eh    ::
         :: gradient norm              0.002023140807 Eh/a0 ::
         :: HOMO-LUMO gap              2.093862806886 eV    ::
         :: SCC energy               -42.560026960542 Eh    ::
         :: -> dispersion             -0.019618458132 Eh    ::
         :: repulsion energy           0.632357240243 Eh    ::

    * Orbital Energies and Occupations

         #    Occupation            Energy/Eh            Energy/eV
      -------------------------------------------------------------
         1        2.0000           -0.9322848             -25.3688
       ...           ...                  ...                  ...
        25        2.0000           -0.6418420             -17.4654
        26        2.0000           -0.6328114             -17.2197
        27        1.9999           -0.6254913             -17.0205
        28        1.9999           -0.6205110             -16.8850
        29        1.9999           -0.6171743             -16.7942
        30        1.9999           -0.6136155             -16.6973
        31        1.9998           -0.6028197             -16.4036
        32        1.9996           -0.5918626             -16.1054
        33        1.9995           -0.5894047             -16.0385
        34        1.9979           -0.5671064             -15.4318
        35        1.9951           -0.5537989             -15.0696
        36        1.8481           -0.4981310             -13.5548
        37        1.8278           -0.4959644             -13.4959 (HOMO)
        38        0.1521           -0.4190164             -11.4020 (LUMO)
        39        0.0945           -0.4109997             -11.1839
        40        0.0748           -0.4071438             -11.0789
        41        0.0081           -0.3714877             -10.1087
        42        0.0030           -0.3555958              -9.6763
        43        0.0001           -0.2986718              -8.1273
        44        0.0000           -0.2055937              -5.5945
        45                         -0.1863311              -5.0703
        46                         -0.1776340              -4.8337
        47                         -0.1582892              -4.3073
        48                         -0.0595239              -1.6197
       ...                                ...                  ...
        67                          1.2379824              33.6872
      -------------------------------------------------------------
                  HL-Gap            0.0769480 Eh            2.0939 eV

     #   Z          covCN         q      C6AA      α(0)
     1   6 C        3.685    -0.086    22.354     6.769
     2   7 N        1.820     0.149    19.320     6.513
     3   6 C        1.840     0.039    30.153     8.871
     4   7 N        1.773    -0.275    27.946     7.828
     5   6 C        1.892     0.094    28.784     8.665
     6   6 C        1.971    -0.167    35.832     9.667
     7   6 C        2.754     0.271    22.417     7.753
     8   8 O        0.858    -0.429    22.278     6.328
     9   7 N        2.727    -0.038    21.974     6.962
    10   6 C        3.707    -0.059    21.788     6.672
    11   6 C        2.718     0.309    21.752     7.635
    12   8 O        1.723    -0.192    17.203     5.600
    13   7 N        2.686    -0.020    21.639     6.909
    14   6 C        3.689    -0.056    21.780     6.679
    15   1 H        0.924     0.139     1.470     1.896
    16   1 H        0.924     0.139     1.468     1.895
    17   1 H        0.924     0.171     1.258     1.754
    18   1 H        0.927     0.226     0.975     1.544
    19   1 H        0.925     0.121     1.607     1.983
    20   1 H        0.924     0.096     1.820     2.110
    21   1 H        0.925     0.091     1.865     2.136
    22   1 H        0.925     0.104     1.751     2.069
    23   1 H        0.924     0.075     2.031     2.229
    24   1 H        0.925     0.113     1.669     2.020
    25   1 H        0.860     0.184     1.190     1.709

Wiberg/Mayer (AO) data.
largest (>0.10) Wiberg bond orders for each atom

     #   Z sym  total        # sym  WBO       # sym  WBO       # sym  WBO
 ---------------------------------------------------------------------------
     1   6 C    3.917 --     2 N    1.070    16 H    0.925    15 H    0.925
                            17 H    0.903
     2   7 N    3.651 --     3 C    2.545     1 C    1.070
     3   6 C    3.702 --     2 N    2.545    18 H    0.902
     4   7 N    3.059 --     5 C    1.812    25 H    0.913     6 C    0.155
     5   6 C    3.929 --     6 C    1.991     4 N    1.812
     6   6 C    3.688 --     5 C    1.991     7 C    1.327     4 N    0.155
                             8 O    0.106
     7   6 C    3.894 --     8 O    1.611     6 C    1.327     9 N    0.820
     8   8 O    1.965 --     7 C    1.611     6 C    0.106
     9   7 N    3.578 --    11 C    1.503    10 C    0.962     7 C    0.820
    10   6 C    3.920 --    21 H    0.972     9 N    0.962    20 H    0.962
                            19 H    0.962
    11   6 C    3.803 --     9 N    1.503    13 N    1.098    12 O    1.094
    12   8 O    2.138 --    11 C    1.094    13 N    0.843
    13   7 N    3.073 --    11 C    1.098    14 C    1.000    12 O    0.843
    14   6 C    3.934 --    13 N    1.000    23 H    0.973    24 H    0.966
                            22 H    0.944
    15   1 H    0.974 --     1 C    0.925
    16   1 H    0.974 --     1 C    0.925
    17   1 H    0.965 --     1 C    0.903
    18   1 H    0.948 --     3 C    0.902
    19   1 H    0.985 --    10 C    0.962
    20   1 H    0.988 --    10 C    0.962
    21   1 H    0.989 --    10 C    0.972
    22   1 H    0.989 --    14 C    0.944
    23   1 H    0.993 --    14 C    0.973
    24   1 H    0.986 --    14 C    0.966
    25   1 H    0.955 --     4 N    0.913
 ---------------------------------------------------------------------------

molecular dipole:
                 x           y           z       tot (Debye)
 q only:        2.371       0.275      -0.196
   full:        1.809      -0.005      -0.334       4.675

           -------------------------------------------------
          | TOTAL ENERGY              -41.927574278262 Eh   |
          | GRADIENT NORM               0.002023140807 Eh/α |
          | HOMO-LUMO GAP               2.093862806886 eV   |
           -------------------------------------------------

 * finished run on 2024/06/05 at 19:57:54.253
