   * xtb version 6.6.1 (8d0f1dd) compiled by 'conda@1efc2f54142f' on 2023-08-01
          program call               : xtb struc.xyz --opt loose --input .xc1 --gfn2

   ID    Z sym.   atoms
    1    6 C      1, 3, 5-7, 10, 11, 14
    2    7 N      2, 4, 9, 13
    3    8 O      8, 12
    4    1 H      15-25
constraining bond 3 15 to    5.1400000 Å, actual value:    2.8727362 Å

          :  Hamiltonian                  GFN2-xTB          :
 * total energy  :    -5.5338536 Eh     change       -0.6650680E-10 Eh
 * total energy  :   -23.9968738 Eh     change       -0.1846302E+02 Eh
 * total energy  :   -34.5530230 Eh     change       -0.1055615E+02 Eh
 * total energy  :   -40.0286553 Eh     change       -0.5475632E+01 Eh
 * total energy  :   -41.7422468 Eh     change       -0.1713592E+01 Eh
 * total energy  :   -41.8827790 Eh     change       -0.1405321E+00 Eh
 * total energy  :   -41.8908234 Eh     change       -0.8044459E-02 Eh
 * total energy  :   -41.9123163 Eh     change       -0.2149292E-01 Eh
 * total energy  :   -41.9250124 Eh     change       -0.1269604E-01 Eh
 * total energy  :   -41.9348369 Eh     change       -0.9824523E-02 Eh
 * total energy  :   -42.0871657 Eh     change       -0.9971909E-04 Eh
 * total energy  :   -42.0872481 Eh     change       -0.8237055E-04 Eh
 * total energy  :   -42.0873448 Eh     change       -0.9674632E-04 Eh
 * total energy  :   -42.0874134 Eh     change       -0.6850904E-04 Eh
 * total energy  :   -42.0874789 Eh     change       -0.6557951E-04 Eh
 * total energy  :   -42.0876031 Eh     change       -0.1241512E-03 Eh
 * total energy  :   -42.0875911 Eh     change        0.1196540E-04 Eh
 * total energy  :   -42.0876845 Eh     change       -0.9338106E-04 Eh
 * total energy  :   -42.0877213 Eh     change       -0.3676225E-04 Eh
   *** GEOMETRY OPTIMIZATION CONVERGED AFTER 58 ITERATIONS ***

 final structure:
================
25
 xtb: 6.6.1 (8d0f1dd)
C            3.11895841108129        1.55357195264157        0.08668392825748
N            2.37188689655393        0.37106537686852        0.05766040795601
C            2.49219516789850       -2.59954746818640       -0.30824182653700
N            1.24772618774609       -2.31504728761320       -0.18851032370004
C            0.51794324156015       -1.12354810718877       -0.05925114746725
C            1.10018345081112        0.17448670489566       -0.01013079766934
C            0.15221613101354        1.35379762955123       -0.01684557753344
O            0.55833029416594        2.48931965749751       -0.07841699561769
N           -1.17862378841186        1.05640817326705        0.06472316725493
C           -2.13925494299220        2.15394378859975        0.09665768926317
C           -1.73130852505715       -0.20536875718148        0.10352228210118
O           -2.91529812264739       -0.38020483718122        0.19623668888397
N           -0.83562171602540       -1.28188009008252        0.00994520024988
C           -1.46002357844878       -2.59601823516696        0.00744213917350
H            2.58141558493149        2.49567903892064        0.35220802133538
H            3.94825079833096        1.40235010181557        0.78512409390293
H            3.55896009594196        1.70332254994454       -0.90697275553360
H            3.24270390943647       -1.81646802592901       -0.30829519655717
H           -1.59317474892297        3.09357760154666        0.09939897278545
H           -2.78827828230117        2.09762815184797       -0.77716045001371
H           -2.75705701661582        2.06850958054930        0.99013867087035
H           -1.14650652893622       -3.18719711789422        0.87034571347121
H           -1.27410322325741       -3.12745064807529       -0.92816165677933
H           -2.53684288035569       -2.43375385182839        0.08862718141823
H            0.62575469859979       -3.12893734002061       -0.19555581161510

          :  Hamiltonian                  GFN2-xTB          :
         :: total energy             -42.087721259899 Eh    ::
         :: gradient norm              0.003099649443 Eh/a0 ::
         :: HOMO-LUMO gap              0.213057330388 eV    ::
         :: SCC energy               -42.595463139656 Eh    ::
         :: -> dispersion             -0.022114334611 Eh    ::
         :: repulsion energy           0.507597329940 Eh    ::

    * Orbital Energies and Occupations

         #    Occupation            Energy/Eh            Energy/eV
      -------------------------------------------------------------
         1        2.0000           -0.8964550             -24.3938
       ...           ...                  ...                  ...
        25        1.9999           -0.6762454             -18.4016
        26        1.9998           -0.6680223             -18.1778
        27        1.9994           -0.6474445             -17.6179
        28        1.9993           -0.6434918             -17.5103
        29        1.9988           -0.6360876             -17.3088
        30        1.9986           -0.6325970             -17.2138
        31        1.9968           -0.6199413             -16.8695
        32        1.9941           -0.6101685             -16.6035
        33        1.9907           -0.6030040             -16.4086
        34        1.9834           -0.5938129             -16.1585
        35        1.9660           -0.5823448             -15.8464
        36        1.7415           -0.5482951             -14.9199
        37        1.2677           -0.5267799             -14.3344 (HOMO)
        38        1.0271           -0.5189502             -14.1214 (LUMO)
        39        0.0352           -0.4544164             -12.3653
        40        0.0015           -0.4043180             -11.0021
        41        0.0005           -0.3859592             -10.5025
        42        0.0000           -0.3034467              -8.2572
        43                         -0.2117064              -5.7608
        44                         -0.1754539              -4.7743
        45                         -0.1518614              -4.1324
        46                         -0.1012163              -2.7542
        47                         -0.0883349              -2.4037
        48                         -0.0567442              -1.5441
       ...                                ...                  ...
        67                          0.5391838              14.6719
      -------------------------------------------------------------
                  HL-Gap            0.0078297 Eh            0.2131 eV

     #   Z          covCN         q      C6AA      α(0)
     1   6 C        3.686    -0.052    21.708     6.670
     2   7 N        1.831    -0.118    24.325     7.309
     3   6 C        1.841    -0.061    32.811     9.254
     4   7 N        2.687     0.005    21.176     6.835
     5   6 C        2.833     0.089    26.007     8.357
     6   6 C        2.884     0.054    26.788     8.485
     7   6 C        2.769     0.268    22.470     7.763
     8   8 O        0.859    -0.323    20.198     6.026
     9   7 N        2.738    -0.065    22.504     7.046
    10   6 C        3.710    -0.063    21.848     6.680
    11   6 C        2.726     0.318    21.590     7.607
    12   8 O        0.860    -0.347    20.644     6.092
    13   7 N        2.743    -0.044    22.090     6.980
    14   6 C        3.701    -0.084    22.265     6.747
    15   1 H        0.920     0.135     1.498     1.914
    16   1 H        0.924     0.119     1.619     1.990
    17   1 H        0.924     0.127     1.556     1.951
    18   1 H        0.925     0.130     1.535     1.937
    19   1 H        0.925     0.115     1.655     2.012
    20   1 H        0.925     0.106     1.732     2.058
    21   1 H        0.925     0.108     1.710     2.045
    22   1 H        0.924     0.095     1.833     2.117
    23   1 H        0.924     0.094     1.840     2.121
    24   1 H        0.924     0.141     1.452     1.885
    25   1 H        0.859     0.250     0.885     1.474

Wiberg/Mayer (AO) data.
largest (>0.10) Wiberg bond orders for each atom

     #   Z sym  total        # sym  WBO       # sym  WBO       # sym  WBO
 ---------------------------------------------------------------------------
     1   6 C    3.868 --     2 N    1.109    16 H    0.924    17 H    0.899
                            15 H    0.880
     2   7 N    2.838 --     6 C    1.567     1 C    1.109
     3   6 C    2.672 --     4 N    1.626    18 H    0.907
     4   7 N    3.662 --     3 C    1.626     5 C    1.082    25 H    0.866
     5   6 C    3.666 --    13 N    1.217     6 C    1.207     4 N    1.082
     6   6 C    3.917 --     2 N    1.567     5 C    1.207     7 C    0.928
     7   6 C    3.895 --     8 O    1.705     9 N    1.163     6 C    0.928
     8   8 O    2.020 --     7 C    1.705     9 N    0.137
     9   7 N    3.548 --     7 C    1.163    11 C    1.107    10 C    0.960
                             8 O    0.137    12 O    0.120
    10   6 C    3.891 --    19 H    0.967     9 N    0.960    21 H    0.959
                            20 H    0.959
    11   6 C    3.939 --    12 O    1.696     9 N    1.107    13 N    1.052
    12   8 O    2.012 --    11 C    1.696     9 N    0.120    13 N    0.109
    13   7 N    3.482 --     5 C    1.217    11 C    1.052    14 C    0.978
                            12 O    0.109
    14   6 C    3.913 --    13 N    0.978    22 H    0.959    23 H    0.958
                            24 H    0.951
    15   1 H    0.915 --     1 C    0.880
    16   1 H    0.949 --     1 C    0.924
    17   1 H    0.942 --     1 C    0.899
    18   1 H    0.939 --     3 C    0.907
    19   1 H    0.984 --    10 C    0.967
    20   1 H    0.979 --    10 C    0.959
    21   1 H    0.979 --    10 C    0.959
    22   1 H    0.981 --    14 C    0.959
    23   1 H    0.981 --    14 C    0.958
    24   1 H    0.978 --    14 C    0.951
    25   1 H    0.918 --     4 N    0.866
 ---------------------------------------------------------------------------

molecular dipole:
                 x           y           z       tot (Debye)
 q only:        1.315      -1.525      -0.083
   full:        1.203      -1.329      -0.092       4.563

           -------------------------------------------------
          | TOTAL ENERGY              -42.087721259899 Eh   |
          | GRADIENT NORM               0.003099649443 Eh/α |
          | HOMO-LUMO GAP               0.213057330388 eV   |
           -------------------------------------------------

 * finished run on 2024/06/05 at 20:00:09.416
