   * xtb version 6.6.1 (8d0f1dd) compiled by 'conda@1efc2f54142f' on 2023-08-01
          program call               : xtb xtbopt.xyz --opt crude --input .xc2 --gfn2

   ID    Z sym.   atoms
    1    6 C      1, 3, 5-7, 10, 11, 14
    2    7 N      2, 4, 9, 13
    3    8 O      8, 12
    4    1 H      15-25
########################################################################
[WARNING] Please study the warnings concerning your input carefully
-1- readin_getIntValue: could not parse ''
########################################################################

          :  Hamiltonian                  GFN2-xTB          :
 * total energy  :   -42.0877347 Eh     change       -0.3730349E-11 Eh
 * total energy  :   -42.0909348 Eh     change       -0.3200091E-02 Eh
 * total energy  :   -42.0935747 Eh     change       -0.2639895E-02 Eh
 * total energy  :   -42.0940486 Eh     change       -0.4739241E-03 Eh
   *** GEOMETRY OPTIMIZATION CONVERGED AFTER 4 ITERATIONS ***

 final structure:
================
25
 xtb: 6.6.1 (8d0f1dd)
C            3.15361376549036        1.40172480975158        0.04407751952969
N            2.35092025213832        0.26128183784841        0.01297527382263
C            2.56443133054091       -2.31054977298757       -0.23656892555414
N            1.28261373058799       -2.23414519552199       -0.16482121339272
C            0.46411746696625       -1.11410073103906       -0.06001788327511
C            1.06373568897650        0.16108491348922       -0.01807525570819
C            0.14390053160248        1.35275342307389       -0.00061044451621
O            0.56374475936295        2.48499806922118       -0.04100044873720
N           -1.19128483327220        1.05803817301952        0.06915665383255
C           -2.14379256625695        2.16239137010583        0.10574678252620
C           -1.76238509729180       -0.20039291299495        0.09408300664481
O           -2.94785042761032       -0.36512931913532        0.17819468017138
N           -0.87895403051041       -1.28732220580948        0.00338171598199
C           -1.48097118148489       -2.60878946690111       -0.00243799879751
H            2.57428803904007        2.29212323823313        0.31320365331065
H            3.96929270383242        1.24812124864295        0.75524608758317
H            3.59908304141312        1.57276448960879       -0.94222005423070
H            3.20167399997617       -1.42950747468815       -0.23467016206786
H           -1.59132179911398        3.09828873590984        0.11438137538333
H           -2.79184563567046        2.11526088666053       -0.76942454138818
H           -2.76392101289786        2.07670243281803        0.99757171501422
H           -1.14427277628755       -3.19739539369923        0.85282273232380
H           -1.27978488341772       -3.12985680199031       -0.94005718170159
H           -2.55974727974136       -2.46814874329351        0.08452290157429
H            0.76514772772709       -3.12195706872425       -0.18428837042932

          :  Hamiltonian                  GFN2-xTB          :
         :: total energy             -42.094048624307 Eh    ::
         :: gradient norm              0.009635828934 Eh/a0 ::
         :: HOMO-LUMO gap              0.161037529020 eV    ::
         :: SCC energy               -42.607922913113 Eh    ::
         :: -> dispersion             -0.022362954233 Eh    ::
         :: repulsion energy           0.513742083565 Eh    ::

    * Orbital Energies and Occupations

         #    Occupation            Energy/Eh            Energy/eV
      -------------------------------------------------------------
         1        2.0000           -0.8957849             -24.3755
       ...           ...                  ...                  ...
        25        1.9999           -0.6776069             -18.4386
        26        1.9999           -0.6769232             -18.4200
        27        1.9995           -0.6470387             -17.6068
        28        1.9993           -0.6425942             -17.4859
        29        1.9991           -0.6391808             -17.3930
        30        1.9987           -0.6327626             -17.2183
        31        1.9969           -0.6193802             -16.8542
        32        1.9944           -0.6101011             -16.6017
        33        1.9917           -0.6037889             -16.4299
        34        1.9854           -0.5947835             -16.1849
        35        1.9663           -0.5814063             -15.8209
        36        1.8612           -0.5581210             -15.1872
        37        1.1735           -0.5225723             -14.2199 (HOMO)
        38        0.9884           -0.5166543             -14.0589 (LUMO)
        39        0.0440           -0.4569499             -12.4342
        40        0.0017           -0.4046912             -11.0122
        41        0.0005           -0.3863437             -10.5129
        42        0.0000           -0.3014531              -8.2030
        43                         -0.2088186              -5.6822
        44                         -0.1694604              -4.6113
        45                         -0.1484574              -4.0397
        46                         -0.1003058              -2.7295
        47                         -0.0819595              -2.2302
        48                         -0.0436599              -1.1880
       ...                                ...                  ...
        67                          0.5396614              14.6849
      -------------------------------------------------------------
                  HL-Gap            0.0059180 Eh            0.1610 eV

     #   Z          covCN         q      C6AA      α(0)
     1   6 C        3.692    -0.054    21.736     6.671
     2   7 N        1.838    -0.120    24.374     7.316
     3   6 C        1.848    -0.067    32.986     9.278
     4   7 N        2.688     0.012    21.057     6.815
     5   6 C        2.854     0.088    26.030     8.362
     6   6 C        2.892     0.049    26.909     8.505
     7   6 C        2.767     0.269    22.451     7.760
     8   8 O        0.858    -0.325    20.239     6.032
     9   7 N        2.738    -0.067    22.542     7.052
    10   6 C        3.710    -0.063    21.844     6.679
    11   6 C        2.725     0.318    21.597     7.608
    12   8 O        0.860    -0.345    20.611     6.087
    13   7 N        2.740    -0.042    22.054     6.975
    14   6 C        3.700    -0.080    22.200     6.738
    15   1 H        0.924     0.135     1.501     1.916
    16   1 H        0.924     0.115     1.651     2.009
    17   1 H        0.924     0.122     1.599     1.977
    18   1 H        0.925     0.157     1.347     1.815
    19   1 H        0.925     0.115     1.655     2.012
    20   1 H        0.925     0.106     1.735     2.060
    21   1 H        0.925     0.108     1.713     2.047
    22   1 H        0.924     0.093     1.854     2.129
    23   1 H        0.924     0.093     1.853     2.129
    24   1 H        0.924     0.137     1.479     1.902
    25   1 H        0.859     0.248     0.893     1.480

Wiberg/Mayer (AO) data.
largest (>0.10) Wiberg bond orders for each atom

     #   Z sym  total        # sym  WBO       # sym  WBO       # sym  WBO
 ---------------------------------------------------------------------------
     1   6 C    3.877 --     2 N    1.095    16 H    0.929    17 H    0.907
                            15 H    0.886
     2   7 N    2.901 --     6 C    1.536     1 C    1.095     3 C    0.108
     3   6 C    2.728 --     4 N    1.614    18 H    0.858     2 N    0.108
     4   7 N    3.668 --     3 C    1.614     5 C    1.091    25 H    0.874
     5   6 C    3.699 --     6 C    1.221    13 N    1.216     4 N    1.091
     6   6 C    3.917 --     2 N    1.536     5 C    1.221     7 C    0.938
     7   6 C    3.900 --     8 O    1.699     9 N    1.162     6 C    0.938
     8   8 O    2.037 --     7 C    1.699     9 N    0.140
     9   7 N    3.551 --     7 C    1.162    11 C    1.103    10 C    0.961
                             8 O    0.140    12 O    0.120
    10   6 C    3.892 --    19 H    0.967     9 N    0.961    21 H    0.959
                            20 H    0.959
    11   6 C    3.940 --    12 O    1.700     9 N    1.103    13 N    1.051
    12   8 O    2.014 --    11 C    1.700     9 N    0.120    13 N    0.110
    13   7 N    3.482 --     5 C    1.216    11 C    1.051    14 C    0.977
                            12 O    0.110
    14   6 C    3.914 --    13 N    0.977    22 H    0.961    23 H    0.961
                            24 H    0.955
    15   1 H    0.929 --     1 C    0.886
    16   1 H    0.956 --     1 C    0.929
    17   1 H    0.945 --     1 C    0.907
    18   1 H    0.936 --     3 C    0.858
    19   1 H    0.984 --    10 C    0.967
    20   1 H    0.979 --    10 C    0.959
    21   1 H    0.979 --    10 C    0.959
    22   1 H    0.982 --    14 C    0.961
    23   1 H    0.981 --    14 C    0.961
    24   1 H    0.980 --    14 C    0.955
    25   1 H    0.917 --     4 N    0.874
 ---------------------------------------------------------------------------

molecular dipole:
                 x           y           z       tot (Debye)
 q only:        1.408      -1.638      -0.095
   full:        1.254      -1.510      -0.111       4.998

           -------------------------------------------------
          | TOTAL ENERGY              -42.094048624307 Eh   |
          | GRADIENT NORM               0.009635828934 Eh/α |
          | HOMO-LUMO GAP               0.161037529020 eV   |
           -------------------------------------------------

 * finished run on 2024/06/05 at 20:00:09.634
