   * xtb version 6.6.1 (8d0f1dd) compiled by 'conda@1efc2f54142f' on 2023-08-01
          program call               : xtb xtbopt.xyz --opt crude --input .xc2 --gfn2

   ID    Z sym.   atoms
    1    6 C      1, 3, 5-7, 10, 11, 14
    2    7 N      2, 4, 9, 13
    3    8 O      8, 12
    4    1 H      15-25
########################################################################
[WARNING] Please study the warnings concerning your input carefully
-1- readin_getIntValue: could not parse ''
########################################################################

          :  Hamiltonian                  GFN2-xTB          :
 * total energy  :   -42.1231489 Eh     change       -0.6288303E-11 Eh
   *** GEOMETRY OPTIMIZATION CONVERGED AFTER 1 ITERATIONS ***

 final structure:
================
25
 xtb: 6.6.1 (8d0f1dd)
C            3.05966035710148        1.03200068985182        0.71796060013922
N            2.44843108524076        0.20582590863643       -0.30323455295485
C            3.12552282160242       -0.21738464046908       -1.28318780246524
N            1.22841227693262       -2.29142450529526        0.22133497240967
C            0.46907259538151       -1.27100280123007        0.05744089095976
C            1.03186544078713        0.01695576766099       -0.18170468959691
C            0.22530412815239        1.19849346431421       -0.28292709058160
O            0.68184738371860        2.32146878497373       -0.43381196420051
N           -1.14884747336267        0.99245708021884       -0.20300880063553
C           -2.03050847134477        2.13442875513055       -0.32894350020407
C           -1.75262540640479       -0.23076521773617       -0.00345437666664
O           -2.95461291974449       -0.33167561841470        0.05507776813366
N           -0.92178639062278       -1.33114503857766        0.13363509913103
C           -1.56271039314869       -2.60863790230593        0.37596856902209
H            2.78170660953657        0.66671838781887        1.70965130578301
H            4.14189788542113        1.01217272910806        0.59503278203381
H            2.70357338931447        2.06400598451676        0.61018933519645
H            2.77930765411392       -0.82022391361201       -2.10366860119098
H           -1.41997979224509        3.03473150089442       -0.39276512063343
H           -2.64722721599574        2.03622364644697       -1.22586151005033
H           -2.69971057597023        2.18411391560001        0.53264275183726
H           -1.32159193047662       -2.97873102725421        1.37703672574072
H           -1.25417044754373       -3.34054245206769       -0.37352786526113
H           -2.64227069971308       -2.46255837090761        0.30782997758012
H            0.83987160336993       -3.19726658570249        0.45346671437422

          :  Hamiltonian                  GFN2-xTB          :
         :: total energy             -42.123148931472 Eh    ::
         :: gradient norm              0.007223200787 Eh/a0 ::
         :: HOMO-LUMO gap              0.519322168427 eV    ::
         :: SCC energy               -42.634089601457 Eh    ::
         :: -> dispersion             -0.022530620286 Eh    ::
         :: repulsion energy           0.510744399622 Eh    ::

    * Orbital Energies and Occupations

         #    Occupation            Energy/Eh            Energy/eV
      -------------------------------------------------------------
         1        2.0000           -0.8988958             -24.4602
       ...           ...                  ...                  ...
        25        1.9940           -0.6649075             -18.0931
        26        1.9911           -0.6553665             -17.8334
        27        1.9910           -0.6550380             -17.8245
        28        1.9832           -0.6401511             -17.4194
        29        1.9806           -0.6367339             -17.3264
        30        1.9735           -0.6291873             -17.1211
        31        1.9686           -0.6251458             -17.0111
        32        1.9247           -0.6038011             -16.4303
        33        1.8786           -0.5918890             -16.1061
        34        1.8543           -0.5872378             -15.9796
        35        1.8244           -0.5824272             -15.8487
        36        1.7643           -0.5746395             -15.6367
        37        1.5682           -0.5574572             -15.1692 (HOMO)
        38        1.2384           -0.5383724             -14.6499 (LUMO)
        39        0.0557           -0.4424412             -12.0394
        40        0.0130           -0.4072975             -11.0831
        41        0.0083           -0.3967767             -10.7968
        42        0.0002           -0.3079162              -8.3788
        43        0.0000           -0.2187969              -5.9538
        44        0.0000           -0.1644607              -4.4752
        45        0.0000           -0.1432856              -3.8990
        46                         -0.0948682              -2.5815
        47                         -0.0890545              -2.4233
        48                         -0.0510812              -1.3900
       ...                                ...                  ...
        67                          0.5034779              13.7003
      -------------------------------------------------------------
                  HL-Gap            0.0190847 Eh            0.5193 eV

     #   Z          covCN         q      C6AA      α(0)
     1   6 C        3.717    -0.092    22.379     6.758
     2   7 N        2.731     0.154    18.645     6.413
     3   6 C        1.886    -0.026    31.814     9.110
     4   7 N        1.788    -0.274    27.938     7.829
     5   6 C        2.820     0.165    24.433     8.099
     6   6 C        2.927    -0.027    28.676     8.782
     7   6 C        2.768     0.264    22.557     7.778
     8   8 O        0.859    -0.347    20.655     6.093
     9   7 N        2.743    -0.059    22.391     7.028
    10   6 C        3.706    -0.060    21.808     6.676
    11   6 C        2.720     0.320    21.555     7.600
    12   8 O        0.860    -0.333    20.388     6.054
    13   7 N        2.744    -0.063    22.458     7.038
    14   6 C        3.702    -0.064    21.887     6.690
    15   1 H        0.924     0.113     1.673     2.023
    16   1 H        0.925     0.130     1.531     1.935
    17   1 H        0.924     0.143     1.437     1.875
    18   1 H        0.926     0.137     1.481     1.903
    19   1 H        0.925     0.131     1.525     1.931
    20   1 H        0.924     0.122     1.596     1.976
    21   1 H        0.924     0.123     1.588     1.971
    22   1 H        0.924     0.103     1.754     2.071
    23   1 H        0.924     0.102     1.765     2.077
    24   1 H        0.924     0.132     1.522     1.929
    25   1 H        0.860     0.204     1.084     1.631

Wiberg/Mayer (AO) data.
largest (>0.10) Wiberg bond orders for each atom

     #   Z sym  total        # sym  WBO       # sym  WBO       # sym  WBO
 ---------------------------------------------------------------------------
     1   6 C    3.847 --     2 N    0.965    16 H    0.955    15 H    0.951
                            17 H    0.922
     2   7 N    3.703 --     3 C    1.737     6 C    0.968     1 C    0.965
     3   6 C    2.803 --     2 N    1.737    18 H    0.919
     4   7 N    2.665 --     5 C    1.578    25 H    0.915
     5   6 C    3.939 --     4 N    1.578     6 C    1.185    13 N    1.082
     6   6 C    3.507 --     5 C    1.185     7 C    1.142     2 N    0.968
     7   6 C    3.920 --     8 O    1.599     6 C    1.142     9 N    1.082
     8   8 O    1.845 --     7 C    1.599
     9   7 N    3.444 --    11 C    1.110     7 C    1.082    10 C    0.983
                            12 O    0.104
    10   6 C    3.836 --     9 N    0.983    19 H    0.947    21 H    0.935
                            20 H    0.931
    11   6 C    3.943 --    12 O    1.647     9 N    1.110    13 N    1.103
    12   8 O    1.934 --    11 C    1.647    13 N    0.108     9 N    0.104
    13   7 N    3.427 --    11 C    1.103     5 C    1.082    14 C    0.985
                            12 O    0.108
    14   6 C    3.872 --    13 N    0.985    23 H    0.949    24 H    0.947
                            22 H    0.945
    15   1 H    0.974 --     1 C    0.951
    16   1 H    0.969 --     1 C    0.955
    17   1 H    0.960 --     1 C    0.922
    18   1 H    0.941 --     3 C    0.919
    19   1 H    0.965 --    10 C    0.947
    20   1 H    0.947 --    10 C    0.931
    21   1 H    0.950 --    10 C    0.935
    22   1 H    0.962 --    14 C    0.945
    23   1 H    0.966 --    14 C    0.949
    24   1 H    0.969 --    14 C    0.947
    25   1 H    0.944 --     4 N    0.915
 ---------------------------------------------------------------------------

molecular dipole:
                 x           y           z       tot (Debye)
 q only:        1.249      -0.664       0.192
   full:        0.882      -0.971       0.157       3.359

           -------------------------------------------------
          | TOTAL ENERGY              -42.123148931472 Eh   |
          | GRADIENT NORM               0.007223200787 Eh/α |
          | HOMO-LUMO GAP               0.519322168427 eV   |
           -------------------------------------------------

 * finished run on 2024/06/05 at 19:58:45.348
