   * xtb version 6.6.1 (8d0f1dd) compiled by 'conda@1efc2f54142f' on 2023-08-01
          program call               : xtb struc.xyz --opt loose --input .xc1 --gfn2

   ID    Z sym.   atoms
    1    6 C      1, 3, 5-7, 10, 11, 14
    2    7 N      2, 4, 9, 13
    3    8 O      8, 12
    4    1 H      15-25
constraining bond 1 4 to    5.9200000 Å, actual value:    3.5856227 Å

          :  Hamiltonian                  GFN2-xTB          :
 * total energy  :   -22.7879972 Eh     change       -0.6650680E-10 Eh
 * total energy  :   -31.4851493 Eh     change       -0.8697152E+01 Eh
 * total energy  :   -37.0667526 Eh     change       -0.5581603E+01 Eh
 * total energy  :   -40.4508217 Eh     change       -0.3384069E+01 Eh
 * total energy  :   -41.6299202 Eh     change       -0.1179099E+01 Eh
 * total energy  :   -41.7421886 Eh     change       -0.1122684E+00 Eh
 * total energy  :   -41.7586173 Eh     change       -0.1642871E-01 Eh
 * total energy  :   -41.8277198 Eh     change       -0.6910243E-01 Eh
 * total energy  :   -41.8628713 Eh     change       -0.3515156E-01 Eh
 * total energy  :   -41.8772213 Eh     change       -0.1435001E-01 Eh
 * total energy  :   -42.1700371 Eh     change       -0.4954176E-03 Eh
 * total energy  :   -42.1703293 Eh     change       -0.2921651E-03 Eh
 * total energy  :   -42.1706117 Eh     change       -0.2823859E-03 Eh
 * total energy  :   -42.1708353 Eh     change       -0.2236548E-03 Eh
 * total energy  :   -42.1710474 Eh     change       -0.2120805E-03 Eh
 * total energy  :   -42.1711638 Eh     change       -0.1163714E-03 Eh
 * total energy  :   -42.1712748 Eh     change       -0.1109925E-03 Eh
 * total energy  :   -42.1713283 Eh     change       -0.5352094E-04 Eh
 * total energy  :   -42.1713767 Eh     change       -0.4846138E-04 Eh
   *** GEOMETRY OPTIMIZATION CONVERGED AFTER 77 ITERATIONS ***

 final structure:
================
25
 xtb: 6.6.1 (8d0f1dd)
C            3.51023720010395        1.74931322134077        0.49089888620196
N            2.25612939196680       -0.52330114730376       -0.00151628359265
C            2.52777646496241        0.84373509083767       -0.31095148707116
N            0.27989133540956       -3.17787234251514       -0.02006703288514
C            0.07108305710460       -1.92163382878338        0.04483492214774
C            0.96655746428847       -0.72429656590666       -0.01618995383521
C            0.32704241994702        0.56212407890262       -0.20619599959684
O            1.22338938187486        1.49293890577938       -0.38179464686434
N           -0.97197787584700        0.76338997724765       -0.18422136342881
C           -1.57633353460056        2.07161875789048       -0.34714392469089
C           -1.85615209218856       -0.33752612250168        0.01368142941106
O           -3.03585314784636       -0.13851231480655        0.04719737674711
N           -1.27519375453255       -1.57321128487444        0.14525317369293
C           -2.19369775341214       -2.69138527555658        0.30404413301268
H            4.47539895346563        1.25120146903734        0.54708158724621
H            3.60131688308656        2.69080944451694       -0.03999142930065
H            3.12979100050587        1.92115930635802        1.49606317357057
H            2.93351941603341        0.82337636112759       -1.34058818136230
H           -0.79511481074375        2.82405624675384       -0.40688402882230
H           -2.18440043091840        2.08328743395776       -1.25255205283702
H           -2.23411841266469        2.26835681334195        0.50016071156334
H           -1.87750874830287       -3.29924228579010        1.15088340358133
H           -2.17532262618398       -3.31772208874933       -0.58868780652816
H           -3.19701056210920       -2.30360225878035        0.46481159380885
H            1.23098229471732       -3.51882304992392       -0.07695458226415

          :  Hamiltonian                  GFN2-xTB          :
         :: total energy             -42.171376735112 Eh    ::
         :: gradient norm              0.003341457917 Eh/a0 ::
         :: HOMO-LUMO gap              1.685779485691 eV    ::
         :: SCC energy               -42.662890302099 Eh    ::
         :: -> dispersion             -0.021472251362 Eh    ::
         :: repulsion energy           0.491283351758 Eh    ::

    * Orbital Energies and Occupations

         #    Occupation            Energy/Eh            Energy/eV
      -------------------------------------------------------------
         1        2.0000           -0.9476124             -25.7858
       ...           ...                  ...                  ...
        25        1.9997           -0.6698253             -18.2269
        26        1.9997           -0.6664384             -18.1347
        27        1.9990           -0.6479919             -17.6328
        28        1.9986           -0.6424482             -17.4819
        29        1.9965           -0.6280759             -17.0908
        30        1.9962           -0.6266086             -17.0509
        31        1.9946           -0.6213318             -16.9073
        32        1.9938           -0.6191339             -16.8475
        33        1.9825           -0.6025219             -16.3955
        34        1.9797           -0.6001105             -16.3298
        35        1.9619           -0.5900253             -16.0554
        36        1.9081           -0.5756264             -15.6636
        37        1.8308           -0.5653069             -15.3828 (HOMO)
        38        0.3556           -0.5033557             -13.6970 (LUMO)
        39        0.0032           -0.4257192             -11.5844
        40        0.0005           -0.3963671             -10.7857
        41        0.0000           -0.3151954              -8.5769
        42                         -0.2296670              -6.2496
        43                         -0.1904761              -5.1831
        44                         -0.1776950              -4.8353
        45                         -0.1357288              -3.6934
        46                         -0.1053960              -2.8680
        47                         -0.0936015              -2.5470
        48                         -0.0628307              -1.7097
       ...                                ...                  ...
        67                          0.5244465              14.2709
      -------------------------------------------------------------
                  HL-Gap            0.0619513 Eh            1.6858 eV

     #   Z          covCN         q      C6AA      α(0)
     1   6 C        3.746    -0.126    22.978     6.838
     2   7 N        1.880    -0.185    25.835     7.535
     3   6 C        3.871     0.173    17.799     5.999
     4   7 N        1.797    -0.235    26.992     7.696
     5   6 C        2.820     0.160    24.534     8.116
     6   6 C        2.989     0.056    26.727     8.480
     7   6 C        2.960     0.226    23.269     7.912
     8   8 O        1.707    -0.191    17.200     5.599
     9   7 N        2.735    -0.035    21.915     6.953
    10   6 C        3.700    -0.068    21.964     6.702
    11   6 C        2.728     0.318    21.597     7.608
    12   8 O        0.859    -0.325    20.238     6.031
    13   7 N        2.762    -0.042    22.044     6.973
    14   6 C        3.714    -0.078    22.128     6.721
    15   1 H        0.925     0.109     1.703     2.041
    16   1 H        0.925     0.103     1.760     2.075
    17   1 H        0.925     0.095     1.827     2.114
    18   1 H        0.922     0.131     1.530     1.934
    19   1 H        0.925     0.106     1.732     2.058
    20   1 H        0.924     0.118     1.631     1.997
    21   1 H        0.924     0.121     1.605     1.981
    22   1 H        0.925     0.117     1.641     2.003
    23   1 H        0.924     0.118     1.629     1.996
    24   1 H        0.925     0.124     1.579     1.965
    25   1 H        0.860     0.210     1.055     1.609

Wiberg/Mayer (AO) data.
largest (>0.10) Wiberg bond orders for each atom

     #   Z sym  total        # sym  WBO       # sym  WBO       # sym  WBO
 ---------------------------------------------------------------------------
     1   6 C    3.922 --    17 H    0.973    16 H    0.972    15 H    0.969
                             3 C    0.953
     2   7 N    2.864 --     6 C    1.594     3 C    1.079
     3   6 C    3.877 --     2 N    1.079     1 C    0.953     8 O    0.882
                            18 H    0.880
     4   7 N    2.893 --     5 C    1.730    25 H    0.922
     5   6 C    3.943 --     4 N    1.730    13 N    1.115     6 C    1.011
     6   6 C    3.882 --     2 N    1.594     7 C    1.102     5 C    1.011
     7   6 C    3.843 --     9 N    1.342     8 O    1.239     6 C    1.102
     8   8 O    2.357 --     7 C    1.239     3 C    0.882
     9   7 N    3.588 --     7 C    1.342    11 C    0.986    10 C    0.966
    10   6 C    3.904 --    19 H    0.973     9 N    0.966    21 H    0.956
                            20 H    0.954
    11   6 C    3.944 --    12 O    1.720    13 N    1.152     9 N    0.986
    12   8 O    2.043 --    11 C    1.720    13 N    0.138
    13   7 N    3.539 --    11 C    1.152     5 C    1.115    14 C    0.970
                            12 O    0.138
    14   6 C    3.879 --    13 N    0.970    24 H    0.960    22 H    0.953
                            23 H    0.946
    15   1 H    0.984 --     1 C    0.969
    16   1 H    0.986 --     1 C    0.972
    17   1 H    0.985 --     1 C    0.973
    18   1 H    0.947 --     3 C    0.880
    19   1 H    0.987 --    10 C    0.973
    20   1 H    0.977 --    10 C    0.954
    21   1 H    0.977 --    10 C    0.956
    22   1 H    0.973 --    14 C    0.953
    23   1 H    0.967 --    14 C    0.946
    24   1 H    0.978 --    14 C    0.960
    25   1 H    0.946 --     4 N    0.922
 ---------------------------------------------------------------------------

molecular dipole:
                 x           y           z       tot (Debye)
 q only:        0.933       0.060      -0.168
   full:        1.172       0.461      -0.324       3.306

           -------------------------------------------------
          | TOTAL ENERGY              -42.171376735112 Eh   |
          | GRADIENT NORM               0.003341457917 Eh/α |
          | HOMO-LUMO GAP               1.685779485691 eV   |
           -------------------------------------------------

 * finished run on 2024/06/05 at 19:59:07.724
