   * xtb version 6.6.1 (8d0f1dd) compiled by 'conda@1efc2f54142f' on 2023-08-01
          program call               : xtb xtbopt.xyz --opt crude --input .xc2 --gfn2

   ID    Z sym.   atoms
    1    6 C      1, 3, 5-7, 10, 11, 14
    2    7 N      2, 4, 9, 13
    3    8 O      8, 12
    4    1 H      15-25
########################################################################
[WARNING] Please study the warnings concerning your input carefully
-1- readin_getIntValue: could not parse ''
########################################################################

          :  Hamiltonian                  GFN2-xTB          :
 * total energy  :   -42.1715127 Eh     change       -0.2557954E-12 Eh
 * total energy  :   -42.1766697 Eh     change       -0.5157017E-02 Eh
 * total energy  :   -42.1798447 Eh     change       -0.3174966E-02 Eh
 * total energy  :   -42.1812681 Eh     change       -0.1423385E-02 Eh
 * total energy  :   -42.1821008 Eh     change       -0.8327846E-03 Eh
 * total energy  :   -42.1824729 Eh     change       -0.3720913E-03 Eh
   *** GEOMETRY OPTIMIZATION CONVERGED AFTER 6 ITERATIONS ***

 final structure:
================
25
 xtb: 6.6.1 (8d0f1dd)
C            3.43054936363550        1.48174598152134        0.54273213018852
N            2.20630729699658       -0.50978757754954       -0.23931161300775
C            2.49713725289555        0.84407828195497       -0.48474309260335
N            0.49578856607012       -3.00856851161479        0.18511349666946
C            0.09412248791763       -1.81035443774783        0.08654927156473
C            0.92327954070094       -0.63084811519775       -0.12454421964774
C            0.29775484182684        0.65362781692082       -0.28945977427493
O            1.21084412781153        1.55462720534352       -0.52051987295339
N           -1.00433471547771        0.82173530883242       -0.20915078071180
C           -1.64644063135228        2.11293325295365       -0.36603359769295
C           -1.86026222535203       -0.30856090246207        0.02244069679377
O           -3.04067803962195       -0.12993472036957        0.09239792224675
N           -1.25838028941249       -1.53940887509425        0.14973715563013
C           -2.12893250153713       -2.69122428755158        0.32079486823758
H            4.35732757392872        0.91567545083707        0.56749587768527
H            3.63281724178859        2.50962800554174        0.24678938645785
H            2.97592865309562        1.46705339302806        1.53339165939478
H            2.94813670459372        0.94493956722805       -1.48638208943976
H           -0.88261695040936        2.88305009463935       -0.43514464521284
H           -2.26243528091527        2.11158045783239       -1.26632779377631
H           -2.30037149959580        2.29687395171322        0.48690921738469
H           -1.78615971380559       -3.27592197964860        1.17384051910410
H           -2.07585658964125       -3.32307063736994       -0.56680778692042
H           -3.14980780875620       -2.34953971713210        0.47352807455116
H            1.48671410873247       -3.20209046500907        0.13787660823652

          :  Hamiltonian                  GFN2-xTB          :
         :: total energy             -42.182472928349 Eh    ::
         :: gradient norm              0.006483937321 Eh/a0 ::
         :: HOMO-LUMO gap              1.621040752578 eV    ::
         :: SCC energy               -42.690503600147 Eh    ::
         :: -> dispersion             -0.021697724416 Eh    ::
         :: repulsion energy           0.507913497872 Eh    ::

    * Orbital Energies and Occupations

         #    Occupation            Energy/Eh            Energy/eV
      -------------------------------------------------------------
         1        2.0000           -0.9473695             -25.7792
       ...           ...                  ...                  ...
        25        1.9998           -0.6727880             -18.3075
        26        1.9997           -0.6681122             -18.1803
        27        1.9991           -0.6502835             -17.6951
        28        1.9986           -0.6431764             -17.5017
        29        1.9969           -0.6305518             -17.1582
        30        1.9954           -0.6246225             -16.9968
        31        1.9949           -0.6228573             -16.9488
        32        1.9937           -0.6195364             -16.8584
        33        1.9849           -0.6055413             -16.4776
        34        1.9824           -0.6031461             -16.4124
        35        1.9698           -0.5944733             -16.1764
        36        1.9122           -0.5771125             -15.7040
        37        1.8090           -0.5639247             -15.3452 (HOMO)
        38        0.3607           -0.5043526             -13.7241 (LUMO)
        39        0.0029           -0.4250598             -11.5665
        40        0.0005           -0.3968096             -10.7977
        41        0.0000           -0.3067908              -8.3482
        42                         -0.2345696              -6.3830
        43                         -0.1931522              -5.2559
        44                         -0.1566670              -4.2631
        45                         -0.1114944              -3.0339
        46                         -0.0993857              -2.7044
        47                         -0.0610574              -1.6615
        48                         -0.0573068              -1.5594
       ...                                ...                  ...
        67                          0.5326454              14.4940
      -------------------------------------------------------------
                  HL-Gap            0.0595722 Eh            1.6210 eV

     #   Z          covCN         q      C6AA      α(0)
     1   6 C        3.751    -0.126    22.977     6.836
     2   7 N        1.876    -0.191    25.961     7.553
     3   6 C        3.929     0.178    17.703     5.979
     4   7 N        1.787    -0.236    27.010     7.698
     5   6 C        2.827     0.162    24.494     8.110
     6   6 C        3.052     0.058    26.654     8.467
     7   6 C        2.956     0.227    23.245     7.908
     8   8 O        1.707    -0.194    17.233     5.605
     9   7 N        2.735    -0.036    21.941     6.957
    10   6 C        3.699    -0.067    21.957     6.702
    11   6 C        2.721     0.317    21.606     7.609
    12   8 O        0.859    -0.321    20.156     6.019
    13   7 N        2.752    -0.038    21.983     6.964
    14   6 C        3.711    -0.077    22.113     6.720
    15   1 H        0.925     0.111     1.691     2.034
    16   1 H        0.925     0.102     1.770     2.081
    17   1 H        0.925     0.088     1.895     2.153
    18   1 H        0.923     0.127     1.558     1.952
    19   1 H        0.925     0.106     1.733     2.059
    20   1 H        0.924     0.117     1.636     2.000
    21   1 H        0.924     0.121     1.603     1.980
    22   1 H        0.925     0.118     1.628     1.995
    23   1 H        0.924     0.114     1.665     2.018
    24   1 H        0.925     0.123     1.590     1.972
    25   1 H        0.860     0.217     1.025     1.586

Wiberg/Mayer (AO) data.
largest (>0.10) Wiberg bond orders for each atom

     #   Z sym  total        # sym  WBO       # sym  WBO       # sym  WBO
 ---------------------------------------------------------------------------
     1   6 C    3.920 --    17 H    0.975    16 H    0.971    15 H    0.966
                             3 C    0.952
     2   7 N    2.882 --     6 C    1.592     3 C    1.090
     3   6 C    3.884 --     2 N    1.090     1 C    0.952    18 H    0.895
                             8 O    0.868
     4   7 N    2.867 --     5 C    1.709    25 H    0.919
     5   6 C    3.947 --     4 N    1.709    13 N    1.125     6 C    1.030
     6   6 C    3.885 --     2 N    1.592     7 C    1.099     5 C    1.030
     7   6 C    3.844 --     9 N    1.344     8 O    1.244     6 C    1.099
     8   8 O    2.353 --     7 C    1.244     3 C    0.868
     9   7 N    3.585 --     7 C    1.344    11 C    0.978    10 C    0.967
    10   6 C    3.905 --    19 H    0.973     9 N    0.967    21 H    0.956
                            20 H    0.954
    11   6 C    3.943 --    12 O    1.731    13 N    1.147     9 N    0.978
    12   8 O    2.057 --    11 C    1.731    13 N    0.138
    13   7 N    3.545 --    11 C    1.147     5 C    1.125    14 C    0.969
                            12 O    0.138
    14   6 C    3.883 --    13 N    0.969    24 H    0.964    22 H    0.953
                            23 H    0.949
    15   1 H    0.984 --     1 C    0.966
    16   1 H    0.985 --     1 C    0.971
    17   1 H    0.988 --     1 C    0.975
    18   1 H    0.955 --     3 C    0.895
    19   1 H    0.987 --    10 C    0.973
    20   1 H    0.979 --    10 C    0.954
    21   1 H    0.978 --    10 C    0.956
    22   1 H    0.972 --    14 C    0.953
    23   1 H    0.970 --    14 C    0.949
    24   1 H    0.980 --    14 C    0.964
    25   1 H    0.943 --     4 N    0.919
 ---------------------------------------------------------------------------

molecular dipole:
                 x           y           z       tot (Debye)
 q only:        0.868       0.033      -0.133
   full:        1.045       0.502      -0.315       3.054

           -------------------------------------------------
          | TOTAL ENERGY              -42.182472928349 Eh   |
          | GRADIENT NORM               0.006483937321 Eh/α |
          | HOMO-LUMO GAP               1.621040752578 eV   |
           -------------------------------------------------

 * finished run on 2024/06/05 at 19:59:08.015
