   * xtb version 6.6.1 (8d0f1dd) compiled by 'conda@1efc2f54142f' on 2023-08-01
          program call               : xtb xtbopt.xyz --opt crude --input .xc2 --gfn2

   ID    Z sym.   atoms
    1    6 C      1, 3, 5-7, 10, 11, 14
    2    7 N      2, 4, 9, 13
    3    8 O      8, 12
    4    1 H      15-25

          :  Hamiltonian                  GFN2-xTB          :
 * total energy  :   -42.1059700 Eh     change       -0.4142464E-11 Eh
   *** GEOMETRY OPTIMIZATION CONVERGED AFTER 1 ITERATIONS ***

 final structure:
================
25
 xtb: 6.6.1 (8d0f1dd)
C            3.37145738171807        1.04200200549555       -0.01158383021682
N            2.37545035460850        0.00472921562612       -0.02939638502455
C            2.59684629447964       -1.30753611274862       -0.01065875696283
N            1.41800305113145       -1.97201744410371       -0.00687625298484
C            0.41443099840757       -1.04992057195505       -0.02144377224617
C            1.01059177785977        0.20488584715471       -0.03873315582227
C            0.24954174692112        1.41657902096332       -0.07001886715065
O            0.66290964115312        2.55359267488795       -0.11113340206192
N           -1.16724073819047        1.14508888633803       -0.04072087821163
C           -1.99374664199736        2.20033497865374       -0.04155355848348
C           -1.77483211666938       -0.14332996814728       -0.01926021187085
O           -2.96835271828209       -0.27129380983424       -0.00523739066731
N           -0.91973588822755       -1.24225622072254       -0.01686688545756
C           -1.48977019665953       -2.57791722331642       -0.00545653315648
H            3.87849422849825        1.06189278270276        0.95429163269661
H            4.11085395723332        0.86999705196692       -0.79303937254621
H            2.88315146967262        2.00164194481856       -0.17375086609957
H            3.56191233830429       -1.77380507673853        0.00072877811714
H           -1.55210430278972        3.17887184718220       -0.06611805311510
H           -3.06850701299327        2.04383523532599        0.04957543664238
H           -4.80934309673225        2.12675354398659        0.49372864281654
H           -1.17020419035800       -3.11859929239948        0.88544311576574
H           -1.19744567616984       -3.12223810040126       -0.90358953533807
H           -2.57376721617555       -2.47659175903258        0.01080328609287
H            1.31183806935716       -2.97646091410276        0.00203843318497

          :  Hamiltonian                  GFN2-xTB          :
         :: total energy             -42.105970047694 Eh    ::
         :: gradient norm              0.003463732364 Eh/a0 ::
         :: HOMO-LUMO gap              0.123207904682 eV    ::
         :: SCC energy               -42.624121752091 Eh    ::
         :: -> dispersion             -0.022875415803 Eh    ::
         :: repulsion energy           0.518070642230 Eh    ::

    * Orbital Energies and Occupations

         #    Occupation            Energy/Eh            Energy/eV
      -------------------------------------------------------------
         1        2.0000           -0.9108913             -24.7866
       ...           ...                  ...                  ...
        25        2.0000           -0.6715649             -18.2742
        26        2.0000           -0.6690183             -18.2049
        27        2.0000           -0.6628239             -18.0364
        28        1.9999           -0.6328029             -17.2194
        29        1.9999           -0.6299628             -17.1422
        30        1.9999           -0.6279387             -17.0871
        31        1.9998           -0.6188840             -16.8407
        32        1.9997           -0.6146639             -16.7259
        33        1.9997           -0.6133756             -16.6908
        34        1.9982           -0.5852591             -15.9257
        35        1.9943           -0.5668297             -15.4242
        36        1.9903           -0.5584167             -15.1953
        37        1.0100           -0.4743967             -12.9090 (HOMO)
        38        0.8678           -0.4698689             -12.7858 (LUMO)
        39        0.1195           -0.4304410             -11.7129
        40        0.0178           -0.3994829             -10.8705
        41        0.0031           -0.3717585             -10.1161
        42        0.0000           -0.2876963              -7.8286
        43        0.0000           -0.2089533              -5.6859
        44                         -0.1966502              -5.3511
        45                         -0.1517986              -4.1306
        46                         -0.1459183              -3.9706
        47                         -0.0786084              -2.1390
        48                         -0.0535150              -1.4562
       ...                                ...                  ...
        67                          0.5479350              14.9101
      -------------------------------------------------------------
                  HL-Gap            0.0045278 Eh            0.1232 eV

     #   Z          covCN         q      C6AA      α(0)
     1   6 C        3.691    -0.094    22.481     6.785
     2   7 N        2.830     0.077    19.907     6.627
     3   6 C        3.048     0.047    26.901     8.506
     4   7 N        2.790    -0.058    22.359     7.023
     5   6 C        3.042     0.106    25.628     8.303
     6   6 C        3.105    -0.023    28.438     8.738
     7   6 C        2.773     0.254    22.735     7.809
     8   8 O        0.857    -0.362    20.930     6.134
     9   7 N        2.740    -0.031    21.853     6.943
    10   6 C        2.813    -0.021    28.524     8.750
    11   6 C        2.737     0.309    21.756     7.637
    12   8 O        0.859    -0.352    20.748     6.107
    13   7 N        2.737    -0.050    22.200     6.998
    14   6 C        3.699    -0.073    22.077     6.720
    15   1 H        0.924     0.107     1.723     2.053
    16   1 H        0.925     0.105     1.743     2.065
    17   1 H        0.925     0.134     1.506     1.919
    18   1 H        0.926     0.124     1.585     1.969
    19   1 H        0.926     0.133     1.512     1.923
    20   1 H        0.925     0.134     1.504     1.918
    21   1 H        0.000     0.013     7.102     4.873
    22   1 H        0.925     0.083     1.944     2.180
    23   1 H        0.925     0.084     1.937     2.177
    24   1 H        0.925     0.127     1.556     1.951
    25   1 H        0.860     0.229     0.970     1.543

Wiberg/Mayer (AO) data.
largest (>0.10) Wiberg bond orders for each atom

     #   Z sym  total        # sym  WBO       # sym  WBO       # sym  WBO
 ---------------------------------------------------------------------------
     1   6 C    3.917 --     2 N    0.987    16 H    0.963    17 H    0.962
                            15 H    0.957
     2   7 N    3.647 --     3 C    1.378     6 C    1.145     1 C    0.987
     3   6 C    3.819 --     2 N    1.378     4 N    1.267    18 H    0.953
     4   7 N    3.579 --     3 C    1.267     5 C    1.193    25 H    0.919
     5   6 C    3.899 --     6 C    1.327     4 N    1.193    13 N    1.191
     6   6 C    3.908 --     5 C    1.327     2 N    1.145     7 C    1.118
     7   6 C    3.865 --     8 O    1.676     6 C    1.118     9 N    0.979
     8   8 O    1.959 --     7 C    1.676     9 N    0.108
     9   7 N    3.613 --    10 C    1.347    11 C    1.016     7 C    0.979
                             8 O    0.108
    10   6 C    3.301 --     9 N    1.347    19 H    0.957    20 H    0.908
    11   6 C    3.904 --    12 O    1.706    13 N    1.087     9 N    1.016
    12   8 O    2.017 --    11 C    1.706    13 N    0.134
    13   7 N    3.565 --     5 C    1.191    11 C    1.087    14 C    0.970
                            12 O    0.134
    14   6 C    3.924 --    22 H    0.972    23 H    0.971    13 N    0.970
                            24 H    0.965
    15   1 H    0.984 --     1 C    0.957
    16   1 H    0.985 --     1 C    0.963
    17   1 H    0.982 --     1 C    0.962
    18   1 H    0.984 --     3 C    0.953
    19   1 H    0.979 --    10 C    0.957
    20   1 H    0.981 --    10 C    0.908
    21   1 H    0.060
    22   1 H    0.991 --    14 C    0.972
    23   1 H    0.991 --    14 C    0.971
    24   1 H    0.983 --    14 C    0.965
    25   1 H    0.947 --     4 N    0.919
 ---------------------------------------------------------------------------

molecular dipole:
                 x           y           z       tot (Debye)
 q only:        2.362      -1.978       0.035
   full:        2.581      -2.435       0.056       9.020

           -------------------------------------------------
          | TOTAL ENERGY              -42.105970047694 Eh   |
          | GRADIENT NORM               0.003463732364 Eh/α |
          | HOMO-LUMO GAP               0.123207904682 eV   |
           -------------------------------------------------

 * finished run on 2024/06/05 at 20:00:12.709
