   * xtb version 6.6.1 (8d0f1dd) compiled by 'conda@1efc2f54142f' on 2023-08-01
          program call               : xtb xtbopt.xyz --opt crude --input .xc2 --gfn2

   ID    Z sym.   atoms
    1    6 C      1, 3, 5-7, 10, 11, 14
    2    7 N      2, 4, 9, 13
    3    8 O      8, 12
    4    1 H      15-25

          :  Hamiltonian                  GFN2-xTB          :
 * total energy  :   -42.1538915 Eh     change       -0.7105427E-14 Eh
   *** GEOMETRY OPTIMIZATION CONVERGED AFTER 1 ITERATIONS ***

 final structure:
================
25
 xtb: 6.6.1 (8d0f1dd)
C            3.20455509916302        1.07825778043084        0.01421541088037
N            2.17997289294260        0.07592401489049       -0.08432969659602
C            2.36169292944910       -1.26026484375611       -0.17284185457493
N            1.23129435509264       -1.92421668370825       -0.24309171107604
C            0.26163876266128       -0.98808575603840       -0.19170719348251
C            0.83253082990096        0.27879256431018       -0.09033912828833
C            0.04627581134559        1.49158926952056       -0.01952124811986
O            0.47282772268945        2.61681286546043        0.03770234367088
N           -1.33289068381756        1.21303637106733       -0.02239328799407
C           -2.24153541731225        2.35062486668337        0.06722068792856
C           -1.95045399304923       -0.00084743586236       -0.09527133156562
O           -3.13502855295626       -0.15748280780046       -0.06708508732280
N           -1.09533271704893       -1.18630680536973       -0.23968798353425
C           -1.66346795323190       -2.35408219672935       -0.39994965466800
H            3.73405089365650        0.98358658797695        0.96389069763467
H            3.92279914330432        0.95632916158774       -0.79717352769639
H            2.74944281303210        2.06583528985306       -0.04530374019399
H            3.32667653625236       -1.72689872477065       -0.18727791152377
H           -1.64612368898980        3.26045701925547        0.09304448468591
H           -2.90805882881272        2.36064814316111       -0.79504906607404
H           -2.84805628394049        2.27204761554164        0.96979576132858
H            0.53775401434029       -4.25814050430744        1.35596777048679
H           -1.04200633905138       -3.22672714688256       -0.51017002588057
H           -2.74203483075607       -2.39650684585921       -0.41479072249989
H            0.90390899922882       -3.70614325704602        0.90531763236483

          :  Hamiltonian                  GFN2-xTB          :
         :: total energy             -42.153891548009 Eh    ::
         :: gradient norm              0.002768110108 Eh/a0 ::
         :: HOMO-LUMO gap              1.784049499762 eV    ::
         :: SCC energy               -42.697573844807 Eh    ::
         :: -> dispersion             -0.022661181418 Eh    ::
         :: repulsion energy           0.543573156272 Eh    ::

    * Orbital Energies and Occupations

         #    Occupation            Energy/Eh            Energy/eV
      -------------------------------------------------------------
         1        2.0000           -0.9106193             -24.7792
       ...           ...                  ...                  ...
        25        1.9997           -0.6693285             -18.2134
        26        1.9995           -0.6593034             -17.9406
        27        1.9994           -0.6573669             -17.8879
        28        1.9991           -0.6513777             -17.7249
        29        1.9983           -0.6409840             -17.4421
        30        1.9939           -0.6204662             -16.8837
        31        1.9912           -0.6146084             -16.7243
        32        1.9887           -0.6105629             -16.6143
        33        1.9773           -0.5994647             -16.3123
        34        1.9588           -0.5898784             -16.0514
        35        1.9530           -0.5877184             -15.9926
        36        1.9382           -0.5832666             -15.8715
        37        1.8567           -0.5692779             -15.4908 (HOMO)
        38        0.3419           -0.5037153             -13.7068 (LUMO)
        39        0.0039           -0.4299107             -11.6985
        40        0.0005           -0.3981049             -10.8330
        41        0.0001           -0.3756279             -10.2214
        42        0.0000           -0.3004794              -8.1765
        43                         -0.2254232              -6.1341
        44                         -0.1747817              -4.7561
        45                         -0.1483506              -4.0368
        46                         -0.0850390              -2.3140
        47                         -0.0573484              -1.5605
        48                         -0.0521282              -1.4185
       ...                                ...                  ...
        67                          0.5436023              14.7922
      -------------------------------------------------------------
                  HL-Gap            0.0655626 Eh            1.7840 eV

     #   Z          covCN         q      C6AA      α(0)
     1   6 C        3.689    -0.084    22.295     6.758
     2   7 N        2.841     0.052    20.336     6.698
     3   6 C        3.191     0.095    25.439     8.226
     4   7 N        1.902    -0.198    26.131     7.579
     5   6 C        3.181     0.107    25.234     8.200
     6   6 C        3.116    -0.005    27.979     8.664
     7   6 C        2.762     0.275    22.348     7.742
     8   8 O        0.858    -0.323    20.193     6.025
     9   7 N        2.742    -0.067    22.532     7.050
    10   6 C        3.713    -0.067    21.912     6.689
    11   6 C        2.730     0.315    21.655     7.618
    12   8 O        0.859    -0.314    20.041     6.002
    13   7 N        2.734     0.043    20.486     6.722
    14   6 C        2.805    -0.000    28.025     8.673
    15   1 H        0.924     0.108     1.715     2.048
    16   1 H        0.924     0.107     1.722     2.052
    17   1 H        0.925     0.124     1.583     1.967
    18   1 H        0.926     0.112     1.681     2.027
    19   1 H        0.925     0.124     1.583     1.967
    20   1 H        0.925     0.109     1.708     2.044
    21   1 H        0.924     0.109     1.704     2.041
    22   1 H        0.727     0.037     2.618     2.561
    23   1 H        0.926     0.150     1.393     1.845
    24   1 H        0.926     0.159     1.330     1.803
    25   1 H        0.727     0.032     2.678     2.590

Wiberg/Mayer (AO) data.
largest (>0.10) Wiberg bond orders for each atom

     #   Z sym  total        # sym  WBO       # sym  WBO       # sym  WBO
 ---------------------------------------------------------------------------
     1   6 C    3.911 --     2 N    0.992    17 H    0.963    16 H    0.958
                            15 H    0.952
     2   7 N    3.668 --     3 C    1.287     6 C    1.219     1 C    0.992
     3   6 C    3.917 --     4 N    1.486     2 N    1.287    18 H    0.954
     4   7 N    3.004 --     3 C    1.486     5 C    1.283
     5   6 C    3.915 --     6 C    1.324     4 N    1.283    13 N    1.093
     6   6 C    3.887 --     5 C    1.324     2 N    1.219     7 C    1.062
     7   6 C    3.932 --     8 O    1.720     9 N    1.064     6 C    1.062
     8   8 O    2.023 --     7 C    1.720     9 N    0.123
     9   7 N    3.551 --    11 C    1.184     7 C    1.064    10 C    0.964
                            12 O    0.151     8 O    0.123
    10   6 C    3.886 --     9 N    0.964    19 H    0.962    20 H    0.956
                            21 H    0.955
    11   6 C    3.930 --    12 O    1.746     9 N    1.184    13 N    0.912
    12   8 O    2.071 --    11 C    1.746     9 N    0.151
    13   7 N    3.664 --    14 C    1.499     5 C    1.093    11 C    0.912
    14   6 C    3.568 --    13 N    1.499    23 H    0.951    24 H    0.948
    15   1 H    0.979 --     1 C    0.952
    16   1 H    0.981 --     1 C    0.958
    17   1 H    0.981 --     1 C    0.963
    18   1 H    0.986 --     3 C    0.954
    19   1 H    0.980 --    10 C    0.962
    20   1 H    0.975 --    10 C    0.956
    21   1 H    0.975 --    10 C    0.955
    22   1 H    0.917 --    25 H    0.904
    23   1 H    0.976 --    14 C    0.951
    24   1 H    0.974 --    14 C    0.948
    25   1 H    0.938 --    22 H    0.904
 ---------------------------------------------------------------------------

molecular dipole:
                 x           y           z       tot (Debye)
 q only:        0.816      -1.068      -0.140
   full:        1.017      -1.051      -0.130       3.733

           -------------------------------------------------
          | TOTAL ENERGY              -42.153891548009 Eh   |
          | GRADIENT NORM               0.002768110108 Eh/α |
          | HOMO-LUMO GAP               1.784049499762 eV   |
           -------------------------------------------------

 * finished run on 2024/06/05 at 20:00:18.606
