   * xtb version 6.6.1 (8d0f1dd) compiled by 'conda@1efc2f54142f' on 2023-08-01
          program call               : xtb struc.xyz --opt loose --input .xc1 --gfn2

   ID    Z sym.   atoms
    1    6 C      1, 3, 5-7, 10, 11, 14
    2    7 N      2, 4, 9, 13
    3    8 O      8, 12
    4    1 H      15-25
constraining bond 11 19 to    5.1400000 Å, actual value:    3.2966745 Å

          :  Hamiltonian                  GFN2-xTB          :
 * total energy  :   -36.1930818 Eh     change       -0.2401919E-09 Eh
 * total energy  :   -39.0731697 Eh     change       -0.2880088E+01 Eh
 * total energy  :   -40.9632902 Eh     change       -0.1890121E+01 Eh
 * total energy  :   -41.7840349 Eh     change       -0.8207447E+00 Eh
 * total energy  :   -41.9665663 Eh     change       -0.1825313E+00 Eh
 * total energy  :   -41.9831077 Eh     change       -0.1654144E-01 Eh
 * total energy  :   -42.0003243 Eh     change       -0.1721664E-01 Eh
 * total energy  :   -42.0204342 Eh     change       -0.2010990E-01 Eh
 * total energy  :   -42.0325489 Eh     change       -0.1211462E-01 Eh
 * total energy  :   -42.0408697 Eh     change       -0.8320786E-02 Eh
 * total energy  :   -42.1346367 Eh     change       -0.1401622E-02 Eh
 * total energy  :   -42.1355718 Eh     change       -0.9350550E-03 Eh
 * total energy  :   -42.1363869 Eh     change       -0.8151534E-03 Eh
 * total energy  :   -42.1369932 Eh     change       -0.6062418E-03 Eh
 * total energy  :   -42.1373500 Eh     change       -0.3567815E-03 Eh
 * total energy  :   -42.1376782 Eh     change       -0.3282005E-03 Eh
 * total energy  :   -42.1378420 Eh     change       -0.1638262E-03 Eh
 * total energy  :   -42.1378988 Eh     change       -0.5680398E-04 Eh
 * total energy  :   -42.1379212 Eh     change       -0.2244151E-04 Eh
   *** GEOMETRY OPTIMIZATION CONVERGED AFTER 50 ITERATIONS ***

 final structure:
================
25
 xtb: 6.6.1 (8d0f1dd)
C            3.11901248601937        1.17045530672049       -0.04112837235743
N            2.21284179962614        0.05554808376171       -0.02021222000375
C            2.54016104026170       -1.24160043829837       -0.00387168853201
N            1.41241647170182       -1.99888422358188        0.01714294771039
C            0.33950447951814       -1.15669152108452        0.01412976620012
C            0.83632819859945        0.14341637377812       -0.00793045325506
C           -0.01541312611417        1.28908281094903       -0.02269289933299
O            0.31677622443470        2.45823987902890       -0.05120944623665
N           -1.40484878303760        0.91677584668933       -0.00319695913401
C           -2.30366177443868        1.91398391732470        0.00153947513243
C           -1.91203395051707       -0.41448997904753        0.00629497930347
O           -3.09594858810856       -0.62780783979732        0.00483053019039
N           -0.97987340389792       -1.44857461693049        0.01979155250060
C           -1.45377715324457       -2.81872593673310        0.04177212628378
H            3.64236310083813        1.25513816896568        0.91283114772035
H            3.85529548714688        1.04465948920396       -0.83455777564976
H            2.54776908887911        2.08250323233771       -0.21058580505336
H            3.53780459539188       -1.62977364483273       -0.00622303830714
H           -1.37757574440396        4.69721366264999        0.04097354340335
H           -1.93592664576844        2.94039257653534        0.00079651351571
H           -3.34839538429877        1.66906785312024       -0.00107714493958
H           -1.12777411556493       -3.31957717220071        0.95402240524815
H           -1.09323178127678       -3.35990172393515       -0.83344788007659
H           -2.54260014487212       -2.79465737097079        0.02070603003472
H            1.39121913722654       -3.00755419205227        0.03247428353597

          :  Hamiltonian                  GFN2-xTB          :
         :: total energy             -42.137921230488 Eh    ::
         :: gradient norm              0.002438764772 Eh/a0 ::
         :: HOMO-LUMO gap              0.116545168742 eV    ::
         :: SCC energy               -42.651334781034 Eh    ::
         :: -> dispersion             -0.022887079774 Eh    ::
         :: repulsion energy           0.513323181919 Eh    ::

    * Orbital Energies and Occupations

         #    Occupation            Energy/Eh            Energy/eV
      -------------------------------------------------------------
         1        2.0000           -0.9053292             -24.6353
       ...           ...                  ...                  ...
        25        1.9995           -0.6726002             -18.3024
        26        1.9993           -0.6680565             -18.1787
        27        1.9992           -0.6631406             -18.0450
        28        1.9969           -0.6316676             -17.1886
        29        1.9966           -0.6293240             -17.1248
        30        1.9965           -0.6281886             -17.0939
        31        1.9944           -0.6172325             -16.7958
        32        1.9939           -0.6152242             -16.7411
        33        1.9931           -0.6121313             -16.6569
        34        1.9797           -0.5864116             -15.9571
        35        1.9565           -0.5680749             -15.4581
        36        1.9325           -0.5573573             -15.1665
        37        0.9692           -0.4762035             -12.9582 (HOMO)
        38        0.8796           -0.4719205             -12.8416 (LUMO)
        39        0.2214           -0.4281854             -11.6515
        40        0.0692           -0.3986068             -10.8466
        41        0.0235           -0.3724213             -10.1341
        42        0.0007           -0.2874616              -7.8222
        43        0.0000           -0.2080736              -5.6620
        44        0.0000           -0.1948136              -5.3011
        45        0.0000           -0.1493516              -4.0641
        46        0.0000           -0.1449660              -3.9447
        47                         -0.0761783              -2.0729
        48                         -0.0523406              -1.4243
       ...                                ...                  ...
        67                          0.5375814              14.6283
      -------------------------------------------------------------
                  HL-Gap            0.0042830 Eh            0.1165 eV

     #   Z          covCN         q      C6AA      α(0)
     1   6 C        3.691    -0.091    22.441     6.779
     2   7 N        2.823     0.069    20.034     6.648
     3   6 C        3.037     0.041    27.054     8.531
     4   7 N        2.783    -0.062    22.444     7.036
     5   6 C        3.033     0.102    25.708     8.317
     6   6 C        3.098    -0.019    28.364     8.728
     7   6 C        2.775     0.250    22.811     7.822
     8   8 O        0.857    -0.360    20.899     6.129
     9   7 N        2.740    -0.030    21.819     6.938
    10   6 C        2.812    -0.022    28.547     8.754
    11   6 C        2.735     0.305    21.813     7.647
    12   8 O        0.859    -0.348    20.668     6.095
    13   7 N        2.736    -0.045    22.120     6.985
    14   6 C        3.699    -0.073    22.067     6.719
    15   1 H        0.924     0.107     1.723     2.053
    16   1 H        0.925     0.104     1.748     2.067
    17   1 H        0.925     0.133     1.512     1.923
    18   1 H        0.926     0.120     1.611     1.985
    19   1 H        0.000     0.024     6.675     4.724
    20   1 H        0.924     0.136     1.487     1.907
    21   1 H        0.926     0.131     1.527     1.933
    22   1 H        0.924     0.087     1.905     2.159
    23   1 H        0.924     0.087     1.913     2.163
    24   1 H        0.925     0.128     1.547     1.945
    25   1 H        0.860     0.226     0.982     1.552

Wiberg/Mayer (AO) data.
largest (>0.10) Wiberg bond orders for each atom

     #   Z sym  total        # sym  WBO       # sym  WBO       # sym  WBO
 ---------------------------------------------------------------------------
     1   6 C    3.911 --     2 N    0.990    16 H    0.961    17 H    0.959
                            15 H    0.954
     2   7 N    3.599 --     3 C    1.341     6 C    1.143     1 C    0.990
     3   6 C    3.734 --     2 N    1.341     4 N    1.247    18 H    0.955
     4   7 N    3.541 --     3 C    1.247     5 C    1.189    25 H    0.921
     5   6 C    3.857 --     6 C    1.311     4 N    1.189    13 N    1.182
     6   6 C    3.868 --     5 C    1.311     2 N    1.143     7 C    1.126
     7   6 C    3.836 --     8 O    1.642     6 C    1.126     9 N    0.983
     8   8 O    1.900 --     7 C    1.642
     9   7 N    3.583 --    10 C    1.333    11 C    1.016     7 C    0.983
    10   6 C    3.273 --     9 N    1.333    21 H    0.955    20 H    0.911
    11   6 C    3.877 --    12 O    1.686    13 N    1.086     9 N    1.016
    12   8 O    1.977 --    11 C    1.686    13 N    0.125
    13   7 N    3.527 --     5 C    1.182    11 C    1.086    14 C    0.974
                            12 O    0.125
    14   6 C    3.915 --    13 N    0.974    23 H    0.968    22 H    0.967
                            24 H    0.962
    15   1 H    0.979 --     1 C    0.954
    16   1 H    0.982 --     1 C    0.961
    17   1 H    0.980 --     1 C    0.959
    18   1 H    0.984 --     3 C    0.955
    19   1 H    0.053
    20   1 H    0.978 --    10 C    0.911
    21   1 H    0.977 --    10 C    0.955
    22   1 H    0.985 --    14 C    0.967
    23   1 H    0.985 --    14 C    0.968
    24   1 H    0.981 --    14 C    0.962
    25   1 H    0.948 --     4 N    0.921
 ---------------------------------------------------------------------------

molecular dipole:
                 x           y           z       tot (Debye)
 q only:        2.147      -1.861       0.030
   full:        2.377      -2.292       0.044       8.393

           -------------------------------------------------
          | TOTAL ENERGY              -42.137921230488 Eh   |
          | GRADIENT NORM               0.002438764772 Eh/α |
          | HOMO-LUMO GAP               0.116545168742 eV   |
           -------------------------------------------------

 * finished run on 2024/06/05 at 19:58:54.020
