   * xtb version 6.6.1 (8d0f1dd) compiled by 'conda@1efc2f54142f' on 2023-08-01
          program call               : xtb struc.xyz --opt loose --input .xc1 --gfn2

   ID    Z sym.   atoms
    1    6 C      1, 3, 5-7, 10, 11, 14
    2    7 N      2, 4, 9, 13
    3    8 O      8, 12
    4    1 H      15-25
constraining bond 5 18 to    5.1400000 Å, actual value:    3.2287314 Å

          :  Hamiltonian                  GFN2-xTB          :
 * total energy  :   -35.7375951 Eh     change       -0.2401990E-09 Eh
 * total energy  :   -38.6853738 Eh     change       -0.2947779E+01 Eh
 * total energy  :   -40.5891857 Eh     change       -0.1903812E+01 Eh
 * total energy  :   -41.5701889 Eh     change       -0.9810033E+00 Eh
 * total energy  :   -41.8629325 Eh     change       -0.2927436E+00 Eh
 * total energy  :   -41.9179493 Eh     change       -0.5501683E-01 Eh
 * total energy  :   -41.9589684 Eh     change       -0.4101907E-01 Eh
 * total energy  :   -42.0077798 Eh     change       -0.4881144E-01 Eh
 * total energy  :   -42.0429742 Eh     change       -0.3519436E-01 Eh
 * total energy  :   -42.0660822 Eh     change       -0.2310798E-01 Eh
 * total energy  :   -42.1211301 Eh     change       -0.9287737E-03 Eh
 * total energy  :   -42.1232832 Eh     change       -0.2153123E-02 Eh
 * total energy  :   -42.1239463 Eh     change       -0.6631611E-03 Eh
 * total energy  :   -42.1246174 Eh     change       -0.6710771E-03 Eh
 * total energy  :   -42.1250892 Eh     change       -0.4718220E-03 Eh
 * total energy  :   -42.1253449 Eh     change       -0.2556219E-03 Eh
 * total energy  :   -42.1261277 Eh     change       -0.7827931E-03 Eh
 * total energy  :   -42.1264503 Eh     change       -0.3226590E-03 Eh
 * total energy  :   -42.1264898 Eh     change       -0.3943999E-04 Eh
   *** GEOMETRY OPTIMIZATION CONVERGED AFTER 24 ITERATIONS ***

 final structure:
================
25
 xtb: 6.6.1 (8d0f1dd)
C            3.15927762932955        1.09684240343110        0.01745345183126
N            2.19473848245774        0.03441195524091       -0.00049822013966
C            2.47668976960845       -1.27355505539545       -0.00828249668418
N            1.29968539415368       -1.94629747971971       -0.00726647280866
C            0.26195639312631       -1.06140006263372        0.00068667265850
C            0.82895967171220        0.20811254972772        0.00596703228936
C            0.01521335757431        1.39740655200901       -0.00204232104290
O            0.41873976300114        2.54097560169568       -0.01423551866358
N           -1.34979215853685        1.08769199644452        0.00161517202075
C           -2.28680251457036        2.19746323790083       -0.00148585503195
C           -1.93064003399838       -0.17129141839058        0.00400055336500
O           -3.12546934910079       -0.31913207673367        0.00695675399661
N           -1.06850570004473       -1.27675252971893        0.00129394870757
C           -1.63022242106761       -2.61042312246113       -0.00213412315462
H            3.66377512873749        1.13172275800629        0.98567812466379
H            3.91056573888944        0.92915517427549       -0.75478299584634
H            2.65251899918017        2.04657320848414       -0.15362911879903
H            5.34269413696878       -1.83245056882430       -0.01864124819890
H           -1.71595548043491        3.12525893715909        0.00596924858937
H           -2.91953606487789        2.15101843924505       -0.88988904215975
H           -2.93293334051050        2.14354530046368        0.87668228729889
H           -1.31170297278365       -3.16057011779890        0.88499141548718
H           -1.32515581515519       -3.15054669337130       -0.90018033596871
H           -2.71632506771802       -2.51407347449511        0.00632888879534
H            1.24865796815961       -2.95544697294069       -0.01338418330534

          :  Hamiltonian                  GFN2-xTB          :
         :: total energy             -42.126489764055 Eh    ::
         :: gradient norm              0.003452755864 Eh/a0 ::
         :: HOMO-LUMO gap              1.274820842139 eV    ::
         :: SCC energy               -42.628023234602 Eh    ::
         :: -> dispersion             -0.022580021943 Eh    ::
         :: repulsion energy           0.501443256429 Eh    ::

    * Orbital Energies and Occupations

         #    Occupation            Energy/Eh            Energy/eV
      -------------------------------------------------------------
         1        2.0000           -0.8975985             -24.4249
       ...           ...                  ...                  ...
        25        1.9974           -0.6696305             -18.2216
        26        1.9972           -0.6679381             -18.1755
        27        1.9935           -0.6476323             -17.6230
        28        1.9901           -0.6374901             -17.3470
        29        1.9854           -0.6283668             -17.0987
        30        1.9780           -0.6184670             -16.8293
        31        1.9774           -0.6178477             -16.8125
        32        1.9657           -0.6078348             -16.5400
        33        1.9476           -0.5975245             -16.2595
        34        1.8992           -0.5813829             -15.8202
        35        1.8899           -0.5791649             -15.7599
        36        1.7331           -0.5560776             -15.1316
        37        1.6983           -0.5526845             -15.0393 (HOMO)
        38        0.8783           -0.5058357             -13.7645 (LUMO)
        39        0.0537           -0.4263710             -11.6021
        40        0.0154           -0.3963103             -10.7842
        41        0.0065           -0.3757966             -10.2259
        42        0.0002           -0.2980310              -8.1098
        43        0.0000           -0.2139568              -5.8221
        44        0.0000           -0.1689071              -4.5962
        45        0.0000           -0.1459791              -3.9723
        46        0.0000           -0.1368558              -3.7240
        47                         -0.0672000              -1.8286
        48                         -0.0440382              -1.1983
       ...                                ...                  ...
        67                          0.5286842              14.3862
      -------------------------------------------------------------
                  HL-Gap            0.0468488 Eh            1.2748 eV

     #   Z          covCN         q      C6AA      α(0)
     1   6 C        3.692    -0.083    22.269     6.752
     2   7 N        2.846     0.075    19.936     6.631
     3   6 C        2.064    -0.054    32.395     9.194
     4   7 N        2.810    -0.057    22.340     7.020
     5   6 C        3.016     0.114    25.467     8.278
     6   6 C        3.089    -0.010    28.166     8.699
     7   6 C        2.764     0.269    22.452     7.760
     8   8 O        0.858    -0.334    20.413     6.058
     9   7 N        2.745    -0.071    22.611     7.062
    10   6 C        3.708    -0.061    21.815     6.676
    11   6 C        2.729     0.317    21.614     7.611
    12   8 O        0.860    -0.336    20.440     6.062
    13   7 N        2.738    -0.042    22.052     6.974
    14   6 C        3.697    -0.070    22.021     6.712
    15   1 H        0.924     0.114     1.663     2.017
    16   1 H        0.924     0.114     1.660     2.015
    17   1 H        0.925     0.125     1.572     1.961
    18   1 H        0.000     0.084     4.833     4.020
    19   1 H        0.925     0.127     1.558     1.952
    20   1 H        0.924     0.116     1.647     2.007
    21   1 H        0.924     0.116     1.644     2.005
    22   1 H        0.924     0.097     1.814     2.106
    23   1 H        0.924     0.097     1.812     2.105
    24   1 H        0.924     0.131     1.526     1.932
    25   1 H        0.860     0.221     1.007     1.572

Wiberg/Mayer (AO) data.
largest (>0.10) Wiberg bond orders for each atom

     #   Z sym  total        # sym  WBO       # sym  WBO       # sym  WBO
 ---------------------------------------------------------------------------
     1   6 C    3.884 --     2 N    1.000    17 H    0.952    16 H    0.950
                            15 H    0.942
     2   7 N    3.625 --     3 C    1.355     6 C    1.159     1 C    1.000
     3   6 C    2.828 --     2 N    1.355     4 N    1.281
     4   7 N    3.569 --     3 C    1.281     5 C    1.197    25 H    0.923
     5   6 C    3.879 --     6 C    1.313     4 N    1.197    13 N    1.196
     6   6 C    3.809 --     5 C    1.313     2 N    1.159     7 C    1.083
     7   6 C    3.920 --     8 O    1.657     9 N    1.085     6 C    1.083
     8   8 O    1.941 --     7 C    1.657     9 N    0.120
     9   7 N    3.484 --    11 C    1.115     7 C    1.085    10 C    0.979
                             8 O    0.120    12 O    0.118
    10   6 C    3.856 --     9 N    0.979    19 H    0.951    21 H    0.942
                            20 H    0.942
    11   6 C    3.941 --    12 O    1.674     9 N    1.115    13 N    1.061
    12   8 O    1.973 --    11 C    1.674     9 N    0.118    13 N    0.108
    13   7 N    3.488 --     5 C    1.196    11 C    1.061    14 C    0.978
                            12 O    0.108
    14   6 C    3.895 --    13 N    0.978    22 H    0.958    23 H    0.958
                            24 H    0.957
    15   1 H    0.966 --     1 C    0.942
    16   1 H    0.969 --     1 C    0.950
    17   1 H    0.972 --     1 C    0.952
    18   1 H    0.030
    19   1 H    0.970 --    10 C    0.951
    20   1 H    0.959 --    10 C    0.942
    21   1 H    0.959 --    10 C    0.942
    22   1 H    0.974 --    14 C    0.958
    23   1 H    0.974 --    14 C    0.958
    24   1 H    0.976 --    14 C    0.957
    25   1 H    0.950 --     4 N    0.923
 ---------------------------------------------------------------------------

molecular dipole:
                 x           y           z       tot (Debye)
 q only:        1.558      -1.486       0.007
   full:        1.334      -1.723       0.015       5.539

           -------------------------------------------------
          | TOTAL ENERGY              -42.126489764055 Eh   |
          | GRADIENT NORM               0.003452755864 Eh/α |
          | HOMO-LUMO GAP               1.274820842139 eV   |
           -------------------------------------------------

 * finished run on 2024/06/05 at 19:58:46.600
