   * xtb version 6.6.1 (8d0f1dd) compiled by 'conda@1efc2f54142f' on 2023-08-01
          program call               : xtb xtbopt.xyz --opt crude --input .xc2 --gfn2

   ID    Z sym.   atoms
    1    6 C      1, 3, 5-7, 10, 11, 14
    2    7 N      2, 4, 9, 13
    3    8 O      8, 12
    4    1 H      15-25
########################################################################
[WARNING] Please study the warnings concerning your input carefully
-1- readin_getIntValue: could not parse ''
########################################################################

          :  Hamiltonian                  GFN2-xTB          :
 * total energy  :   -42.1881886 Eh     change       -0.1342926E-11 Eh
   *** GEOMETRY OPTIMIZATION CONVERGED AFTER 1 ITERATIONS ***

 final structure:
================
25
 xtb: 6.6.1 (8d0f1dd)
C            3.10923625684260        1.21565734852227        0.07706685930027
N            2.17642982284104        0.12143833663380        0.05547034700397
C            2.50028498257273       -1.18616051331553        0.05071950095191
N            1.37288164285691       -1.93370002605376        0.02002409427546
C            0.30576634388236       -1.09316213288317        0.00527038894954
C            0.80028984127762        0.21671135004396        0.02990609887488
C           -0.08417401258137        1.28959345887725        0.02192069979962
O            0.32535780769174        2.57156753356921        0.00395002153221
N           -1.43246129539582        1.00710433875969        0.01633554600892
C           -2.36021473975643        1.97729087875660        0.05455044805836
C           -1.94607207551005       -0.33684144246894       -0.06792293566693
O           -3.12952194499680       -0.53005045063935       -0.13309972169174
N           -1.02346672442026       -1.36399886029015       -0.05410649915303
C           -1.50111236400518       -2.73424859006265       -0.09230110457186
H            3.71516740934485        1.17986923683562        0.98360999518132
H            3.77120084606763        1.16546275878763       -0.78853940225249
H            2.55695191755851        2.15139811985915        0.05298493148669
H            3.49748574951374       -1.57177150894824        0.06444345177187
H           -0.43617159516435        3.14424057266080       -0.18252928183167
H           -3.37767212781152        1.69297420788825       -0.07827872918883
H           -2.12102029912359        2.99380635945507        0.29040153103477
H           -1.15722953115675       -3.27745671106811        0.78822188834415
H           -1.15597663231452       -3.23063340627809       -0.99961136583362
H           -2.58943961570363       -2.70885403151755       -0.09391010570774
H            1.34391185159051       -2.94199828552374        0.00659496122394

          :  Hamiltonian                  GFN2-xTB          :
         :: total energy             -42.188188580405 Eh    ::
         :: gradient norm              0.006998621625 Eh/a0 ::
         :: HOMO-LUMO gap              1.466148398458 eV    ::
         :: SCC energy               -42.710594551867 Eh    ::
         :: -> dispersion             -0.022956715181 Eh    ::
         :: repulsion energy           0.522290588437 Eh    ::

    * Orbital Energies and Occupations

         #    Occupation            Energy/Eh            Energy/eV
      -------------------------------------------------------------
         1        2.0000           -0.8906198             -24.2350
       ...           ...                  ...                  ...
        25        2.0000           -0.6676910             -18.1688
        26        2.0000           -0.6614609             -17.9993
        27        2.0000           -0.6583697             -17.9152
        28        2.0000           -0.6454701             -17.5641
        29        2.0000           -0.6262651             -17.0415
        30        2.0000           -0.6209455             -16.8968
        31        2.0000           -0.6166762             -16.7806
        32        1.9999           -0.6115146             -16.6402
        33        1.9999           -0.6051316             -16.4665
        34        1.9999           -0.6034561             -16.4209
        35        1.9992           -0.5712826             -15.5454
        36        1.9972           -0.5518420             -15.0164
        37        1.6643           -0.4734374             -12.8829 (HOMO)
        38        0.2833           -0.4195575             -11.4167 (LUMO)
        39        0.0450           -0.3883666             -10.5680
        40        0.0115           -0.3664558              -9.9718
        41        0.0001           -0.2815843              -7.6623
        42        0.0000           -0.1979441              -5.3863
        43        0.0000           -0.1825050              -4.9662
        44                         -0.1455530              -3.9607
        45                         -0.1240817              -3.3764
        46                         -0.1053548              -2.8669
        47                         -0.0632219              -1.7204
        48                         -0.0439556              -1.1961
       ...                                ...                  ...
        67                          0.5331928              14.5089
      -------------------------------------------------------------
                  HL-Gap            0.0538800 Eh            1.4661 eV

     #   Z          covCN         q      C6AA      α(0)
     1   6 C        3.690    -0.088    22.383     6.771
     2   7 N        2.822     0.050    20.372     6.704
     3   6 C        3.034     0.030    27.291     8.569
     4   7 N        2.778    -0.057    22.336     7.019
     5   6 C        3.046     0.083    26.106     8.380
     6   6 C        3.084     0.002    27.895     8.658
     7   6 C        2.786     0.151    24.720     8.144
     8   8 O        1.659    -0.365    20.185     6.065
     9   7 N        2.741    -0.011    21.466     6.881
    10   6 C        2.815    -0.086    30.139     8.995
    11   6 C        2.741     0.303    21.854     7.654
    12   8 O        0.859    -0.360    20.906     6.130
    13   7 N        2.736    -0.050    22.206     6.999
    14   6 C        3.700    -0.072    22.046     6.715
    15   1 H        0.924     0.098     1.806     2.102
    16   1 H        0.924     0.097     1.813     2.106
    17   1 H        0.925     0.119     1.618     1.989
    18   1 H        0.927     0.113     1.671     2.021
    19   1 H        0.804     0.342     0.607     1.224
    20   1 H        0.927     0.113     1.673     2.023
    21   1 H        0.926     0.077     2.011     2.217
    22   1 H        0.924     0.082     1.961     2.190
    23   1 H        0.924     0.083     1.947     2.182
    24   1 H        0.925     0.124     1.578     1.964
    25   1 H        0.860     0.223     0.998     1.565

Wiberg/Mayer (AO) data.
largest (>0.10) Wiberg bond orders for each atom

     #   Z sym  total        # sym  WBO       # sym  WBO       # sym  WBO
 ---------------------------------------------------------------------------
     1   6 C    3.929 --     2 N    0.990    17 H    0.968    16 H    0.965
                            15 H    0.964
     2   7 N    3.590 --     3 C    1.299     6 C    1.133     1 C    0.990
     3   6 C    3.720 --     2 N    1.299     4 N    1.260    18 H    0.957
     4   7 N    3.565 --     3 C    1.260     5 C    1.200    25 H    0.922
     5   6 C    3.866 --     6 C    1.266     4 N    1.200    13 N    1.159
     6   6 C    3.939 --     7 C    1.278     5 C    1.266     2 N    1.133
     7   6 C    3.752 --     6 C    1.278     9 N    1.134     8 O    1.098
                            10 C    0.131
     8   8 O    2.104 --     7 C    1.098    19 H    0.835
     9   7 N    3.637 --    10 C    1.304     7 C    1.134    11 C    0.981
    10   6 C    3.537 --     9 N    1.304    20 H    0.963    21 H    0.957
                             7 C    0.131
    11   6 C    3.907 --    12 O    1.698    13 N    1.119     9 N    0.981
    12   8 O    2.031 --    11 C    1.698    13 N    0.147
    13   7 N    3.543 --     5 C    1.159    11 C    1.119    14 C    0.972
                            12 O    0.147
    14   6 C    3.927 --    22 H    0.972    13 N    0.972    23 H    0.971
                            24 H    0.966
    15   1 H    0.985 --     1 C    0.964
    16   1 H    0.985 --     1 C    0.965
    17   1 H    0.986 --     1 C    0.968
    18   1 H    0.986 --     3 C    0.957
    19   1 H    0.882 --     8 O    0.835
    20   1 H    0.987 --    10 C    0.963
    21   1 H    0.993 --    10 C    0.957
    22   1 H    0.991 --    14 C    0.972
    23   1 H    0.990 --    14 C    0.971
    24   1 H    0.984 --    14 C    0.966
    25   1 H    0.950 --     4 N    0.922
 ---------------------------------------------------------------------------

molecular dipole:
                 x           y           z       tot (Debye)
 q only:        2.201      -0.782      -0.026
   full:        2.318      -0.921      -0.028       6.340

           -------------------------------------------------
          | TOTAL ENERGY              -42.188188580405 Eh   |
          | GRADIENT NORM               0.006998621625 Eh/α |
          | HOMO-LUMO GAP               1.466148398458 eV   |
           -------------------------------------------------

 * finished run on 2024/06/05 at 19:59:21.771
