   * xtb version 6.6.1 (8d0f1dd) compiled by 'conda@1efc2f54142f' on 2023-08-01
          program call               : xtb xtbopt.xyz --opt crude --input .xc2 --gfn2

   ID    Z sym.   atoms
    1    6 C      1, 3, 5-7, 10, 11, 14
    2    7 N      2, 4, 9, 13
    3    8 O      8, 12
    4    1 H      15-25
########################################################################
[WARNING] Please study the warnings concerning your input carefully
-1- readin_getIntValue: could not parse ''
########################################################################

          :  Hamiltonian                  GFN2-xTB          :
 * total energy  :   -42.0617474 Eh     change       -0.1313083E-10 Eh
 * total energy  :   -42.0713406 Eh     change       -0.9593199E-02 Eh
 * total energy  :   -42.0805361 Eh     change       -0.9195430E-02 Eh
 * total energy  :   -42.0860245 Eh     change       -0.5488392E-02 Eh
 * total energy  :   -42.0897750 Eh     change       -0.3750564E-02 Eh
 * total energy  :   -42.0926808 Eh     change       -0.2905743E-02 Eh
 * total energy  :   -42.0936486 Eh     change       -0.9678805E-03 Eh
 * total energy  :   -42.0940068 Eh     change       -0.3581571E-03 Eh
 * total energy  :   -42.0942863 Eh     change       -0.2795457E-03 Eh
   *** GEOMETRY OPTIMIZATION CONVERGED AFTER 9 ITERATIONS ***

 final structure:
================
25
 xtb: 6.6.1 (8d0f1dd)
C            3.16360364947440        1.39970254109772        0.01449405020626
N            2.33830175180788        0.26815137926343       -0.02499352610880
C            2.56970645931910       -2.28416306245169       -0.02078553200695
N            1.29377100236720       -2.22754167177083       -0.01095509032851
C            0.45752399459433       -1.11009839271021       -0.00793514401707
C            1.05387437834718        0.17164660014548       -0.00566243454584
C            0.13481944221357        1.35947670929445        0.00001244935485
O            0.55015692261538        2.49324672491038       -0.00104730602336
N           -1.20250109217459        1.05794347831829       -0.00057017453693
C           -2.15702307835755        2.16190446276261        0.00117828143343
C           -1.77464266525865       -0.20042425776434        0.00300382532630
O           -2.96282151657849       -0.36532980563972        0.00979959775132
N           -0.88681653869793       -1.28861908319670       -0.00125666554160
C           -1.47998661281162       -2.61313456218111       -0.00029315119383
H            3.63433322825318        1.46195325567581        1.00155209352751
H            3.95948051788244        1.27601841052081       -0.72324409366732
H            2.60660835141840        2.32413689347778       -0.17436294520736
H            3.22322151726275       -1.41961452912311       -0.03225868346388
H           -1.60529831160951        3.09834700628401        0.01149375695637
H           -2.78525202802255        2.10233946462922       -0.88737465559042
H           -2.79710843732230        2.08912545775888        0.88012087146453
H           -1.20568549900886       -3.16553298411980        0.90017466289499
H           -1.20236442448277       -3.16732917526794       -0.89851685346326
H           -2.56275819737360       -2.48136422631490       -0.00173180185552
H            0.79728870024259       -3.12260209199857        0.00033008653505

          :  Hamiltonian                  GFN2-xTB          :
         :: total energy             -42.094286347657 Eh    ::
         :: gradient norm              0.009545658227 Eh/a0 ::
         :: HOMO-LUMO gap              0.151442375705 eV    ::
         :: SCC energy               -42.610944710397 Eh    ::
         :: -> dispersion             -0.022357753837 Eh    ::
         :: repulsion energy           0.516528024004 Eh    ::

    * Orbital Energies and Occupations

         #    Occupation            Energy/Eh            Energy/eV
      -------------------------------------------------------------
         1        2.0000           -0.8947679             -24.3479
       ...           ...                  ...                  ...
        25        1.9999           -0.6779038             -18.4467
        26        1.9999           -0.6764944             -18.4084
        27        1.9995           -0.6462330             -17.5849
        28        1.9993           -0.6421591             -17.4740
        29        1.9991           -0.6388879             -17.3850
        30        1.9987           -0.6325813             -17.2134
        31        1.9969           -0.6186492             -16.8343
        32        1.9943           -0.6089586             -16.5706
        33        1.9921           -0.6037060             -16.4277
        34        1.9856           -0.5941322             -16.1672
        35        1.9663           -0.5805140             -15.7966
        36        1.8674           -0.5580185             -15.1845
        37        1.1646           -0.5214002             -14.1880 (HOMO)
        38        0.9903           -0.5158348             -14.0366 (LUMO)
        39        0.0441           -0.4560779             -12.4105
        40        0.0017           -0.4039768             -10.9928
        41        0.0005           -0.3853203             -10.4851
        42        0.0000           -0.3000467              -8.1647
        43                         -0.2085786              -5.6757
        44                         -0.1691170              -4.6019
        45                         -0.1483452              -4.0367
        46                         -0.1006546              -2.7390
        47                         -0.0799205              -2.1747
        48                         -0.0440566              -1.1988
       ...                                ...                  ...
        67                          0.5432692              14.7831
      -------------------------------------------------------------
                  HL-Gap            0.0055654 Eh            0.1514 eV

     #   Z          covCN         q      C6AA      α(0)
     1   6 C        3.691    -0.055    21.751     6.674
     2   7 N        1.839    -0.122    24.420     7.323
     3   6 C        1.849    -0.066    32.947     9.272
     4   7 N        2.688     0.016    20.980     6.803
     5   6 C        2.856     0.085    26.106     8.375
     6   6 C        2.891     0.050    26.880     8.500
     7   6 C        2.767     0.270    22.434     7.757
     8   8 O        0.858    -0.325    20.236     6.031
     9   7 N        2.738    -0.068    22.565     7.055
    10   6 C        3.710    -0.063    21.843     6.679
    11   6 C        2.724     0.318    21.596     7.608
    12   8 O        0.859    -0.345    20.612     6.087
    13   7 N        2.739    -0.041    22.043     6.973
    14   6 C        3.700    -0.080    22.190     6.737
    15   1 H        0.924     0.120     1.615     1.988
    16   1 H        0.924     0.115     1.654     2.011
    17   1 H        0.924     0.134     1.507     1.920
    18   1 H        0.925     0.159     1.330     1.804
    19   1 H        0.925     0.115     1.655     2.012
    20   1 H        0.925     0.106     1.728     2.056
    21   1 H        0.925     0.107     1.725     2.054
    22   1 H        0.924     0.092     1.859     2.132
    23   1 H        0.924     0.092     1.859     2.132
    24   1 H        0.924     0.137     1.485     1.906
    25   1 H        0.859     0.249     0.888     1.476

Wiberg/Mayer (AO) data.
largest (>0.10) Wiberg bond orders for each atom

     #   Z sym  total        # sym  WBO       # sym  WBO       # sym  WBO
 ---------------------------------------------------------------------------
     1   6 C    3.879 --     2 N    1.088    16 H    0.929    15 H    0.911
                            17 H    0.891
     2   7 N    2.909 --     6 C    1.542     1 C    1.088     3 C    0.117
     3   6 C    2.755 --     4 N    1.627    18 H    0.860     2 N    0.117
     4   7 N    3.672 --     3 C    1.627     5 C    1.083    25 H    0.874
     5   6 C    3.692 --     6 C    1.217    13 N    1.216     4 N    1.083
     6   6 C    3.918 --     2 N    1.542     5 C    1.217     7 C    0.939
     7   6 C    3.899 --     8 O    1.702     9 N    1.159     6 C    0.939
     8   8 O    2.039 --     7 C    1.702     9 N    0.141
     9   7 N    3.550 --     7 C    1.159    11 C    1.104    10 C    0.961
                             8 O    0.141    12 O    0.121
    10   6 C    3.892 --    19 H    0.967     9 N    0.961    21 H    0.959
                            20 H    0.959
    11   6 C    3.940 --    12 O    1.700     9 N    1.104    13 N    1.050
    12   8 O    2.014 --    11 C    1.700     9 N    0.121    13 N    0.110
    13   7 N    3.480 --     5 C    1.216    11 C    1.050    14 C    0.978
                            12 O    0.110
    14   6 C    3.915 --    13 N    0.978    23 H    0.961    22 H    0.961
                            24 H    0.956
    15   1 H    0.948 --     1 C    0.911
    16   1 H    0.956 --     1 C    0.929
    17   1 H    0.931 --     1 C    0.891
    18   1 H    0.937 --     3 C    0.860
    19   1 H    0.984 --    10 C    0.967
    20   1 H    0.979 --    10 C    0.959
    21   1 H    0.979 --    10 C    0.959
    22   1 H    0.981 --    14 C    0.961
    23   1 H    0.981 --    14 C    0.961
    24   1 H    0.980 --    14 C    0.956
    25   1 H    0.916 --     4 N    0.874
 ---------------------------------------------------------------------------

molecular dipole:
                 x           y           z       tot (Debye)
 q only:        1.457      -1.694       0.018
   full:        1.315      -1.582       0.034       5.230

           -------------------------------------------------
          | TOTAL ENERGY              -42.094286347657 Eh   |
          | GRADIENT NORM               0.009545658227 Eh/α |
          | HOMO-LUMO GAP               0.151442375705 eV   |
           -------------------------------------------------

 * finished run on 2024/06/05 at 19:58:15.822
