   * xtb version 6.6.1 (8d0f1dd) compiled by 'conda@1efc2f54142f' on 2023-08-01
          program call               : xtb struc.xyz --opt loose --input .xc1 --gfn2

   ID    Z sym.   atoms
    1    7 N      1, 17
    2    6 C      2-6, 8, 9, 11-16, 18-23, 25, 26, 28-33
    3    8 O      7, 10, 24, 27
    4    1 H      34-72
constraining bond 1 14 to    5.9200000 Å, actual value:    3.5108775 Å

          :  Hamiltonian                  GFN2-xTB          :
 * total energy  :   -98.3678311 Eh     change       -0.4035485E-08 Eh
 * total energy  :   -98.6646736 Eh     change       -0.2968425E+00 Eh
 * total energy  :   -98.8491934 Eh     change       -0.1845199E+00 Eh
 * total energy  :   -98.9580426 Eh     change       -0.1088492E+00 Eh
 * total energy  :   -99.0255016 Eh     change       -0.6745901E-01 Eh
 * total energy  :   -99.0726799 Eh     change       -0.4717828E-01 Eh
 * total energy  :   -99.1182425 Eh     change       -0.4556260E-01 Eh
 * total energy  :   -99.1644503 Eh     change       -0.4620786E-01 Eh
 * total energy  :   -99.2064690 Eh     change       -0.4201864E-01 Eh
 * total energy  :   -99.2316940 Eh     change       -0.2522507E-01 Eh
 * total energy  :   -99.3165048 Eh     change       -0.8350376E-04 Eh
 * total energy  :   -99.3166125 Eh     change       -0.1076467E-03 Eh
 * total energy  :   -99.3167071 Eh     change       -0.9464629E-04 Eh
 * total energy  :   -99.3167782 Eh     change       -0.7102469E-04 Eh
 * total energy  :   -99.3168380 Eh     change       -0.5986387E-04 Eh
 * total energy  :   -99.3168982 Eh     change       -0.6019951E-04 Eh
 * total energy  :   -99.3169591 Eh     change       -0.6088067E-04 Eh
 * total energy  :   -99.3170101 Eh     change       -0.5103140E-04 Eh
 * total energy  :   -99.3170492 Eh     change       -0.3906715E-04 Eh
   *** GEOMETRY OPTIMIZATION CONVERGED AFTER 54 ITERATIONS ***

 final structure:
================
72
 xtb: 6.6.1 (8d0f1dd)
N           -1.68172289476831        3.19117745906768        2.69047137521611
C           -1.99688438193997        2.01055671976702        2.29847264174880
C           -3.15855912791081        1.72484395538421        1.54417615142326
C           -3.42930509810604        0.38057254125239        1.13265475930116
C           -4.21134822727525        0.11082878405407       -0.01683508807418
C           -4.49956224671143       -1.17694381782275       -0.42380008220227
O           -5.22381061265700       -1.50400160934071       -1.51735383170774
C           -5.88491062459352       -0.48587961006125       -2.23219974457054
C           -4.00346026750528       -2.28223073163248        0.32288892290004
O           -4.33729932517319       -3.49947741711465       -0.14608263159680
C           -4.00372756051616       -4.64322934317904        0.60618708025081
C           -3.23454642245053       -2.02591577946841        1.45335039744644
C           -2.94684796395267       -0.73227703266520        1.84462303760438
C           -2.26023136778720        1.76513876245494       -3.02057325357219
C           -1.73811815777831        0.62658796464565       -2.25227020563961
C           -0.44302316419012        0.85852541645133       -1.59357792580338
N            0.19733583591636       -0.06263816697212       -0.89087502320039
C            1.53679499877746        0.17501847888801       -0.40722086258745
C            2.58920671497177       -0.37279487514953       -1.39177686368140
C            3.98039841734275       -0.10965807154709       -0.88763443278534
C            4.58071350359517        1.12324575786630       -1.08963597610302
C            5.86391797548091        1.37254939155446       -0.62929915246322
C            6.57448466386370        0.39072458736152        0.04699108325030
O            7.82583918564300        0.51322370486779        0.52434938787974
C            8.52870564612987        1.71680870591091        0.31642478756269
C            5.96282972887431       -0.87472410385426        0.26866174114014
O            6.72298279941664       -1.76780185978346        0.93157126937013
C            6.22686119685820       -3.06532556245661        1.15841328781610
C            4.67710553346389       -1.09918055209985       -0.19853092562637
C           -0.33828051061759       -1.39315256892723       -0.75578526374577
C           -4.09071032367419        2.84485334931518        1.16879962127345
C           -4.54990893208321        3.61118143369068        2.41319572344376
C           -3.42590641910642        3.80143666872992        0.17334474137110
H           -4.59937937131599        0.93887417867712       -0.58612199970314
H           -6.56026978793314        0.08294237265554       -1.58704286213472
H           -6.46399564753301       -0.99668146822000       -2.99859332104254
H           -5.17548620731870        0.19667924063550       -2.71041005130521
H           -4.42925160639820       -4.59823650201688        1.61242150856581
H           -4.43856527937260       -5.48250872379220        0.06809796700714
H           -2.91985976374604       -4.77873344077511        0.67346357353466
H           -2.87026222893195       -2.84459407862129        2.05316999199092
H           -2.39077415306058       -0.58953519453787        2.75675927107415
H           -3.18093878000801        1.66342496749766       -3.55920582271837
H           -1.72452365502039        2.68896901798486       -3.09040808487616
H           -2.48168034432085        0.32345339619678       -1.48520980089833
H           -1.67261755755691       -0.26340570634962       -2.90105829490946
H           -1.33366217717358        1.15797851363141        2.49750607250410
H            0.01750123810837        1.83066874768682       -1.66593746323896
H            1.65782564868159       -0.30872594148520        0.56492268689243
H            1.68870157597727        1.24794556144146       -0.27812213406214
H            2.44683014314760        0.11609334061530       -2.35750963461694
H            2.43896607843877       -1.44517996183990       -1.52342283390497
H            4.05447216305924        1.89862882920865       -1.62519893328999
H            6.30788142469378        2.33758303506582       -0.81016181708754
H            8.03248212274591        2.56062014311573        0.80514267844506
H            8.64925617990056        1.93039951288021       -0.74985160644255
H            9.50762385141184        1.56409840547873        0.76684807275889
H            7.02393042296311       -3.59606833037049        1.67538047030448
H            5.33421991517192       -3.04911687795098        1.79188734424648
H            6.00090185260127       -3.57846159477715        0.21852656494545
H            4.20962665199627       -2.05923127197777       -0.04461012027672
H           -0.42209512949248       -1.88687307147989       -1.72746834498467
H           -1.33196352472672       -1.35899590336595       -0.30306420111466
H            0.31359927263321       -1.98529513593636       -0.11882154808326
H           -4.98700854013169        2.42159419186528        0.70653713120996
H           -3.69402034163197        4.07169671830687        2.89700711010153
H           -5.03528890384618        2.93816477075047        3.11620785486413
H           -5.25706771223960        4.38602196389483        2.12712106829957
H           -2.55191181845127        4.25391595389036        0.63464845418936
H           -3.11732699952045        3.27420149837820       -0.73052725288145
H           -4.12455847504796        4.58787907582973       -0.10124786557421
H           -0.82380750865570        3.29190671064005        3.21848626693863

          :  Hamiltonian                  GFN2-xTB          :
         :: total energy             -99.317049214886 Eh    ::
         :: gradient norm              0.002032207035 Eh/a0 ::
         :: HOMO-LUMO gap              0.067310468797 eV    ::
         :: SCC energy              -100.708101913080 Eh    ::
         :: -> dispersion             -0.071328065267 Eh    ::
         :: repulsion energy           1.389233298149 Eh    ::

    * Orbital Energies and Occupations

         #    Occupation            Energy/Eh            Energy/eV
      -------------------------------------------------------------
         1        2.0000           -0.8168332             -22.2272
       ...           ...                  ...                  ...
        78        1.9982           -0.5313659             -14.4592
        79        1.9982           -0.5307476             -14.4424
        80        1.9975           -0.5262700             -14.3205
        81        1.9968           -0.5220269             -14.2051
        82        1.9953           -0.5160186             -14.0416
        83        1.9938           -0.5115565             -13.9202
        84        1.9922           -0.5078548             -13.8194
        85        1.9865           -0.4991250             -13.5819
        86        1.9772           -0.4908227             -13.3560
        87        1.9330           -0.4733829             -12.8814
        88        1.8326           -0.4580314             -12.4637
        89        1.8205           -0.4568227             -12.4308
        90        1.1256           -0.4241348             -11.5413 (HOMO)
        91        1.0481           -0.4216612             -11.4740 (LUMO)
        92        0.3003           -0.3926919             -10.6857
        93        0.0048           -0.3247781              -8.8377
        94        0.0035           -0.3198607              -8.7039
        95        0.0025           -0.3145378              -8.5590
        96        0.0022           -0.3124996              -8.5035
        97        0.0001           -0.2613590              -7.1119
        98        0.0000           -0.1897901              -5.1645
        99        0.0000           -0.1869184              -5.0863
       100                         -0.1359742              -3.7000
       101                         -0.0716716              -1.9503
       ...                                ...                  ...
       171                          0.5742488              15.6261
      -------------------------------------------------------------
                  HL-Gap            0.0024736 Eh            0.0673 eV

     #   Z          covCN         q      C6AA      α(0)
     1   7 N        1.779    -0.290    28.333     7.883
     2   6 C        2.823     0.077    26.263     8.397
     3   6 C        2.963    -0.007    28.190     8.709
     4   6 C        2.967    -0.000    28.032     8.685
     5   6 C        2.920    -0.087    30.175     9.008
     6   6 C        2.858     0.126    25.230     8.233
     7   8 O        1.706    -0.238    17.949     5.720
     8   6 C        3.644     0.028    20.449     6.500
     9   6 C        2.863     0.126    25.230     8.233
    10   8 O        1.706    -0.227    17.757     5.689
    11   6 C        3.645     0.026    20.476     6.504
    12   6 C        2.910    -0.073    29.821     8.954
    13   6 C        2.921    -0.051    29.259     8.870
    14   6 C        2.837    -0.119    31.010     9.126
    15   6 C        3.803    -0.056    21.579     6.613
    16   6 C        2.850     0.005    27.913     8.659
    17   7 N        2.730     0.019    20.922     6.793
    18   6 C        3.755    -0.019    20.975     6.530
    19   6 C        3.808    -0.071    21.846     6.653
    20   6 C        2.968     0.000    28.014     8.682
    21   6 C        2.922    -0.048    29.195     8.861
    22   6 C        2.914    -0.067    29.662     8.931
    23   6 C        2.865     0.134    25.065     8.206
    24   8 O        1.706    -0.220    17.648     5.672
    25   6 C        3.645     0.024    20.502     6.508
    26   6 C        2.863     0.134    25.077     8.208
    27   8 O        1.706    -0.223    17.699     5.680
    28   6 C        3.645     0.027    20.463     6.502
    29   6 C        2.919    -0.079    29.974     8.978
    30   6 C        3.703    -0.073    22.063     6.716
    31   6 C        3.854    -0.005    20.637     6.461
    32   6 C        3.756    -0.115    22.748     6.800
    33   6 C        3.756    -0.110    22.663     6.788
    34   1 H        0.926     0.056     2.244     2.343
    35   1 H        0.924     0.055     2.259     2.351
    36   1 H        0.925     0.081     1.972     2.196
    37   1 H        0.924     0.045     2.378     2.411
    38   1 H        0.924     0.058     2.222     2.331
    39   1 H        0.925     0.082     1.956     2.187
    40   1 H        0.924     0.048     2.342     2.393
    41   1 H        0.926     0.052     2.289     2.366
    42   1 H        0.926     0.048     2.339     2.391
    43   1 H        0.926     0.053     2.287     2.365
    44   1 H        0.927     0.055     2.259     2.350
    45   1 H        0.922     0.104     1.753     2.071
    46   1 H        0.923     0.096     1.820     2.110
    47   1 H        0.923     0.006     2.964     2.692
    48   1 H        0.926     0.081     1.970     2.195
    49   1 H        0.924     0.069     2.091     2.261
    50   1 H        0.924     0.073     2.053     2.241
    51   1 H        0.924     0.057     2.230     2.335
    52   1 H        0.924     0.055     2.258     2.350
    53   1 H        0.926     0.047     2.361     2.403
    54   1 H        0.926     0.060     2.200     2.319
    55   1 H        0.924     0.056     2.252     2.347
    56   1 H        0.924     0.057     2.237     2.339
    57   1 H        0.925     0.083     1.946     2.181
    58   1 H        0.925     0.083     1.952     2.185
    59   1 H        0.924     0.049     2.327     2.386
    60   1 H        0.924     0.053     2.283     2.363
    61   1 H        0.926     0.048     2.348     2.396
    62   1 H        0.924     0.078     1.996     2.209
    63   1 H        0.924     0.079     1.987     2.205
    64   1 H        0.925     0.082     1.962     2.191
    65   1 H        0.924     0.041     2.433     2.439
    66   1 H        0.925     0.078     1.998     2.210
    67   1 H        0.925     0.041     2.435     2.440
    68   1 H        0.925     0.051     2.303     2.373
    69   1 H        0.925     0.063     2.167     2.302
    70   1 H        0.924     0.028     2.611     2.527
    71   1 H        0.925     0.052     2.292     2.367
    72   1 H        0.860     0.147     1.421     1.867

Wiberg/Mayer (AO) data.
largest (>0.10) Wiberg bond orders for each atom

     #   Z sym  total        # sym  WBO       # sym  WBO       # sym  WBO
 ---------------------------------------------------------------------------
     1   7 N    2.720 --     2 C    1.677    72 H    0.947
     2   6 C    3.927 --     1 N    1.677     3 C    1.260    47 H    0.925
     3   6 C    3.601 --     2 C    1.260     4 C    1.215    31 C    1.011
     4   6 C    3.967 --    13 C    1.309     5 C    1.273     3 C    1.215
     5   6 C    3.909 --     6 C    1.426     4 C    1.273    34 H    0.953
     6   6 C    3.908 --     5 C    1.426     9 C    1.210     7 O    1.092
     7   8 O    2.248 --     6 C    1.092     8 C    0.978
     8   6 C    3.932 --     7 O    0.978    36 H    0.977    35 H    0.974
                            37 H    0.972
     9   6 C    3.838 --    12 C    1.357     6 C    1.210    10 O    1.107
    10   8 O    2.243 --     9 C    1.107    11 C    0.976
    11   6 C    3.930 --    39 H    0.977    10 O    0.976    40 H    0.973
                            38 H    0.973
    12   6 C    3.964 --    13 C    1.454     9 C    1.357    41 H    0.963
    13   6 C    3.875 --    12 C    1.454     4 C    1.309    42 H    0.963
    14   6 C    3.129 --    15 C    1.098    43 H    0.982    44 H    0.982
    15   6 C    3.981 --    14 C    1.098    16 C    1.074    46 H    0.893
                            45 H    0.861
    16   6 C    3.612 --    17 N    1.422    15 C    1.074    48 H    0.957
    17   7 N    3.493 --    16 C    1.422    30 C    1.002    18 C    0.987
    18   6 C    3.953 --    17 N    0.987    50 H    0.967    19 C    0.966
                            49 H    0.965
    19   6 C    3.976 --    20 C    1.008    52 H    0.972    51 H    0.970
                            18 C    0.966
    20   6 C    3.942 --    21 C    1.406    29 C    1.382    19 C    1.008
    21   6 C    3.947 --    22 C    1.420    20 C    1.406    53 H    0.968
    22   6 C    3.958 --    21 C    1.420    23 C    1.381    54 H    0.963
    23   6 C    3.892 --    22 C    1.381    26 C    1.218    24 O    1.113
    24   8 O    2.255 --    23 C    1.113    25 C    0.975
    25   6 C    3.927 --    57 H    0.977    24 O    0.975    56 H    0.972
                            55 H    0.972
    26   6 C    3.896 --    29 C    1.393    23 C    1.218    27 O    1.106
    27   8 O    2.254 --    26 C    1.106    28 C    0.978
    28   6 C    3.931 --    27 O    0.978    58 H    0.977    59 H    0.973
                            60 H    0.973
    29   6 C    3.958 --    26 C    1.393    20 C    1.382    61 H    0.962
    30   6 C    3.957 --    17 N    1.002    64 H    0.978    62 H    0.962
                            63 H    0.959
    31   6 C    3.971 --     3 C    1.011    32 C    0.982    33 C    0.980
                            65 H    0.955
    32   6 C    3.946 --    67 H    0.984    31 C    0.982    68 H    0.979
                            66 H    0.964
    33   6 C    3.957 --    70 H    0.983    71 H    0.981    31 C    0.980
                            69 H    0.978
    34   1 H    0.995 --     5 C    0.953
    35   1 H    0.994 --     8 C    0.974
    36   1 H    0.993 --     8 C    0.977
    37   1 H    0.995 --     8 C    0.972
    38   1 H    0.992 --    11 C    0.973
    39   1 H    0.993 --    11 C    0.977
    40   1 H    0.993 --    11 C    0.973
    41   1 H    0.995 --    12 C    0.963
    42   1 H    0.997 --    13 C    0.963
    43   1 H    0.996 --    14 C    0.982
    44   1 H    0.997 --    14 C    0.982
    45   1 H    0.945 --    15 C    0.861
    46   1 H    0.949 --    15 C    0.893
    47   1 H    0.965 --     2 C    0.925
    48   1 H    0.993 --    16 C    0.957
    49   1 H    0.992 --    18 C    0.965
    50   1 H    0.993 --    18 C    0.967
    51   1 H    0.995 --    19 C    0.970
    52   1 H    0.996 --    19 C    0.972
    53   1 H    0.997 --    21 C    0.968
    54   1 H    0.995 --    22 C    0.963
    55   1 H    0.991 --    25 C    0.972
    56   1 H    0.991 --    25 C    0.972
    57   1 H    0.992 --    25 C    0.977
    58   1 H    0.992 --    28 C    0.977
    59   1 H    0.993 --    28 C    0.973
    60   1 H    0.992 --    28 C    0.973
    61   1 H    0.996 --    29 C    0.962
    62   1 H    0.985 --    30 C    0.962
    63   1 H    0.987 --    30 C    0.959
    64   1 H    0.993 --    30 C    0.978
    65   1 H    0.989 --    31 C    0.955
    66   1 H    0.986 --    32 C    0.964
    67   1 H    0.995 --    32 C    0.984
    68   1 H    0.991 --    32 C    0.979
    69   1 H    0.993 --    33 C    0.978
    70   1 H    0.998 --    33 C    0.983
    71   1 H    0.992 --    33 C    0.981
    72   1 H    0.967 --     1 N    0.947
 ---------------------------------------------------------------------------

molecular dipole:
                 x           y           z       tot (Debye)
 q only:        0.686      -0.592      -0.985
   full:        0.743      -0.885      -0.835       3.623

           -------------------------------------------------
          | TOTAL ENERGY              -99.317049214886 Eh   |
          | GRADIENT NORM               0.002032207035 Eh/α |
          | HOMO-LUMO GAP               0.067310468797 eV   |
           -------------------------------------------------

 * finished run on 2024/04/06 at 11:11:39.884
