   * xtb version 6.6.1 (8d0f1dd) compiled by 'conda@1efc2f54142f' on 2023-08-01
          program call               : xtb struc.xyz --opt loose --input .xc1 --gfn2

   ID    Z sym.   atoms
    1    6 C      1, 3, 5-7, 10, 11, 14
    2    7 N      2, 4, 9, 13
    3    8 O      8, 12
    4    1 H      15-25
constraining bond 7 8 to    3.7600000 Å, actual value:    1.2054518 Å

          :  Hamiltonian                  GFN2-xTB          :
 * total energy  :     4.3596471 Eh     change       -0.6650680E-10 Eh
 * total energy  :   -17.0299948 Eh     change       -0.2138964E+02 Eh
 * total energy  :   -30.4346799 Eh     change       -0.1340469E+02 Eh
 * total energy  :   -38.1793332 Eh     change       -0.7744653E+01 Eh
 * total energy  :   -41.1999715 Eh     change       -0.3020638E+01 Eh
 * total energy  :   -41.6349040 Eh     change       -0.4349325E+00 Eh
 * total energy  :   -41.6551814 Eh     change       -0.2027746E-01 Eh
 * total energy  :   -41.6359876 Eh     change        0.1919382E-01 Eh
 * total energy  :   -41.7187926 Eh     change       -0.8280502E-01 Eh
 * total energy  :   -41.7343861 Eh     change       -0.1559347E-01 Eh
 * total energy  :   -42.1614896 Eh     change       -0.1170114E-04 Eh
 * total energy  :   -42.1617632 Eh     change       -0.2735669E-03 Eh
 * total energy  :   -42.1618499 Eh     change       -0.8672725E-04 Eh
 * total energy  :   -42.1618041 Eh     change        0.4580144E-04 Eh
 * total energy  :   -42.1619986 Eh     change       -0.1944717E-03 Eh
 * total energy  :   -42.1620487 Eh     change       -0.5012904E-04 Eh
 * total energy  :   -42.1621450 Eh     change       -0.9632983E-04 Eh
 * total energy  :   -42.1622058 Eh     change       -0.6072375E-04 Eh
 * total energy  :   -42.1622499 Eh     change       -0.4415926E-04 Eh
   *** GEOMETRY OPTIMIZATION CONVERGED AFTER 107 ITERATIONS ***

 final structure:
================
25
 xtb: 6.6.1 (8d0f1dd)
C            2.95295314607407        1.37410070240805        0.11284067294442
N            2.09501434068095        0.21329899512687        0.14525458127422
C            2.47053526285681       -1.05014596705037       -0.05505708886486
N            1.37780318335379       -1.84324536114626       -0.14634735102889
C            0.27648339364448       -1.05546922240151       -0.01715488848298
C            0.71794199911182        0.25810300166507        0.16389331007237
C           -0.17634597735513        1.32786530972452        0.33711666820555
O            3.22782603937710        1.60531872562793       -1.23501142539359
N           -1.45516884715389        0.95875591983180        0.29701787092232
C           -2.47806072318871        1.97554967580047        0.46597496573383
C           -1.97218308457957       -0.33257522678225        0.10667230532508
O           -3.14961514331099       -0.55617861572707        0.08005936839148
N           -1.02840699423125       -1.36743705184021       -0.04772873107980
C           -1.49761256888317       -2.72346396607389       -0.25607149654282
H            2.39624372966103        2.20224281766995        0.57305686250102
H            3.86628143520385        1.15859691741599        0.68845252024602
H            3.75768133712231        2.40371990347503       -1.34357810599820
H            3.48317946169264       -1.38843380830617       -0.14247544687892
H           -1.99005338804810        2.93898100779211        0.57748087969301
H           -3.14001724806194        1.98226973575917       -0.40002218604518
H           -3.08064022437066        1.75179217838831        1.34663569790614
H           -1.09849189268124       -3.38539042905503        0.51172647041035
H           -1.20853060622173       -3.07788609976009       -1.24570644551681
H           -2.58455154349289       -2.70966718555009       -0.18809619992490
H            1.39816642706976       -2.84246341551425       -0.29776119017920

          :  Hamiltonian                  GFN2-xTB          :
         :: total energy             -42.162249918140 Eh    ::
         :: gradient norm              0.003321347231 Eh/a0 ::
         :: HOMO-LUMO gap              1.694144897828 eV    ::
         :: SCC energy               -42.669707709793 Eh    ::
         :: -> dispersion             -0.022220085387 Eh    ::
         :: repulsion energy           0.507362036639 Eh    ::

    * Orbital Energies and Occupations

         #    Occupation            Energy/Eh            Energy/eV
      -------------------------------------------------------------
         1        2.0000           -0.9015534             -24.5325
       ...           ...                  ...                  ...
        25        2.0000           -0.6669631             -18.1490
        26        2.0000           -0.6494858             -17.6734
        27        2.0000           -0.6451110             -17.5544
        28        1.9999           -0.6397161             -17.4076
        29        1.9999           -0.6309898             -17.1701
        30        1.9998           -0.6216977             -16.9173
        31        1.9998           -0.6204478             -16.8832
        32        1.9992           -0.5975948             -16.2614
        33        1.9977           -0.5797898             -15.7769
        34        1.9976           -0.5793358             -15.7645
        35        1.9953           -0.5684849             -15.4693
        36        1.9851           -0.5502892             -14.9741
        37        1.7539           -0.5039020             -13.7119 (HOMO)
        38        0.2452           -0.4416433             -12.0177 (LUMO)
        39        0.0235           -0.4026168             -10.9558
        40        0.0031           -0.3705773             -10.0839
        41        0.0000           -0.2816107              -7.6630
        42                         -0.1943441              -5.2884
        43                         -0.1906411              -5.1876
        44                         -0.1356920              -3.6924
        45                         -0.1113385              -3.0297
        46                         -0.0751902              -2.0460
        47                         -0.0671845              -1.8282
        48                         -0.0429052              -1.1675
       ...                                ...                  ...
        67                          0.5398444              14.6899
      -------------------------------------------------------------
                  HL-Gap            0.0622587 Eh            1.6941 eV

     #   Z          covCN         q      C6AA      α(0)
     1   6 C        3.615     0.122    19.041     6.297
     2   7 N        2.833     0.048    20.406     6.709
     3   6 C        3.045     0.062    26.564     8.453
     4   7 N        2.784    -0.057    22.336     7.019
     5   6 C        3.051     0.114    25.448     8.273
     6   6 C        3.113     0.029    27.208     8.545
     7   6 C        1.924    -0.115    34.307     9.459
     8   8 O        1.658    -0.415    21.148     6.208
     9   7 N        2.760     0.014    21.016     6.809
    10   6 C        3.718    -0.071    21.980     6.697
    11   6 C        2.733     0.309    21.759     7.637
    12   8 O        0.859    -0.360    20.907     6.130
    13   7 N        2.738    -0.047    22.141     6.989
    14   6 C        3.697    -0.070    22.019     6.712
    15   1 H        0.923     0.093     1.853     2.129
    16   1 H        0.923     0.071     2.073     2.252
    17   1 H        0.805     0.331     0.633     1.250
    18   1 H        0.926     0.124     1.582     1.967
    19   1 H        0.925     0.105     1.743     2.065
    20   1 H        0.925     0.101     1.772     2.082
    21   1 H        0.924     0.100     1.789     2.092
    22   1 H        0.925     0.080     1.978     2.200
    23   1 H        0.924     0.083     1.950     2.184
    24   1 H        0.925     0.124     1.578     1.965
    25   1 H        0.860     0.227     0.980     1.551

Wiberg/Mayer (AO) data.
largest (>0.10) Wiberg bond orders for each atom

     #   Z sym  total        # sym  WBO       # sym  WBO       # sym  WBO
 ---------------------------------------------------------------------------
     1   6 C    3.925 --     8 O    1.015     2 N    0.967    16 H    0.955
                            15 H    0.955
     2   7 N    3.622 --     3 C    1.366     6 C    1.129     1 C    0.967
     3   6 C    3.787 --     2 N    1.366     4 N    1.273    18 H    0.953
     4   7 N    3.586 --     3 C    1.273     5 C    1.196    25 H    0.918
     5   6 C    3.908 --     6 C    1.290    13 N    1.228     4 N    1.196
     6   6 C    3.893 --     5 C    1.290     7 C    1.233     2 N    1.129
     7   6 C    2.801 --     9 N    1.375     6 C    1.233
     8   8 O    1.961 --     1 C    1.015    17 H    0.872
     9   7 N    3.627 --     7 C    1.375    11 C    1.068    10 C    0.979
                            12 O    0.115
    10   6 C    3.923 --     9 N    0.979    19 H    0.975    20 H    0.961
                            21 H    0.961
    11   6 C    3.936 --    12 O    1.714     9 N    1.068    13 N    1.052
    12   8 O    2.050 --    11 C    1.714    13 N    0.133     9 N    0.115
    13   7 N    3.562 --     5 C    1.228    11 C    1.052    14 C    0.974
                            12 O    0.133
    14   6 C    3.926 --    13 N    0.974    22 H    0.971    23 H    0.970
                            24 H    0.965
    15   1 H    0.990 --     1 C    0.955
    16   1 H    0.992 --     1 C    0.955
    17   1 H    0.889 --     8 O    0.872
    18   1 H    0.984 --     3 C    0.953
    19   1 H    0.988 --    10 C    0.975
    20   1 H    0.985 --    10 C    0.961
    21   1 H    0.985 --    10 C    0.961
    22   1 H    0.992 --    14 C    0.971
    23   1 H    0.991 --    14 C    0.970
    24   1 H    0.984 --    14 C    0.965
    25   1 H    0.947 --     4 N    0.918
 ---------------------------------------------------------------------------

molecular dipole:
                 x           y           z       tot (Debye)
 q only:        2.364      -0.761       0.260
   full:        2.751      -1.345       0.266       7.812

           -------------------------------------------------
          | TOTAL ENERGY              -42.162249918140 Eh   |
          | GRADIENT NORM               0.003321347231 Eh/α |
          | HOMO-LUMO GAP               1.694144897828 eV   |
           -------------------------------------------------

 * finished run on 2024/06/05 at 20:00:15.655
