   * xtb version 6.6.1 (8d0f1dd) compiled by 'conda@1efc2f54142f' on 2023-08-01
          program call               : xtb xtbopt.xyz --opt crude --input .xc2 --gfn2

   ID    Z sym.   atoms
    1    6 C      1, 3, 5-7, 10, 11, 14
    2    7 N      2, 4, 9, 13
    3    8 O      8, 12
    4    1 H      15-25
########################################################################
[WARNING] Please study the warnings concerning your input carefully
-1- readin_getIntValue: could not parse ''
########################################################################

          :  Hamiltonian                  GFN2-xTB          :
 * total energy  :   -42.1622500 Eh     change        0.6394885E-13 Eh
 * total energy  :   -42.1622974 Eh     change       -0.4742415E-04 Eh
   *** GEOMETRY OPTIMIZATION CONVERGED AFTER 2 ITERATIONS ***

 final structure:
================
25
 xtb: 6.6.1 (8d0f1dd)
C            2.95368809940579        1.37452687675703        0.11182659442470
N            2.09496707805086        0.21360308852153        0.14175212231830
C            2.47031097734123       -1.04993868607043       -0.05803276629884
N            1.37773167744454       -1.84325189350245       -0.14863482785983
C            0.27619294017496       -1.05587735038842       -0.01849840330217
C            0.71749576585775        0.25799796230029        0.16283269589745
C           -0.17774923208758        1.32666315818777        0.33968410099739
O            3.24150450279021        1.60350978737238       -1.23464946044535
N           -1.45653501689991        0.95765376931877        0.29886826196370
C           -2.47847806164866        1.97569600026536        0.46624084790953
C           -1.97297634924621       -0.33348471558485        0.10753485941763
O           -3.15045365862700       -0.55707889422320        0.08155602557405
N           -1.02880324203295       -1.36802180684169       -0.04782199806729
C           -1.49852721814532       -2.72414736686701       -0.25462560456832
H            2.39280458985059        2.20254013903892        0.56729652588613
H            3.86285773579198        1.16053177027352        0.69444162825247
H            3.76029312116973        2.40908273580585       -1.34078934084567
H            3.48307963430761       -1.38830001241774       -0.14502722865656
H           -1.98875295293424        2.93826935701314        0.57840601830549
H           -3.13904944526860        1.98337408807414       -0.40087740564956
H           -3.08267775241404        1.75263614244587        1.34598004659341
H           -1.10097425609827       -3.38540709328238        0.51511087979986
H           -1.20835916230894       -3.08072621975515       -1.24349666686857
H           -2.58571165285064       -2.70912369574903       -0.18787397332327
H            1.39855339264647       -2.84248859921414       -0.30003131376501

          :  Hamiltonian                  GFN2-xTB          :
         :: total energy             -42.162297394784 Eh    ::
         :: gradient norm              0.001633037366 Eh/a0 ::
         :: HOMO-LUMO gap              1.694188956730 eV    ::
         :: SCC energy               -42.669379411851 Eh    ::
         :: -> dispersion             -0.022211749979 Eh    ::
         :: repulsion energy           0.506986759215 Eh    ::

    * Orbital Energies and Occupations

         #    Occupation            Energy/Eh            Energy/eV
      -------------------------------------------------------------
         1        2.0000           -0.9015568             -24.5326
       ...           ...                  ...                  ...
        25        2.0000           -0.6669926             -18.1498
        26        2.0000           -0.6494355             -17.6720
        27        2.0000           -0.6451784             -17.5562
        28        1.9999           -0.6397400             -17.4082
        29        1.9999           -0.6309042             -17.1678
        30        1.9998           -0.6216572             -16.9162
        31        1.9998           -0.6204737             -16.8839
        32        1.9992           -0.5976784             -16.2637
        33        1.9977           -0.5798269             -15.7779
        34        1.9976           -0.5793798             -15.7657
        35        1.9952           -0.5684851             -15.4693
        36        1.9851           -0.5503331             -14.9753
        37        1.7539           -0.5039416             -13.7129 (HOMO)
        38        0.2452           -0.4416813             -12.0188 (LUMO)
        39        0.0235           -0.4026453             -10.9565
        40        0.0031           -0.3706574             -10.0861
        41        0.0000           -0.2817381              -7.6665
        42                         -0.1945671              -5.2944
        43                         -0.1909321              -5.1955
        44                         -0.1360445              -3.7020
        45                         -0.1114923              -3.0339
        46                         -0.0758054              -2.0628
        47                         -0.0675150              -1.8372
        48                         -0.0431153              -1.1732
       ...                                ...                  ...
        67                          0.5396098              14.6835
      -------------------------------------------------------------
                  HL-Gap            0.0622603 Eh            1.6942 eV

     #   Z          covCN         q      C6AA      α(0)
     1   6 C        3.615     0.122    19.046     6.298
     2   7 N        2.833     0.048    20.409     6.710
     3   6 C        3.044     0.062    26.560     8.453
     4   7 N        2.783    -0.057    22.335     7.019
     5   6 C        3.051     0.114    25.449     8.273
     6   6 C        3.112     0.028    27.214     8.546
     7   6 C        1.925    -0.115    34.312     9.460
     8   8 O        1.658    -0.415    21.150     6.208
     9   7 N        2.759     0.014    21.015     6.809
    10   6 C        3.718    -0.071    21.980     6.697
    11   6 C        2.732     0.309    21.758     7.637
    12   8 O        0.859    -0.361    20.908     6.131
    13   7 N        2.738    -0.047    22.142     6.989
    14   6 C        3.697    -0.070    22.019     6.712
    15   1 H        0.923     0.093     1.852     2.128
    16   1 H        0.923     0.072     2.069     2.249
    17   1 H        0.805     0.331     0.633     1.250
    18   1 H        0.926     0.124     1.581     1.966
    19   1 H        0.925     0.105     1.743     2.065
    20   1 H        0.925     0.101     1.772     2.082
    21   1 H        0.924     0.100     1.788     2.091
    22   1 H        0.925     0.080     1.978     2.200
    23   1 H        0.924     0.083     1.950     2.184
    24   1 H        0.925     0.124     1.578     1.964
    25   1 H        0.860     0.227     0.980     1.551

Wiberg/Mayer (AO) data.
largest (>0.10) Wiberg bond orders for each atom

     #   Z sym  total        # sym  WBO       # sym  WBO       # sym  WBO
 ---------------------------------------------------------------------------
     1   6 C    3.925 --     8 O    1.015     2 N    0.967    16 H    0.955
                            15 H    0.955
     2   7 N    3.622 --     3 C    1.366     6 C    1.128     1 C    0.967
     3   6 C    3.787 --     2 N    1.366     4 N    1.273    18 H    0.953
     4   7 N    3.586 --     3 C    1.273     5 C    1.196    25 H    0.918
     5   6 C    3.908 --     6 C    1.290    13 N    1.228     4 N    1.196
     6   6 C    3.893 --     5 C    1.290     7 C    1.234     2 N    1.128
     7   6 C    2.801 --     9 N    1.375     6 C    1.234
     8   8 O    1.961 --     1 C    1.015    17 H    0.872
     9   7 N    3.627 --     7 C    1.375    11 C    1.068    10 C    0.978
                            12 O    0.115
    10   6 C    3.923 --     9 N    0.978    19 H    0.975    20 H    0.961
                            21 H    0.961
    11   6 C    3.936 --    12 O    1.714     9 N    1.068    13 N    1.052
    12   8 O    2.050 --    11 C    1.714    13 N    0.133     9 N    0.115
    13   7 N    3.562 --     5 C    1.228    11 C    1.052    14 C    0.974
                            12 O    0.133
    14   6 C    3.926 --    13 N    0.974    22 H    0.971    23 H    0.970
                            24 H    0.965
    15   1 H    0.990 --     1 C    0.955
    16   1 H    0.992 --     1 C    0.955
    17   1 H    0.889 --     8 O    0.872
    18   1 H    0.984 --     3 C    0.953
    19   1 H    0.988 --    10 C    0.975
    20   1 H    0.985 --    10 C    0.961
    21   1 H    0.985 --    10 C    0.961
    22   1 H    0.992 --    14 C    0.971
    23   1 H    0.991 --    14 C    0.970
    24   1 H    0.984 --    14 C    0.965
    25   1 H    0.947 --     4 N    0.918
 ---------------------------------------------------------------------------

molecular dipole:
                 x           y           z       tot (Debye)
 q only:        2.357      -0.756       0.259
   full:        2.739      -1.338       0.264       7.777

           -------------------------------------------------
          | TOTAL ENERGY              -42.162297394784 Eh   |
          | GRADIENT NORM               0.001633037366 Eh/α |
          | HOMO-LUMO GAP               1.694188956730 eV   |
           -------------------------------------------------

 * finished run on 2024/06/05 at 20:00:15.820
