   * xtb version 6.6.1 (8d0f1dd) compiled by 'conda@1efc2f54142f' on 2023-08-01
          program call               : xtb struc.xyz --opt loose --input .xc1 --gfn2

   ID    Z sym.   atoms
    1    6 C      1, 3, 5-7, 10, 11, 14
    2    7 N      2, 4, 9, 13
    3    8 O      8, 12
    4    1 H      15-25
constraining bond 5 25 to    2.7133300 Å, actual value:    2.1289605 Å

          :  Hamiltonian                  GFN2-xTB          :
 * total energy  :   -42.8550206 Eh     change       -0.6633627E-10 Eh
 * total energy  :   -45.0193715 Eh     change       -0.2164351E+01 Eh
 * total energy  :   -48.3238128 Eh     change       -0.3304441E+01 Eh
 * total energy  :   -34.4415535 Eh     change        0.1388226E+02 Eh
 * total energy  :   -49.5175586 Eh     change       -0.1507601E+02 Eh
 * total energy  :   -49.5022959 Eh     change        0.1526276E-01 Eh
 * total energy  :   -49.6087219 Eh     change       -0.1064261E+00 Eh
 * total energy  :   -49.6435265 Eh     change       -0.3480459E-01 Eh
 * total energy  :   -49.6711357 Eh     change       -0.2760917E-01 Eh
 * total energy  :   -49.6862061 Eh     change       -0.1507035E-01 Eh
 * total energy  :   -49.8723994 Eh     change       -0.5750584E-03 Eh
 * total energy  :   -49.8728545 Eh     change       -0.4551161E-03 Eh
 * total energy  :   -49.8732606 Eh     change       -0.4060532E-03 Eh
 * total energy  :   -49.8734615 Eh     change       -0.2009572E-03 Eh
 * total energy  :   -49.8736544 Eh     change       -0.1928969E-03 Eh
 * total energy  :   -49.8737729 Eh     change       -0.1184168E-03 Eh
 * total energy  :   -49.8738551 Eh     change       -0.8220818E-04 Eh
 * total energy  :   -49.8739101 Eh     change       -0.5507115E-04 Eh
 * total energy  :   -49.8739304 Eh     change       -0.2021912E-04 Eh
   *** GEOMETRY OPTIMIZATION CONVERGED AFTER 58 ITERATIONS ***

 final structure:
================
25
 xtb: 6.6.1 (8d0f1dd)
C            3.14007471840906        1.05990404482652        0.31715866434914
N            2.20125788242693        0.02578295192335        0.00739552910227
C            2.45184908851358       -1.36008161472249        0.13869047475090
N            1.46593612036758       -2.08645054903868       -0.15688621007559
C            0.40548774135883       -1.22208318795824       -0.72468136244366
C            0.96578342671895        0.15512300886766       -0.41060985953806
C            0.10838523039540        1.35270767610883       -0.39022222199387
O            0.53125093758117        2.48043903156768       -0.46373553746319
N           -1.20669201168983        1.01357517076976       -0.19971686814420
C           -2.16653092055890        2.09671360147093       -0.07076919094740
C           -1.72872483794152       -0.26744509865382        0.11768968362006
O           -2.86403321514319       -0.37977613747073        0.48289976126092
N           -0.87870312118322       -1.33931601222744        0.02004282263019
C           -1.38711982101733       -2.67632689726155        0.21242932406544
H            3.51620010663462        0.92603609890229        1.33282452899895
H            3.98791397244647        1.00053068548383       -0.36847718957083
H            2.66364373511240        2.03489900101457        0.21275374621325
H            3.40059854667424       -1.72638383828854        0.48714510777488
H           -1.67445687569402        3.03118738246182       -0.33146110497297
H           -3.00917513965071        1.90610281194678       -0.73701823674039
H           -2.54972754705476        2.14212969414639        0.95006448571788
H           -0.61167953459687       -3.28153754391259        0.68152624811213
H           -1.67860560036461       -3.13352650565110       -0.73618687158425
H           -2.26517411682011       -2.61170875952426        0.85420748293787
H            0.34267274917574       -1.32225647318168       -1.19389158815918

          :  Hamiltonian                  GFN2-xTB          :
         :: total energy             -49.873930361087 Eh    ::
         :: gradient norm              0.003538600739 Eh/a0 ::
         :: HOMO-LUMO gap              1.160207491845 eV    ::
         :: SCC energy               -42.677261496135 Eh    ::
         :: -> dispersion             -0.022586951556 Eh    ::
         :: repulsion energy           1.678072184147 Eh    ::

    * Orbital Energies and Occupations

         #    Occupation            Energy/Eh            Energy/eV
      -------------------------------------------------------------
         1        2.0000           -0.9304719             -25.3194
       ...           ...                  ...                  ...
        25        2.0000           -0.6753083             -18.3761
        26        2.0000           -0.6676706             -18.1682
        27        2.0000           -0.6659165             -18.1205
        28        2.0000           -0.6544972             -17.8098
        29        2.0000           -0.6454275             -17.5630
        30        2.0000           -0.6396118             -17.4047
        31        1.9999           -0.6222773             -16.9330
        32        1.9998           -0.6152514             -16.7418
        33        1.9992           -0.6052692             -16.4702
        34        1.9970           -0.5948288             -16.1861
        35        1.9884           -0.5840310             -15.8923
        36        1.9816           -0.5803328             -15.7917
        37        1.8891           -0.5657268             -15.3942 (HOMO)
        38        0.1449           -0.5230900             -14.2340 (LUMO)
        39        0.0000           -0.4350325             -11.8378
        40                         -0.3981725             -10.8348
        41                         -0.3431877              -9.3386
        42                         -0.2210762              -6.0158
        43                         -0.2044848              -5.5643
        44                         -0.1947748              -5.3001
        45                         -0.1759422              -4.7876
        46                         -0.1260636              -3.4304
        47                         -0.0962527              -2.6192
        48                         -0.0629394              -1.7127
       ...                                ...                  ...
        67                          6.6871458             181.9665
      -------------------------------------------------------------
                  HL-Gap            0.0426368 Eh            1.1602 eV

     #   Z          covCN         q      C6AA      α(0)
     1   6 C        3.691    -0.091    22.436     6.778
     2   7 N        2.776     0.078    19.885     6.623
     3   6 C        3.013     0.113    25.494     8.283
     4   7 N        1.867    -0.187    25.866     7.539
     5   6 C        3.863     0.069    19.386     6.261
     6   6 C        3.067     0.044    26.944     8.512
     7   6 C        2.763     0.272    22.395     7.750
     8   8 O        0.858    -0.346    20.623     6.089
     9   7 N        2.745    -0.079    22.782     7.089
    10   6 C        3.709    -0.063    21.852     6.681
    11   6 C        2.707     0.318    21.602     7.608
    12   8 O        0.860    -0.344    20.593     6.084
    13   7 N        2.736    -0.097    23.140     7.145
    14   6 C        3.696    -0.068    21.989     6.708
    15   1 H        0.924     0.122     1.595     1.975
    16   1 H        0.924     0.129     1.545     1.944
    17   1 H        0.925     0.136     1.488     1.908
    18   1 H        0.926     0.133     1.514     1.924
    19   1 H        0.925     0.114     1.661     2.016
    20   1 H        0.924     0.114     1.659     2.014
    21   1 H        0.924     0.110     1.700     2.039
    22   1 H        0.925     0.105     1.740     2.063
    23   1 H        0.924     0.098     1.800     2.098
    24   1 H        0.925     0.126     1.564     1.956
    25   1 H        0.941     0.193     1.133     1.664

Wiberg/Mayer (AO) data.
largest (>0.10) Wiberg bond orders for each atom

     #   Z sym  total        # sym  WBO       # sym  WBO       # sym  WBO
 ---------------------------------------------------------------------------
     1   6 C    3.911 --     2 N    0.997    17 H    0.959    15 H    0.946
                            16 H    0.936
     2   7 N    3.699 --     6 C    1.487     3 C    1.051     1 C    0.997
     3   6 C    3.925 --     4 N    1.830     2 N    1.051    18 H    0.944
     4   7 N    3.037 --     3 C    1.830     5 C    0.992
     5   6 C    3.949 --     6 C    1.010     4 N    0.992    13 N    0.924
                            25 H    0.891
     6   6 C    3.843 --     2 N    1.487     5 C    1.010     7 C    1.009
     7   6 C    3.961 --     8 O    1.691     9 N    1.167     6 C    1.009
     8   8 O    2.060 --     7 C    1.691     9 N    0.189
     9   7 N    3.556 --     7 C    1.167    11 C    1.021    10 C    0.977
                             8 O    0.189    12 O    0.102
    10   6 C    3.906 --     9 N    0.977    19 H    0.969    21 H    0.953
                            20 H    0.948
    11   6 C    3.960 --    12 O    1.705    13 N    1.153     9 N    1.021
    12   8 O    2.062 --    11 C    1.705    13 N    0.160     9 N    0.102
    13   7 N    3.363 --    11 C    1.153    14 C    0.987     5 C    0.924
                            12 O    0.160
    14   6 C    3.903 --    13 N    0.987    22 H    0.963    24 H    0.954
                            23 H    0.950
    15   1 H    0.981 --     1 C    0.946
    16   1 H    0.977 --     1 C    0.936
    17   1 H    0.981 --     1 C    0.959
    18   1 H    0.981 --     3 C    0.944
    19   1 H    0.986 --    10 C    0.969
    20   1 H    0.974 --    10 C    0.948
    21   1 H    0.979 --    10 C    0.953
    22   1 H    0.979 --    14 C    0.963
    23   1 H    0.968 --    14 C    0.950
    24   1 H    0.981 --    14 C    0.954
    25   1 H    0.956 --     5 C    0.891
 ---------------------------------------------------------------------------

molecular dipole:
                 x           y           z       tot (Debye)
 q only:        2.167      -0.807      -0.104
   full:        2.490      -0.667      -0.260       6.585

           -------------------------------------------------
          | TOTAL ENERGY              -49.873930361087 Eh   |
          | GRADIENT NORM               0.003538600739 Eh/α |
          | HOMO-LUMO GAP               1.160207491845 eV   |
           -------------------------------------------------

 * finished run on 2024/06/05 at 19:58:12.132
