   * xtb version 6.6.1 (8d0f1dd) compiled by 'conda@1efc2f54142f' on 2023-08-01
          program call               : xtb xtbopt.xyz --opt crude --input .xc2 --gfn2

   ID    Z sym.   atoms
    1    6 C      1, 3, 5-7, 10, 11, 14
    2    7 N      2, 4, 9, 13
    3    8 O      8, 12
    4    1 H      15-25
########################################################################
[WARNING] Please study the warnings concerning your input carefully
-1- readin_getIntValue: could not parse ''
########################################################################

          :  Hamiltonian                  GFN2-xTB          :
 * total energy  :   -40.9990277 Eh     change       -0.4263256E-13 Eh
 * total energy  :   -42.1527911 Eh     change       -0.1153763E+01 Eh
 * total energy  :   -42.1607086 Eh     change       -0.7917494E-02 Eh
 * total energy  :   -42.1632731 Eh     change       -0.2564461E-02 Eh
 * total energy  :   -42.1640850 Eh     change       -0.8119122E-03 Eh
 * total energy  :   -42.1648594 Eh     change       -0.7744237E-03 Eh
 * total energy  :   -42.1653696 Eh     change       -0.5101943E-03 Eh
 * total energy  :   -42.1656689 Eh     change       -0.2992991E-03 Eh
 * total energy  :   -42.1658126 Eh     change       -0.1437176E-03 Eh
   *** GEOMETRY OPTIMIZATION CONVERGED AFTER 9 ITERATIONS ***

 final structure:
================
25
 xtb: 6.6.1 (8d0f1dd)
C            3.17021871991283        1.06944958181133        0.30800596782785
N            2.21788299637159        0.03700091579919        0.04001889347148
C            2.46763545038142       -1.34915461325984        0.16895390409193
N            1.46616918483826       -2.07290781189234       -0.09251945632330
C            0.41237429071672       -1.19755378771303       -0.53555981799199
C            0.97139953538758        0.16536855421414       -0.34446908256156
C            0.10867452492787        1.35737596582963       -0.33812997339274
O            0.52610229650596        2.48722053121238       -0.42843900589886
N           -1.20675018577211        1.01532644485923       -0.15554368264066
C           -2.17689758950735        2.09292432455264       -0.07487966812511
C           -1.73468588721904       -0.26873524910429        0.14154432677800
O           -2.88369178479976       -0.38130536296774        0.46168462236840
N           -0.87682594369923       -1.33944105244463        0.07482802955406
C           -1.40680244414725       -2.67790749776427        0.21790978983977
H            3.58497162665416        0.93931762743362        1.30890835620267
H            3.99165787350158        1.00695116320465       -0.40978162401537
H            2.69095629399775        2.04504602201454        0.21979183205124
H            3.42804105552880       -1.72141786992575        0.47918310400105
H           -1.69317371848371        3.01911155565913       -0.37447087881519
H           -3.01601300809915        1.86451663517970       -0.73219087122418
H           -2.56327052188141        2.18097978321710        0.94122173477415
H           -0.65804060716819       -3.30109124876286        0.70328995318877
H           -1.66033528546488       -3.11041885526408       -0.75285235515988
H           -2.30902452399931       -2.61890805792390        0.82340287639560
H            0.30985916561678       -1.42350915636526       -1.61873535649581

          :  Hamiltonian                  GFN2-xTB          :
         :: total energy             -42.165812621840 Eh    ::
         :: gradient norm              0.006373939695 Eh/a0 ::
         :: HOMO-LUMO gap              1.223930355069 eV    ::
         :: SCC energy               -42.672156281722 Eh    ::
         :: -> dispersion             -0.022521127031 Eh    ::
         :: repulsion energy           0.506182023524 Eh    ::

    * Orbital Energies and Occupations

         #    Occupation            Energy/Eh            Energy/eV
      -------------------------------------------------------------
         1        2.0000           -0.9234439             -25.1282
       ...           ...                  ...                  ...
        25        2.0000           -0.6726173             -18.3028
        26        2.0000           -0.6659036             -18.1202
        27        2.0000           -0.6639195             -18.0662
        28        2.0000           -0.6512367             -17.7211
        29        2.0000           -0.6433180             -17.5056
        30        2.0000           -0.6376714             -17.3519
        31        1.9999           -0.6203897             -16.8817
        32        1.9998           -0.6136644             -16.6987
        33        1.9993           -0.6042094             -16.4414
        34        1.9972           -0.5929902             -16.1361
        35        1.9881           -0.5814494             -15.8220
        36        1.9814           -0.5778699             -15.7246
        37        1.9055           -0.5646878             -15.3659 (HOMO)
        38        0.1287           -0.5197092             -14.1420 (LUMO)
        39        0.0000           -0.4327368             -11.7754
        40                         -0.3936199             -10.7109
        41                         -0.3408416              -9.2748
        42                         -0.2072562              -5.6397
        43                         -0.1832235              -4.9858
        44                         -0.1653017              -4.4981
        45                         -0.1553618              -4.2276
        46                         -0.0918355              -2.4990
        47                         -0.0752400              -2.0474
        48                         -0.0631933              -1.7196
       ...                                ...                  ...
        67                          0.5302427              14.4286
      -------------------------------------------------------------
                  HL-Gap            0.0449786 Eh            1.2239 eV

     #   Z          covCN         q      C6AA      α(0)
     1   6 C        3.691    -0.091    22.427     6.777
     2   7 N        2.792     0.081    19.842     6.616
     3   6 C        3.071     0.109    25.519     8.283
     4   7 N        1.866    -0.175    25.592     7.499
     5   6 C        3.942     0.110    18.714     6.147
     6   6 C        3.069     0.045    26.932     8.509
     7   6 C        2.763     0.272    22.398     7.750
     8   8 O        0.858    -0.348    20.676     6.096
     9   7 N        2.745    -0.080    22.795     7.091
    10   6 C        3.709    -0.062    21.843     6.680
    11   6 C        2.713     0.316    21.625     7.612
    12   8 O        0.860    -0.346    20.622     6.089
    13   7 N        2.736    -0.084    22.885     7.105
    14   6 C        3.699    -0.070    22.010     6.710
    15   1 H        0.924     0.122     1.599     1.978
    16   1 H        0.924     0.127     1.560     1.953
    17   1 H        0.924     0.136     1.492     1.910
    18   1 H        0.926     0.132     1.517     1.926
    19   1 H        0.925     0.113     1.667     2.019
    20   1 H        0.925     0.113     1.669     2.021
    21   1 H        0.924     0.109     1.705     2.042
    22   1 H        0.925     0.104     1.749     2.068
    23   1 H        0.924     0.093     1.851     2.128
    24   1 H        0.925     0.125     1.577     1.964
    25   1 H        0.921     0.149     1.399     1.850

Wiberg/Mayer (AO) data.
largest (>0.10) Wiberg bond orders for each atom

     #   Z sym  total        # sym  WBO       # sym  WBO       # sym  WBO
 ---------------------------------------------------------------------------
     1   6 C    3.912 --     2 N    0.998    17 H    0.960    15 H    0.947
                            16 H    0.937
     2   7 N    3.702 --     6 C    1.482     3 C    1.057     1 C    0.998
     3   6 C    3.928 --     4 N    1.816     2 N    1.057    18 H    0.946
     4   7 N    3.048 --     3 C    1.816     5 C    1.017
     5   6 C    3.980 --     6 C    1.023     4 N    1.017    13 N    0.982
                            25 H    0.844
     6   6 C    3.859 --     2 N    1.482     5 C    1.023     7 C    1.011
     7   6 C    3.962 --     8 O    1.688     9 N    1.170     6 C    1.011
     8   8 O    2.057 --     7 C    1.688     9 N    0.190
     9   7 N    3.560 --     7 C    1.170    11 C    1.023    10 C    0.977
                             8 O    0.190    12 O    0.104
    10   6 C    3.908 --     9 N    0.977    19 H    0.970    21 H    0.952
                            20 H    0.950
    11   6 C    3.960 --    12 O    1.709    13 N    1.146     9 N    1.023
    12   8 O    2.060 --    11 C    1.709    13 N    0.159     9 N    0.104
    13   7 N    3.394 --    11 C    1.146     5 C    0.982    14 C    0.980
                            12 O    0.159
    14   6 C    3.906 --    13 N    0.980    22 H    0.965    24 H    0.960
                            23 H    0.954
    15   1 H    0.982 --     1 C    0.947
    16   1 H    0.979 --     1 C    0.937
    17   1 H    0.981 --     1 C    0.960
    18   1 H    0.981 --     3 C    0.946
    19   1 H    0.986 --    10 C    0.970
    20   1 H    0.976 --    10 C    0.950
    21   1 H    0.977 --    10 C    0.952
    22   1 H    0.980 --    14 C    0.965
    23   1 H    0.973 --    14 C    0.954
    24   1 H    0.981 --    14 C    0.960
    25   1 H    0.958 --     5 C    0.844
 ---------------------------------------------------------------------------

molecular dipole:
                 x           y           z       tot (Debye)
 q only:        2.224      -0.855      -0.159
   full:        2.550      -0.720      -0.355       6.795

           -------------------------------------------------
          | TOTAL ENERGY              -42.165812621840 Eh   |
          | GRADIENT NORM               0.006373939695 Eh/α |
          | HOMO-LUMO GAP               1.223930355069 eV   |
           -------------------------------------------------

 * finished run on 2024/06/05 at 19:58:12.518
