   * xtb version 6.6.1 (8d0f1dd) compiled by 'conda@1efc2f54142f' on 2023-08-01
          program call               : xtb struc.xyz --opt loose --input .xc1 --gfn2

   ID    Z sym.   atoms
    1    7 N      1, 17
    2    6 C      2-6, 8, 9, 11-16, 18-23, 25, 26, 28-33
    3    8 O      7, 10, 24, 27
    4    1 H      34-72
constraining bond 10 39 to    3.9000000 Å, actual value:    1.9971796 Å

          :  Hamiltonian                  GFN2-xTB          :
 * total energy  :   -98.7576388 Eh     change       -0.4035485E-08 Eh
 * total energy  :   -98.9701532 Eh     change       -0.2125144E+00 Eh
 * total energy  :   -99.0988046 Eh     change       -0.1286514E+00 Eh
 * total energy  :   -99.1592789 Eh     change       -0.6047439E-01 Eh
 * total energy  :   -99.1858669 Eh     change       -0.2658797E-01 Eh
 * total energy  :   -99.1966956 Eh     change       -0.1082872E-01 Eh
 * total energy  :   -99.2021404 Eh     change       -0.5444770E-02 Eh
 * total energy  :   -99.2083542 Eh     change       -0.6213764E-02 Eh
 * total energy  :   -99.2191404 Eh     change       -0.1078626E-01 Eh
 * total energy  :   -99.2302543 Eh     change       -0.1111384E-01 Eh
 * total energy  :   -99.2691738 Eh     change       -0.1154624E-03 Eh
 * total energy  :   -99.2692551 Eh     change       -0.8129763E-04 Eh
 * total energy  :   -99.2693364 Eh     change       -0.8123617E-04 Eh
 * total energy  :   -99.2694222 Eh     change       -0.8582101E-04 Eh
 * total energy  :   -99.2694836 Eh     change       -0.6135323E-04 Eh
 * total energy  :   -99.2695420 Eh     change       -0.5848889E-04 Eh
 * total energy  :   -99.2696113 Eh     change       -0.6921237E-04 Eh
 * total energy  :   -99.2696629 Eh     change       -0.5160417E-04 Eh
 * total energy  :   -99.2696917 Eh     change       -0.2882459E-04 Eh
   *** GEOMETRY OPTIMIZATION CONVERGED AFTER 45 ITERATIONS ***

 final structure:
================
72
 xtb: 6.6.1 (8d0f1dd)
N           -1.94295599458380        2.86904157725771        2.26819371882906
C           -1.87253039752964        2.13977528909314        1.25673857849640
C           -2.99866686203613        1.92406936904157        0.28154867923384
C           -3.43436217003829        0.46912797041294        0.31240431559304
C           -4.30297958612184       -0.01597424188346       -0.66765495324650
C           -4.75867924826398       -1.32436287639554       -0.64870722043753
O           -5.60346081078256       -1.87178173111985       -1.54167601687390
C           -6.17638813880113       -1.05975728931714       -2.54230903551550
C           -4.32186368492577       -2.19501638400288        0.38747981184378
O           -4.81215667934428       -3.45437960676264        0.31877845557708
C           -4.60461137229446       -4.39848032597594        1.19802234547181
C           -3.45840045607179       -1.70610161816939        1.36544462807621
C           -3.02521231258737       -0.39292138969943        1.32454449253033
C           -2.42195367634883        2.28962863795213       -1.11161897171036
C           -1.45420297550336        1.24826113028031       -1.70284685056078
C           -0.13303112504954        1.21451687156201       -1.03640705318432
N            0.52424598196105        0.11502589736671       -0.68178695438865
C            1.90496699668242        0.18631610206806       -0.26552422501378
C            2.86288238950386       -0.24070898108168       -1.39461322128129
C            4.28872763047547       -0.07545990629791       -0.94891810088371
C            4.95543845849329        1.12262870553101       -1.14653002358776
C            6.26343215981803        1.28633883907209       -0.71763029195808
C            6.93066702282368        0.25322665875291       -0.07525335959242
O            8.19670688307175        0.29826971246731        0.37823674214942
C            8.95450416409390        1.47078272577987        0.18662431203676
C            6.25224124656572       -0.97887492657154        0.13797878934308
O            6.97332850721936       -1.92839495456965        0.76634387143400
C            6.39858300714945       -3.19263676320247        0.99537210067178
C            4.94443932324611       -1.11851417682873       -0.29903094938000
C           -0.06491399141775       -1.19783704282571       -0.79091232639089
C           -4.25248175245308        2.80159850962559        0.57964232744458
C           -4.88146946700126        2.44083119750503        1.92343789226788
C           -3.96304036493567        4.29923656796158        0.53179686581592
H           -4.64089814577026        0.64487537979099       -1.44830735389405
H           -6.73714768621048       -0.22728510299120       -2.10826341698378
H           -6.85918563648589       -1.70874686650691       -3.08687087825658
H           -5.41774458299678       -0.67537092806734       -3.23093803235550
H           -4.04189302800093       -4.25901041952388        2.10417178636853
H           -5.76700057636259       -5.19851663338452        3.65359472381793
H           -5.10069144178230       -5.32711187344312        0.98846738376877
H           -3.12974044781501       -2.34348347580732        2.17002152148137
H           -2.38165059937893       -0.03369067958313        2.11214332137374
H           -3.24801965092135        2.41777473911122       -1.81044476007235
H           -1.90693825839900        3.24778453935460       -1.03348179323883
H           -1.92669565417463        0.26773435440448       -1.70849971011937
H           -1.28283002399641        1.54153265037171       -2.74707911109610
H           -0.95245003383387        1.61351469212716        0.93913291358383
H            0.40617941927974        2.14627006218938       -0.95243712565212
H            2.05301290908035       -0.46261518222215        0.60198521833800
H            2.14129938168645        1.21046913965751        0.02967864049341
H            2.67241540613522        0.38307323445938       -2.26959241756506
H            2.67179188664223       -1.28042468159828       -1.66274219506975
H            4.46191303503792        1.93884318193517       -1.65188823361491
H            6.75886892077730        2.22677554170108       -0.89426065084993
H            8.50518231432531        2.32665392611822        0.69937394668260
H            9.07255009805537        1.70157641644395       -0.87631333242288
H            9.93012512102738        1.26183531368382        0.62105335263602
H            7.17109874622869       -3.77976829770313        1.48804919629849
H            5.52469755977011       -3.12351668484332        1.65124978249494
H            6.11608894899994       -3.68114078387569        0.05762182217210
H            4.42436423944666       -2.05195158349089       -0.15034082407435
H           -0.18971915654284       -1.49145548373292       -1.83572714297084
H           -1.04050512509152       -1.21953232888139       -0.29991583724130
H            0.58249376037643       -1.92201815710453       -0.30302263369245
H           -4.98256287080430        2.57249261316719       -0.20528573755946
H           -4.19737208730127        2.68002993711796        2.73091795426092
H           -5.13106035180939        1.38358034633558        1.97224101426522
H           -5.79449977795180        3.01342958633288        2.06252121447504
H           -3.20534272384792        4.56056110616765        1.26383408971566
H           -3.63741215403591        4.61968384395495       -0.45417925913873
H           -4.87158955854194        4.84388235908424        0.77459944510189
H           -1.10941928283527        2.96993217471551        2.83902958833604

          :  Hamiltonian                  GFN2-xTB          :
         :: total energy             -99.269691687370 Eh    ::
         :: gradient norm              0.001029350607 Eh/a0 ::
         :: HOMO-LUMO gap              0.585785528891 eV    ::
         :: SCC energy              -100.644315010322 Eh    ::
         :: -> dispersion             -0.075071964997 Eh    ::
         :: repulsion energy           1.373338160899 Eh    ::

    * Orbital Energies and Occupations

         #    Occupation            Energy/Eh            Energy/eV
      -------------------------------------------------------------
         1        2.0000           -0.8485469             -23.0901
       ...           ...                  ...                  ...
        78        1.9985           -0.5316892             -14.4680
        79        1.9984           -0.5302858             -14.4298
        80        1.9983           -0.5291909             -14.4000
        81        1.9976           -0.5236224             -14.2485
        82        1.9971           -0.5205693             -14.1654
        83        1.9960           -0.5157761             -14.0350
        84        1.9956           -0.5143477             -13.9961
        85        1.9932           -0.5072050             -13.8018
        86        1.9786           -0.4890188             -13.3069
        87        1.9779           -0.4884349             -13.2910
        88        1.9442           -0.4735286             -12.8854
        89        1.8443           -0.4564437             -12.4205
        90        1.2424           -0.4251411             -11.5687 (HOMO)
        91        0.5926           -0.4036139             -10.9829 (LUMO)
        92        0.4188           -0.3962726             -10.7831
        93        0.0165           -0.3415031              -9.2928
        94        0.0070           -0.3278140              -8.9203
        95        0.0049           -0.3222132              -8.7679
        96        0.0028           -0.3130025              -8.5172
        97        0.0024           -0.3105904              -8.4516
        98        0.0000           -0.2037902              -5.5454
        99        0.0000           -0.1880938              -5.1183
       100                         -0.1378475              -3.7510
       101                         -0.0759643              -2.0671
       ...                                ...                  ...
       171                          0.5760710              15.6757
      -------------------------------------------------------------
                  HL-Gap            0.0215272 Eh            0.5858 eV

     #   Z          covCN         q      C6AA      α(0)
     1   7 N        1.774    -0.269    27.814     7.810
     2   6 C        2.827     0.100    25.783     8.320
     3   6 C        3.907     0.006    20.416     6.422
     4   6 C        2.974     0.008    27.826     8.653
     5   6 C        2.919    -0.080    29.998     8.982
     6   6 C        2.860     0.136    25.031     8.201
     7   8 O        1.706    -0.232    17.838     5.702
     8   6 C        3.644     0.025    20.487     6.506
     9   6 C        2.868     0.102    25.748     8.318
    10   8 O        1.710    -0.101    15.854     5.376
    11   6 C        2.733     0.036    27.168     8.534
    12   6 C        2.911    -0.062    29.546     8.913
    13   6 C        2.920    -0.051    29.275     8.873
    14   6 C        3.812    -0.065    21.740     6.637
    15   6 C        3.802    -0.069    21.817     6.650
    16   6 C        2.843     0.004    27.929     8.661
    17   7 N        2.729     0.009    21.098     6.822
    18   6 C        3.755    -0.016    20.922     6.522
    19   6 C        3.808    -0.071    21.843     6.653
    20   6 C        2.969    -0.000    28.037     8.685
    21   6 C        2.922    -0.049    29.210     8.863
    22   6 C        2.914    -0.067    29.679     8.933
    23   6 C        2.865     0.134    25.077     8.208
    24   8 O        1.706    -0.221    17.675     5.676
    25   6 C        3.645     0.025    20.491     6.506
    26   6 C        2.863     0.133    25.086     8.210
    27   8 O        1.706    -0.224    17.723     5.684
    28   6 C        3.645     0.027    20.453     6.500
    29   6 C        2.919    -0.080    29.991     8.981
    30   6 C        3.700    -0.069    21.992     6.707
    31   6 C        3.853    -0.007    20.670     6.466
    32   6 C        3.756    -0.119    22.838     6.814
    33   6 C        3.755    -0.120    22.847     6.815
    34   1 H        0.926     0.057     2.231     2.336
    35   1 H        0.924     0.057     2.240     2.340
    36   1 H        0.925     0.084     1.940     2.178
    37   1 H        0.924     0.050     2.324     2.384
    38   1 H        0.926     0.077     2.005     2.214
    39   1 H        0.000    -0.144    18.373     7.838
    40   1 H        0.926     0.104     1.747     2.067
    41   1 H        0.926     0.059     2.210     2.325
    42   1 H        0.926     0.047     2.353     2.399
    43   1 H        0.925     0.060     2.197     2.318
    44   1 H        0.924     0.056     2.244     2.342
    45   1 H        0.925     0.063     2.163     2.300
    46   1 H        0.923     0.079     1.986     2.204
    47   1 H        0.922     0.005     2.976     2.698
    48   1 H        0.926     0.069     2.098     2.265
    49   1 H        0.924     0.067     2.119     2.276
    50   1 H        0.924     0.068     2.109     2.271
    51   1 H        0.924     0.055     2.259     2.351
    52   1 H        0.924     0.055     2.254     2.348
    53   1 H        0.926     0.045     2.379     2.412
    54   1 H        0.926     0.059     2.214     2.327
    55   1 H        0.924     0.054     2.265     2.354
    56   1 H        0.924     0.056     2.246     2.344
    57   1 H        0.925     0.083     1.952     2.185
    58   1 H        0.925     0.082     1.957     2.188
    59   1 H        0.924     0.049     2.338     2.391
    60   1 H        0.924     0.052     2.291     2.367
    61   1 H        0.926     0.047     2.361     2.403
    62   1 H        0.924     0.075     2.028     2.227
    63   1 H        0.924     0.076     2.025     2.225
    64   1 H        0.925     0.080     1.979     2.200
    65   1 H        0.924     0.036     2.502     2.474
    66   1 H        0.925     0.070     2.090     2.261
    67   1 H        0.925     0.034     2.537     2.491
    68   1 H        0.925     0.052     2.293     2.368
    69   1 H        0.925     0.062     2.171     2.304
    70   1 H        0.925     0.035     2.513     2.479
    71   1 H        0.925     0.056     2.251     2.346
    72   1 H        0.860     0.157     1.353     1.822

Wiberg/Mayer (AO) data.
largest (>0.10) Wiberg bond orders for each atom

     #   Z sym  total        # sym  WBO       # sym  WBO       # sym  WBO
 ---------------------------------------------------------------------------
     1   7 N    3.037 --     2 C    1.957    72 H    0.942
     2   6 C    3.930 --     1 N    1.957     3 C    0.993    47 H    0.905
     3   6 C    3.977 --     2 C    0.993     4 C    0.976    14 C    0.956
                            31 C    0.940
     4   6 C    3.913 --    13 C    1.391     5 C    1.373     3 C    0.976
     5   6 C    3.961 --     6 C    1.395     4 C    1.373    34 H    0.958
     6   6 C    3.893 --     5 C    1.395     9 C    1.224     7 O    1.110
     7   8 O    2.270 --     6 C    1.110     8 C    0.973
     8   6 C    3.930 --    36 H    0.976    37 H    0.975    35 H    0.975
                             7 O    0.973
     9   6 C    3.891 --    12 C    1.355     6 C    1.224    10 O    1.057
    10   8 O    2.434 --    11 C    1.272     9 C    1.057
    11   6 C    3.368 --    10 O    1.272    40 H    0.963    38 H    0.962
    12   6 C    3.915 --    13 C    1.438     9 C    1.355    41 H    0.961
    13   6 C    3.973 --    12 C    1.438     4 C    1.391    42 H    0.962
    14   6 C    3.971 --    15 C    0.981    44 H    0.972    43 H    0.968
                             3 C    0.956
    15   6 C    3.987 --    16 C    1.059    14 C    0.981    45 H    0.962
                            46 H    0.928
    16   6 C    3.575 --    17 N    1.394    15 C    1.059    48 H    0.958
    17   7 N    3.468 --    16 C    1.394    30 C    0.999    18 C    0.988
    18   6 C    3.955 --    17 N    0.988    50 H    0.968    19 C    0.966
                            49 H    0.964
    19   6 C    3.976 --    20 C    1.008    51 H    0.972    52 H    0.972
                            18 C    0.966
    20   6 C    3.944 --    21 C    1.410    29 C    1.380    19 C    1.008
    21   6 C    3.950 --    22 C    1.417    20 C    1.410    53 H    0.968
    22   6 C    3.959 --    21 C    1.417    23 C    1.383    54 H    0.963
    23   6 C    3.895 --    22 C    1.383    26 C    1.219    24 O    1.111
    24   8 O    2.255 --    23 C    1.111    25 C    0.976
    25   6 C    3.928 --    57 H    0.977    24 O    0.976    55 H    0.973
                            56 H    0.973
    26   6 C    3.899 --    29 C    1.395    23 C    1.219    27 O    1.104
    27   8 O    2.255 --    26 C    1.104    28 C    0.978
    28   6 C    3.932 --    27 O    0.978    58 H    0.977    59 H    0.973
                            60 H    0.973
    29   6 C    3.959 --    26 C    1.395    20 C    1.380    61 H    0.963
    30   6 C    3.959 --    17 N    0.999    64 H    0.977    62 H    0.966
                            63 H    0.964
    31   6 C    3.973 --    33 C    1.009    32 C    1.009    65 H    0.961
                             3 C    0.940
    32   6 C    3.981 --    31 C    1.009    67 H    0.982    68 H    0.982
                            66 H    0.975
    33   6 C    3.983 --    31 C    1.009    70 H    0.983    71 H    0.980
                            69 H    0.976
    34   1 H    0.996 --     5 C    0.958
    35   1 H    0.994 --     8 C    0.975
    36   1 H    0.992 --     8 C    0.976
    37   1 H    0.995 --     8 C    0.975
    38   1 H    0.994 --    11 C    0.962
    39   1 H    0.058
    40   1 H    0.988 --    11 C    0.963
    41   1 H    0.995 --    12 C    0.961
    42   1 H    0.997 --    13 C    0.962
    43   1 H    0.995 --    14 C    0.968
    44   1 H    0.996 --    14 C    0.972
    45   1 H    0.995 --    15 C    0.962
    46   1 H    0.969 --    15 C    0.928
    47   1 H    0.988 --     2 C    0.905
    48   1 H    0.995 --    16 C    0.958
    49   1 H    0.990 --    18 C    0.964
    50   1 H    0.994 --    18 C    0.968
    51   1 H    0.996 --    19 C    0.972
    52   1 H    0.996 --    19 C    0.972
    53   1 H    0.997 --    21 C    0.968
    54   1 H    0.995 --    22 C    0.963
    55   1 H    0.992 --    25 C    0.973
    56   1 H    0.991 --    25 C    0.973
    57   1 H    0.992 --    25 C    0.977
    58   1 H    0.993 --    28 C    0.977
    59   1 H    0.993 --    28 C    0.973
    60   1 H    0.993 --    28 C    0.973
    61   1 H    0.997 --    29 C    0.963
    62   1 H    0.984 --    30 C    0.966
    63   1 H    0.988 --    30 C    0.964
    64   1 H    0.993 --    30 C    0.977
    65   1 H    0.993 --    31 C    0.961
    66   1 H    0.991 --    32 C    0.975
    67   1 H    0.997 --    32 C    0.982
    68   1 H    0.994 --    32 C    0.982
    69   1 H    0.993 --    33 C    0.976
    70   1 H    0.997 --    33 C    0.983
    71   1 H    0.994 --    33 C    0.980
    72   1 H    0.971 --     1 N    0.942
 ---------------------------------------------------------------------------

molecular dipole:
                 x           y           z       tot (Debye)
 q only:        0.935       0.538      -1.738
   full:        1.156       0.430      -1.883       5.720

           -------------------------------------------------
          | TOTAL ENERGY              -99.269691687370 Eh   |
          | GRADIENT NORM               0.001029350607 Eh/α |
          | HOMO-LUMO GAP               0.585785528891 eV   |
           -------------------------------------------------

 * finished run on 2024/04/06 at 11:12:59.537
