   * xtb version 6.6.1 (8d0f1dd) compiled by 'conda@1efc2f54142f' on 2023-08-01
          program call               : xtb struc.xyz --opt loose --input .xc1 --gfn2

   ID    Z sym.   atoms
    1    6 C      1, 3, 5-7, 10, 11, 14
    2    7 N      2, 4, 9, 13
    3    8 O      8, 12
    4    1 H      15-25
constraining bond 8 11 to    5.7600000 Å, actual value:    3.5880572 Å

          :  Hamiltonian                  GFN2-xTB          :
 * total energy  :    -8.5560434 Eh     change       -0.6650680E-10 Eh
 * total energy  :   -25.9458908 Eh     change       -0.1738985E+02 Eh
 * total energy  :   -35.6119014 Eh     change       -0.9666011E+01 Eh
 * total energy  :   -40.4955687 Eh     change       -0.4883667E+01 Eh
 * total energy  :   -41.7369587 Eh     change       -0.1241390E+01 Eh
 * total energy  :   -41.7930436 Eh     change       -0.5608490E-01 Eh
 * total energy  :   -41.8019049 Eh     change       -0.8861325E-02 Eh
 * total energy  :   -41.8094992 Eh     change       -0.7594291E-02 Eh
 * total energy  :   -41.8305744 Eh     change       -0.2107524E-01 Eh
 * total energy  :   -41.8478004 Eh     change       -0.1722597E-01 Eh
 * total energy  :   -42.1171402 Eh     change       -0.6213696E-03 Eh
 * total energy  :   -42.1174314 Eh     change       -0.2912443E-03 Eh
 * total energy  :   -42.1179257 Eh     change       -0.4942548E-03 Eh
 * total energy  :   -42.1181647 Eh     change       -0.2390226E-03 Eh
 * total energy  :   -42.1182681 Eh     change       -0.1033792E-03 Eh
 * total energy  :   -42.1182936 Eh     change       -0.2551551E-04 Eh
 * total energy  :   -42.1183263 Eh     change       -0.3272959E-04 Eh
 * total energy  :   -42.1183407 Eh     change       -0.1433166E-04 Eh
 * total energy  :   -42.1183563 Eh     change       -0.1560310E-04 Eh
   *** GEOMETRY OPTIMIZATION CONVERGED AFTER 79 ITERATIONS ***

 final structure:
================
25
 xtb: 6.6.1 (8d0f1dd)
C            3.08613884864637        0.96620803942832        0.09688047020061
N            2.08829480171598       -0.05385181533776        0.31088196126258
C            2.36837589121831       -1.23604523618905        0.84283076156215
N            1.25055488907485       -1.96584399997072        0.89917066975415
C            0.21298968376691       -1.21962858930415        0.38983986298806
C            0.74225105588077        0.01143505341922        0.02127237233785
C            0.10968455991740        1.28152402149156       -0.50734680264509
O            0.81869748111915        2.17865039877573       -0.97053417766241
N           -1.19765495087694        1.29275474851216       -0.37584692471383
C           -1.96705892320737        2.43115208315515       -0.72327866048365
C           -1.44366548358297       -2.63282759663224        1.24415098848345
O           -1.26948412323170       -3.31583990123949        2.17768244363134
N           -1.07729560274364       -1.79083336786970        0.33963924167181
C           -1.97149402708098       -1.44835220396750       -0.76391749447298
H            3.56524806777064        1.22166008529357        1.04108875032940
H            3.84124540531965        0.60292196224381       -0.59983266279467
H            2.60653391469498        1.84917413076026       -0.32938839319394
H            3.33725811264484       -1.55518226370517        1.17493385213609
H           -1.35294642725266        3.23685490416588       -1.13807424680438
H           -2.73157988893661        2.14297180836753       -1.44956190226800
H           -2.48035844399475        2.79428783236720        0.17155843867619
H           -1.58745636784940       -1.86946262827966       -1.69226050843478
H           -2.00576065611582       -0.35442894085791       -0.83689348394474
H           -2.96297214606759       -1.84549546600522       -0.56284714925159
H            1.18088584325833       -2.90356451700451        1.27102421153687

          :  Hamiltonian                  GFN2-xTB          :
         :: total energy             -42.118356254232 Eh    ::
         :: gradient norm              0.003203642507 Eh/a0 ::
         :: HOMO-LUMO gap              1.163433540070 eV    ::
         :: SCC energy               -42.648371323791 Eh    ::
         :: -> dispersion             -0.021716968589 Eh    ::
         :: repulsion energy           0.529841870676 Eh    ::

    * Orbital Energies and Occupations

         #    Occupation            Energy/Eh            Energy/eV
      -------------------------------------------------------------
         1        2.0000           -0.9272262             -25.2311
       ...           ...                  ...                  ...
        25        2.0000           -0.6673292             -18.1590
        26        2.0000           -0.6658509             -18.1187
        27        1.9999           -0.6388535             -17.3841
        28        1.9999           -0.6369899             -17.3334
        29        1.9997           -0.6242266             -16.9861
        30        1.9996           -0.6173743             -16.7996
        31        1.9995           -0.6147886             -16.7292
        32        1.9991           -0.6052172             -16.4688
        33        1.9984           -0.5952481             -16.1975
        34        1.9951           -0.5773442             -15.7103
        35        1.9365           -0.5364187             -14.5967
        36        1.7288           -0.5116362             -13.9223
        37        1.6991           -0.5097183             -13.8701 (HOMO)
        38        0.5501           -0.4669629             -12.7067 (LUMO)
        39        0.0587           -0.4269100             -11.6168
        40        0.0337           -0.4179259             -11.3723
        41        0.0018           -0.3716121             -10.1121
        42        0.0000           -0.2949013              -8.0247
        43        0.0000           -0.2169831              -5.9044
        44                         -0.1916870              -5.2161
        45                         -0.1388640              -3.7787
        46                         -0.0771675              -2.0998
        47                         -0.0575119              -1.5650
        48                         -0.0459722              -1.2510
       ...                                ...                  ...
        67                          0.7623810              20.7454
      -------------------------------------------------------------
                  HL-Gap            0.0427554 Eh            1.1634 eV

     #   Z          covCN         q      C6AA      α(0)
     1   6 C        3.694    -0.101    22.615     6.804
     2   7 N        2.858     0.086    19.752     6.601
     3   6 C        3.028     0.056    26.714     8.478
     4   7 N        2.803    -0.057    22.342     7.020
     5   6 C        3.048     0.089    25.971     8.358
     6   6 C        3.073     0.011    27.699     8.629
     7   6 C        2.763     0.281    22.252     7.725
     8   8 O        0.858    -0.415    21.979     6.286
     9   7 N        1.832    -0.265    27.739     7.805
    10   6 C        3.701    -0.027    21.214     6.586
    11   6 C        1.820     0.259    25.206     8.112
    12   8 O        0.856    -0.168    17.561     5.618
    13   7 N        2.729     0.025    20.811     6.775
    14   6 C        3.704    -0.098    22.535     6.787
    15   1 H        0.925     0.102     1.765     2.077
    16   1 H        0.925     0.106     1.735     2.060
    17   1 H        0.924     0.157     1.346     1.814
    18   1 H        0.926     0.128     1.548     1.946
    19   1 H        0.924     0.089     1.888     2.149
    20   1 H        0.924     0.082     1.962     2.191
    21   1 H        0.924     0.089     1.892     2.151
    22   1 H        0.925     0.099     1.795     2.095
    23   1 H        0.924     0.138     1.474     1.899
    24   1 H        0.925     0.107     1.725     2.054
    25   1 H        0.860     0.229     0.970     1.543

Wiberg/Mayer (AO) data.
largest (>0.10) Wiberg bond orders for each atom

     #   Z sym  total        # sym  WBO       # sym  WBO       # sym  WBO
 ---------------------------------------------------------------------------
     1   6 C    3.892 --     2 N    0.978    15 H    0.961    16 H    0.958
                            17 H    0.936
     2   7 N    3.701 --     3 C    1.385     6 C    1.192     1 C    0.978
     3   6 C    3.885 --     2 N    1.385     4 N    1.317    18 H    0.951
     4   7 N    3.595 --     3 C    1.317     5 C    1.178    25 H    0.918
     5   6 C    3.854 --     6 C    1.444     4 N    1.178    13 N    1.011
     6   6 C    3.881 --     5 C    1.444     2 N    1.192     7 C    0.957
     7   6 C    3.928 --     8 O    1.529     9 N    1.377     6 C    0.957
     8   8 O    1.805 --     7 C    1.529     9 N    0.151
     9   7 N    2.722 --     7 C    1.377    10 C    1.064     8 O    0.151
    10   6 C    3.901 --     9 N    1.064    20 H    0.937    19 H    0.936
                            21 H    0.930
    11   6 C    3.449 --    12 O    1.963    13 N    1.398
    12   8 O    2.199 --    11 C    1.963    13 N    0.170
    13   7 N    3.585 --    11 C    1.398     5 C    1.011    14 C    0.937
                            12 O    0.170
    14   6 C    3.863 --    24 H    0.974    22 H    0.968    13 N    0.937
                            23 H    0.917
    15   1 H    0.987 --     1 C    0.961
    16   1 H    0.986 --     1 C    0.958
    17   1 H    0.974 --     1 C    0.936
    18   1 H    0.983 --     3 C    0.951
    19   1 H    0.942 --    10 C    0.936
    20   1 H    0.957 --    10 C    0.937
    21   1 H    0.950 --    10 C    0.930
    22   1 H    0.989 --    14 C    0.968
    23   1 H    0.979 --    14 C    0.917
    24   1 H    0.987 --    14 C    0.974
    25   1 H    0.947 --     4 N    0.918
 ---------------------------------------------------------------------------

molecular dipole:
                 x           y           z       tot (Debye)
 q only:        1.111      -2.365       0.664
   full:        1.232      -2.647       0.801       7.694

           -------------------------------------------------
          | TOTAL ENERGY              -42.118356254232 Eh   |
          | GRADIENT NORM               0.003203642507 Eh/α |
          | HOMO-LUMO GAP               1.163433540070 eV   |
           -------------------------------------------------

 * finished run on 2024/06/05 at 20:00:16.412
