   * xtb version 6.6.1 (8d0f1dd) compiled by 'conda@1efc2f54142f' on 2023-08-01
          program call               : xtb struc.xyz --opt loose --input .xc1 --gfn2

   ID    Z sym.   atoms
    1    6 C      1, 3, 5-7, 10, 11, 14
    2    7 N      2, 4, 9, 13
    3    8 O      8, 12
    4    1 H      15-25
constraining bond 9 12 to    4.6800000 Å, actual value:    2.2666725 Å

          :  Hamiltonian                  GFN2-xTB          :
 * total energy  :   -31.8486522 Eh     change       -0.6650680E-10 Eh
 * total energy  :   -35.7191071 Eh     change       -0.3870455E+01 Eh
 * total energy  :   -38.6644763 Eh     change       -0.2945369E+01 Eh
 * total energy  :   -40.5488702 Eh     change       -0.1884394E+01 Eh
 * total energy  :   -41.4819363 Eh     change       -0.9330660E+00 Eh
 * total energy  :   -41.6741496 Eh     change       -0.1922133E+00 Eh
 * total energy  :   -41.6877380 Eh     change       -0.1358847E-01 Eh
 * total energy  :   -41.7156366 Eh     change       -0.2789852E-01 Eh
 * total energy  :   -41.7352956 Eh     change       -0.1965904E-01 Eh
 * total energy  :   -41.7488347 Eh     change       -0.1353905E-01 Eh
 * total energy  :   -42.0368830 Eh     change       -0.1349561E-03 Eh
 * total energy  :   -42.0369838 Eh     change       -0.1007757E-03 Eh
 * total energy  :   -42.0371110 Eh     change       -0.1272382E-03 Eh
 * total energy  :   -42.0372035 Eh     change       -0.9251524E-04 Eh
 * total energy  :   -42.0373046 Eh     change       -0.1011172E-03 Eh
 * total energy  :   -42.0373789 Eh     change       -0.7428244E-04 Eh
 * total energy  :   -42.0374510 Eh     change       -0.7211574E-04 Eh
 * total energy  :   -42.0374865 Eh     change       -0.3551524E-04 Eh
 * total energy  :   -42.0375351 Eh     change       -0.4856119E-04 Eh
   *** GEOMETRY OPTIMIZATION CONVERGED AFTER 53 ITERATIONS ***

 final structure:
================
25
 xtb: 6.6.1 (8d0f1dd)
C            2.98541476661091        1.13005348242938       -0.02524883651181
N            2.04930038561144        0.04628039830637       -0.12182964752042
C            2.33547788735941       -1.23304149282657       -0.36576063073334
N            1.20726717906770       -1.94590718562836       -0.36748046889446
C            0.12987891250161       -1.12895992052945       -0.11873486499330
C            0.66238789952009        0.18109058143769        0.06417939851719
C            0.10855555601724        1.39071869326124        0.32070539414563
O            0.55775972198536        2.63636441071101        0.60090040384263
N           -0.83279640255309        2.22511958298850        0.85240420822737
C           -1.82498828357381        2.86742408197746        0.02779776111785
C           -2.19566254525503       -1.09897829365521       -0.68023840402613
O           -3.33725101159668       -1.31994706768299       -0.89129888297870
N           -1.15897584604823       -1.65305402292139       -0.09446441954953
C           -1.31099776607793       -3.01072781400865        0.48152708545503
H            2.95227847897816        1.57237200239400        0.97227134357842
H            3.98855613205710        0.76063604089639       -0.22465753990708
H            2.73587675102307        1.91049357281294       -0.74633738505140
H            3.31743883387971       -1.62864877168772       -0.52897281321914
H           -2.07682261656964        3.81773289198876        0.49581893319580
H           -1.49318821573981        3.03694228895531       -0.99980429165803
H           -2.70314282396319        2.22241014823078        0.03177801859444
H           -0.65908880161626       -3.11025717183371        1.34669330098928
H           -1.08759640234235       -3.77844905974082       -0.26213788337973
H           -2.34502522565417       -3.13176891075347        0.79926103409303
H            1.15577495047873       -2.93965992352170       -0.53519919543300

          :  Hamiltonian                  GFN2-xTB          :
         :: total energy             -42.037535105685 Eh    ::
         :: gradient norm              0.003496031408 Eh/a0 ::
         :: HOMO-LUMO gap              0.452540713654 eV    ::
         :: SCC energy               -42.547615927373 Eh    ::
         :: -> dispersion             -0.020922612434 Eh    ::
         :: repulsion energy           0.509910996635 Eh    ::

    * Orbital Energies and Occupations

         #    Occupation            Energy/Eh            Energy/eV
      -------------------------------------------------------------
         1        2.0000           -0.8959510             -24.3801
       ...           ...                  ...                  ...
        25        2.0000           -0.6744752             -18.3534
        26        2.0000           -0.6670633             -18.1517
        27        2.0000           -0.6651951             -18.1009
        28        2.0000           -0.6530279             -17.7698
        29        2.0000           -0.6384714             -17.3737
        30        1.9999           -0.6304024             -17.1541
        31        1.9999           -0.6173085             -16.7978
        32        1.9998           -0.6085038             -16.5582
        33        1.9997           -0.6048515             -16.4588
        34        1.9995           -0.5937764             -16.1575
        35        1.9980           -0.5721860             -15.5700
        36        1.9827           -0.5383227             -14.6485
        37        1.2356           -0.4708050             -12.8113 (HOMO)
        38        0.7224           -0.4541745             -12.3587 (LUMO)
        39        0.0580           -0.4076205             -11.0919
        40        0.0041           -0.3650465              -9.9334
        41        0.0003           -0.3219268              -8.7601
        42        0.0001           -0.3050874              -8.3019
        43        0.0000           -0.2131425              -5.7999
        44        0.0000           -0.1980894              -5.3903
        45                         -0.1661556              -4.5213
        46                         -0.1146310              -3.1193
        47                         -0.0805368              -2.1915
        48                         -0.0553874              -1.5072
       ...                                ...                  ...
        67                          0.6285764              17.1044
      -------------------------------------------------------------
                  HL-Gap            0.0166306 Eh            0.4525 eV

     #   Z          covCN         q      C6AA      α(0)
     1   6 C        3.691    -0.082    22.262     6.752
     2   7 N        2.833     0.043    20.482     6.722
     3   6 C        2.977     0.050    26.876     8.504
     4   7 N        2.789    -0.051    22.228     7.002
     5   6 C        2.989     0.062    26.608     8.462
     6   6 C        3.031     0.009    27.778     8.645
     7   6 C        2.760     0.164    24.443     8.096
     8   8 O        1.748    -0.232    17.842     5.704
     9   7 N        2.712    -0.018    21.593     6.902
    10   6 C        3.690    -0.055    21.765     6.677
    11   6 C        1.800     0.209    26.261     8.282
    12   8 O        0.856    -0.197    18.012     5.690
    13   7 N        2.728    -0.010    21.456     6.880
    14   6 C        3.703    -0.074    22.083     6.719
    15   1 H        0.924     0.110     1.694     2.036
    16   1 H        0.925     0.097     1.815     2.107
    17   1 H        0.924     0.107     1.725     2.054
    18   1 H        0.926     0.115     1.652     2.010
    19   1 H        0.925     0.100     1.789     2.091
    20   1 H        0.924     0.065     2.136     2.286
    21   1 H        0.925     0.084     1.935     2.175
    22   1 H        0.925     0.091     1.872     2.139
    23   1 H        0.924     0.083     1.952     2.185
    24   1 H        0.925     0.108     1.716     2.048
    25   1 H        0.860     0.223     0.996     1.563

Wiberg/Mayer (AO) data.
largest (>0.10) Wiberg bond orders for each atom

     #   Z sym  total        # sym  WBO       # sym  WBO       # sym  WBO
 ---------------------------------------------------------------------------
     1   6 C    3.931 --     2 N    0.995    16 H    0.974    17 H    0.960
                            15 H    0.958
     2   7 N    3.571 --     3 C    1.335     6 C    1.070     1 C    0.995
     3   6 C    3.817 --     2 N    1.335     4 N    1.316    18 H    0.953
                             5 C    0.110
     4   7 N    3.587 --     3 C    1.316     5 C    1.172    25 H    0.920
     5   6 C    3.669 --     6 C    1.217     4 N    1.172    13 N    1.068
                             3 C    0.110
     6   6 C    3.920 --     7 C    1.410     5 C    1.217     2 N    1.070
     7   6 C    3.574 --     6 C    1.410     9 N    1.063     8 O    0.998
     8   8 O    2.007 --     7 C    0.998     9 N    0.887
     9   7 N    3.029 --     7 C    1.063    10 C    1.001     8 O    0.887
    10   6 C    3.941 --     9 N    1.001    20 H    0.972    19 H    0.970
                            21 H    0.960
    11   6 C    3.294 --    12 O    1.917    13 N    1.312
    12   8 O    2.106 --    11 C    1.917    13 N    0.148
    13   7 N    3.514 --    11 C    1.312     5 C    1.068    14 C    0.918
                            12 O    0.148
    14   6 C    3.875 --    22 H    0.974    24 H    0.973    23 H    0.973
                            13 N    0.918
    15   1 H    0.982 --     1 C    0.958
    16   1 H    0.990 --     1 C    0.974
    17   1 H    0.983 --     1 C    0.960
    18   1 H    0.985 --     3 C    0.953
    19   1 H    0.988 --    10 C    0.970
    20   1 H    0.989 --    10 C    0.972
    21   1 H    0.993 --    10 C    0.960
    22   1 H    0.987 --    14 C    0.974
    23   1 H    0.992 --    14 C    0.973
    24   1 H    0.986 --    14 C    0.973
    25   1 H    0.950 --     4 N    0.920
 ---------------------------------------------------------------------------

molecular dipole:
                 x           y           z       tot (Debye)
 q only:        1.761      -1.870      -0.219
   full:        1.954      -2.148      -0.474       7.479

           -------------------------------------------------
          | TOTAL ENERGY              -42.037535105685 Eh   |
          | GRADIENT NORM               0.003496031408 Eh/α |
          | HOMO-LUMO GAP               0.452540713654 eV   |
           -------------------------------------------------

 * finished run on 2024/06/05 at 20:00:17.779
