   * xtb version 6.6.1 (8d0f1dd) compiled by 'conda@1efc2f54142f' on 2023-08-01
          program call               : xtb struc.xyz --opt loose --input .xc1 --gfn2

   ID    Z sym.   atoms
    1    7 N      1, 17
    2    6 C      2-6, 8, 9, 11-16, 18-23, 25, 26, 28-33
    3    8 O      7, 10, 24, 27
    4    1 H      34-72
constraining bond 26 58 to    3.7133300 Å, actual value:    3.2436624 Å

          :  Hamiltonian                  GFN2-xTB          :
 * total energy  :   -99.4435175 Eh     change       -0.4035485E-08 Eh
 * total energy  :   -99.5211348 Eh     change       -0.7761721E-01 Eh
 * total energy  :   -99.5883327 Eh     change       -0.6719792E-01 Eh
 * total energy  :   -99.6214666 Eh     change       -0.3313394E-01 Eh
 * total energy  :   -99.6866703 Eh     change       -0.6520368E-01 Eh
 * total energy  :   -99.7950208 Eh     change       -0.1083505E+00 Eh
 * total energy  :  -100.0058789 Eh     change       -0.2108581E+00 Eh
 * total energy  :  -100.2880000 Eh     change       -0.2821211E+00 Eh
 * total energy  :   -99.9221357 Eh     change        0.3658643E+00 Eh
 * total energy  :  -100.3805448 Eh     change       -0.4584091E+00 Eh
 * total energy  :  -100.7369197 Eh     change       -0.8490600E-04 Eh
 * total energy  :  -100.7370361 Eh     change       -0.1163961E-03 Eh
 * total energy  :  -100.7371309 Eh     change       -0.9476669E-04 Eh
 * total energy  :  -100.7372162 Eh     change       -0.8532108E-04 Eh
 * total energy  :  -100.7372876 Eh     change       -0.7139651E-04 Eh
 * total energy  :  -100.7373430 Eh     change       -0.5539606E-04 Eh
 * total energy  :  -100.7373830 Eh     change       -0.3997109E-04 Eh
 * total energy  :  -100.7374341 Eh     change       -0.5112347E-04 Eh
 * total energy  :  -100.7374703 Eh     change       -0.3625589E-04 Eh
   *** GEOMETRY OPTIMIZATION CONVERGED AFTER 49 ITERATIONS ***

 final structure:
================
72
 xtb: 6.6.1 (8d0f1dd)
N           -1.90068664874397        2.90932178030260        2.20390071277123
C           -1.85759276625229        2.16420695396217        1.20232993449356
C           -3.00174311915610        1.93850417293402        0.25306268036581
C           -3.44861830203908        0.48713229444922        0.33657069746035
C           -4.35396858508740       -0.01483957560597       -0.60088627360711
C           -4.80947845552157       -1.32083338810040       -0.54025877565371
O           -5.69152842472935       -1.87902418541739       -1.39730537626439
C           -6.29873173626528       -1.07336351349481       -2.37941929482601
C           -4.33901675809171       -2.17871862242544        0.48931776709034
O           -4.82931940596969       -3.43603269427692        0.46822855393921
C           -4.48375581918358       -4.32054550054404        1.50805362056314
C           -3.44169162889646       -1.67477601330217        1.41650414333315
C           -3.00609091070511       -0.35735977345223        1.34197574249540
C           -2.44240406752687        2.24651502605641       -1.16132457442651
C           -1.51342463286278        1.16018196744568       -1.73125047848591
C           -0.18731378678515        1.10792011139966       -1.07641358831064
N            0.45086402343454       -0.00436673752143       -0.72431936397434
C            1.83242581241099        0.05068701783215       -0.30678524598410
C            2.79017742494060       -0.23036607419691       -1.47908251597532
C            4.21550077546517       -0.17963525827988       -1.00057366043697
C            4.82520943509303        1.06626077232173       -0.78729250928246
C            6.16862770528241        1.14874886427329       -0.41333951936624
C            6.90289108770305        0.01835667123132       -0.18478369689633
O            8.21822840358316       -0.05305006978330        0.11196725448210
C            8.97280496941998        1.13716102416999        0.18090763785329
C            6.28108128384561       -1.35166524202442       -0.19685876307719
O            6.02884748447412       -1.69378528689664        1.28208168228607
C            6.44503340473725       -2.84433217595397        1.71894628354798
C            4.91449782797220       -1.33264014178089       -0.78086418881187
C           -0.16321186993795       -1.30507235565005       -0.83863246043398
C           -4.23540797655312        2.84351536294581        0.54218918172507
C           -4.86020964289203        2.51955687387786        1.89719627456835
C           -3.91946196671441        4.33457764633459        0.46326326418760
H           -4.71869529942076        0.63280900591499       -1.38073435629734
H           -6.83703222531045       -0.23248022689684       -1.93153929111340
H           -7.00687574015531       -1.72168158388808       -2.89174945655152
H           -5.56706460466103       -0.69756420267620       -3.10233004313977
H           -4.78111563402862       -3.92711951268437        2.48464787514791
H           -5.03349351767272       -5.23771439842739        1.30618425776621
H           -3.41026401073394       -4.53602790768356        1.51244112556955
H           -3.08162678353401       -2.29680089337165        2.21983788966090
H           -2.33311527216497        0.00714564124841        2.10258842583372
H           -3.27866039992761        2.36995631149542       -1.84889122176562
H           -1.90321958593855        3.19413189451436       -1.12602918823840
H           -2.01596770632752        0.19535308287633       -1.69422579285028
H           -1.34825071095551        1.40991511626162       -2.78790160801789
H           -0.94977118215953        1.61974832423002        0.87674560412009
H            0.37444644102286        2.02771271570652       -1.00923423138576
H            1.99920863296139       -0.68643162952370        0.48276611275036
H            2.04870738588234        1.04016712573343        0.10116280525800
H            2.62799080693622        0.52123718187563       -2.25361863911532
H            2.57367748808511       -1.21294586018497       -1.89941204129400
H            4.27395985544031        1.97337247294461       -0.96509860817316
H            6.62798346569330        2.12127978875889       -0.34156400860800
H            8.60500233413835        1.79236839237485        0.97484070710433
H            8.95305499728050        1.67121953524371       -0.77234409232631
H            9.99167181141184        0.82899302581125        0.40720537481829
H            6.76253004683389       -1.90659758564753       -0.47679451725591
H            6.06246215504448       -3.15633534027076        2.67421712224383
H            7.14894465205852       -3.45447630130982        1.17070317503559
H            4.46905816719608       -2.29820345682919       -0.96302373824085
H           -0.35199830144029       -1.56397597688324       -1.88259903179565
H           -1.11063299268255       -1.32799354403217       -0.29420621370195
H            0.50012520357901       -2.05284237352231       -0.41165167611669
H           -4.97599535025938        2.61315468248363       -0.23245367311570
H           -4.16385012543456        2.75828990537526        2.69453078278119
H           -5.12849253043946        1.46798317295644        1.96486921015111
H           -5.76110533576517        3.11195248855550        2.03409148391758
H           -3.16257472715200        4.59816471705894        1.19540162166937
H           -3.57904351494949        4.62600327534751       -0.52695687197696
H           -4.81982665856795        4.90141446481166        0.68557339787034
H           -1.05616877132390        3.00871806394276        2.75871102662480

          :  Hamiltonian                  GFN2-xTB          :
         :: total energy            -100.737470346206 Eh    ::
         :: gradient norm              0.003812261354 Eh/a0 ::
         :: HOMO-LUMO gap              0.555204832188 eV    ::
         :: SCC energy              -100.706517371224 Eh    ::
         :: -> dispersion             -0.075312023810 Eh    ::
         :: repulsion energy           1.497579320950 Eh    ::

    * Orbital Energies and Occupations

         #    Occupation            Energy/Eh            Energy/eV
      -------------------------------------------------------------
         1        2.0000           -0.8284593             -22.5435
       ...           ...                  ...                  ...
        78        1.9991           -0.5298029             -14.4167
        79        1.9985           -0.5228641             -14.2279
        80        1.9985           -0.5225121             -14.2183
        81        1.9982           -0.5197574             -14.1433
        82        1.9978           -0.5165712             -14.0566
        83        1.9965           -0.5090591             -13.8522
        84        1.9959           -0.5064730             -13.7818
        85        1.9951           -0.5037825             -13.7086
        86        1.9847           -0.4855325             -13.2120
        87        1.9835           -0.4843023             -13.1785
        88        1.9443           -0.4647381             -12.6462
        89        1.8903           -0.4535598             -12.3420
        90        1.1973           -0.4148183             -11.2878 (HOMO)
        91        0.5828           -0.3944149             -10.7326 (LUMO)
        92        0.4168           -0.3873560             -10.5405
        93        0.0158           -0.3319724              -9.0334
        94        0.0041           -0.3103632              -8.4454
        95        0.0033           -0.3070281              -8.3547
        96        0.0029           -0.3047690              -8.2932
        97        0.0001           -0.2462876              -6.7018
        98        0.0000           -0.1844268              -5.0185
        99                         -0.1357269              -3.6933
       100                         -0.1290251              -3.5110
       101                         -0.0723296              -1.9682
       ...                                ...                  ...
       171                          1.1298513              30.7448
      -------------------------------------------------------------
                  HL-Gap            0.0204034 Eh            0.5552 eV

     #   Z          covCN         q      C6AA      α(0)
     1   7 N        1.774    -0.272    27.873     7.818
     2   6 C        2.827     0.101    25.748     8.315
     3   6 C        3.908     0.006    20.417     6.423
     4   6 C        2.974     0.001    27.992     8.679
     5   6 C        2.921    -0.080    30.012     8.984
     6   6 C        2.862     0.128    25.190     8.227
     7   8 O        1.706    -0.233    17.870     5.707
     8   6 C        3.644     0.029    20.428     6.496
     9   6 C        2.864     0.127    25.212     8.230
    10   8 O        1.706    -0.232    17.850     5.704
    11   6 C        3.645     0.028    20.435     6.497
    12   6 C        2.914    -0.075    29.877     8.963
    13   6 C        2.921    -0.054    29.332     8.881
    14   6 C        3.812    -0.064    21.718     6.633
    15   6 C        3.802    -0.069    21.817     6.650
    16   6 C        2.844     0.004    27.918     8.659
    17   7 N        2.729     0.008    21.122     6.826
    18   6 C        3.756    -0.016    20.916     6.521
    19   6 C        3.809    -0.072    21.867     6.657
    20   6 C        2.956     0.009    27.816     8.651
    21   6 C        2.922    -0.053    29.324     8.880
    22   6 C        2.900    -0.066    29.634     8.926
    23   6 C        2.854     0.126    25.229     8.232
    24   8 O        1.705    -0.236    17.907     5.713
    25   6 C        3.644     0.024    20.507     6.509
    26   6 C        3.723     0.073    19.462     6.300
    27   8 O        1.676    -0.193    17.228     5.604
    28   6 C        2.717     0.053    26.782     8.472
    29   6 C        2.911    -0.080    30.002     8.982
    30   6 C        3.699    -0.069    22.001     6.708
    31   6 C        3.853    -0.007    20.672     6.467
    32   6 C        3.756    -0.118    22.813     6.810
    33   6 C        3.755    -0.119    22.826     6.812
    34   1 H        0.926     0.051     2.311     2.377
    35   1 H        0.924     0.053     2.289     2.366
    36   1 H        0.925     0.079     1.985     2.203
    37   1 H        0.924     0.046     2.374     2.410
    38   1 H        0.924     0.054     2.277     2.360
    39   1 H        0.925     0.079     1.986     2.204
    40   1 H        0.924     0.046     2.367     2.406
    41   1 H        0.926     0.050     2.317     2.380
    42   1 H        0.926     0.038     2.477     2.461
    43   1 H        0.925     0.059     2.211     2.325
    44   1 H        0.924     0.053     2.289     2.366
    45   1 H        0.925     0.066     2.133     2.284
    46   1 H        0.923     0.077     2.010     2.217
    47   1 H        0.922     0.005     2.975     2.698
    48   1 H        0.926     0.067     2.116     2.275
    49   1 H        0.924     0.068     2.107     2.270
    50   1 H        0.924     0.068     2.104     2.268
    51   1 H        0.924     0.056     2.248     2.345
    52   1 H        0.924     0.054     2.267     2.355
    53   1 H        0.926     0.041     2.430     2.438
    54   1 H        0.926     0.056     2.249     2.345
    55   1 H        0.924     0.059     2.215     2.328
    56   1 H        0.924     0.058     2.217     2.329
    57   1 H        0.925     0.081     1.967     2.193
    58   1 H        0.930     0.108     1.710     2.045
    59   1 H        0.926     0.089     1.889     2.149
    60   1 H        0.926     0.068     2.111     2.272
    61   1 H        0.926     0.039     2.459     2.452
    62   1 H        0.924     0.075     2.036     2.232
    63   1 H        0.924     0.079     1.993     2.208
    64   1 H        0.925     0.079     1.990     2.206
    65   1 H        0.924     0.036     2.507     2.476
    66   1 H        0.925     0.067     2.115     2.274
    67   1 H        0.925     0.035     2.523     2.484
    68   1 H        0.925     0.050     2.326     2.385
    69   1 H        0.925     0.061     2.186     2.312
    70   1 H        0.925     0.034     2.535     2.490
    71   1 H        0.925     0.053     2.284     2.363
    72   1 H        0.860     0.155     1.370     1.833

Wiberg/Mayer (AO) data.
largest (>0.10) Wiberg bond orders for each atom

     #   Z sym  total        # sym  WBO       # sym  WBO       # sym  WBO
 ---------------------------------------------------------------------------
     1   7 N    3.038 --     2 C    1.954    72 H    0.943
     2   6 C    3.928 --     1 N    1.954     3 C    0.995    47 H    0.902
     3   6 C    3.977 --     2 C    0.995     4 C    0.970    14 C    0.956
                            31 C    0.944
     4   6 C    3.953 --    13 C    1.418     5 C    1.367     3 C    0.970
     5   6 C    3.964 --     6 C    1.404     4 C    1.367    34 H    0.958
     6   6 C    3.909 --     5 C    1.404     9 C    1.226     7 O    1.095
     7   8 O    2.253 --     6 C    1.095     8 C    0.979
     8   6 C    3.934 --     7 O    0.979    36 H    0.977    35 H    0.974
                            37 H    0.974
     9   6 C    3.906 --    12 C    1.395     6 C    1.226    10 O    1.097
    10   8 O    2.251 --     9 C    1.097    11 C    0.979
    11   6 C    3.933 --    10 O    0.979    39 H    0.977    40 H    0.974
                            38 H    0.974
    12   6 C    3.965 --    13 C    1.402     9 C    1.395    41 H    0.964
    13   6 C    3.958 --     4 C    1.418    12 C    1.402    42 H    0.963
    14   6 C    3.973 --    15 C    0.982    44 H    0.973    43 H    0.969
                             3 C    0.956
    15   6 C    3.987 --    16 C    1.059    14 C    0.982    45 H    0.961
                            46 H    0.928
    16   6 C    3.575 --    17 N    1.391    15 C    1.059    48 H    0.958
    17   7 N    3.467 --    16 C    1.391    30 C    0.999    18 C    0.988
    18   6 C    3.957 --    17 N    0.988    19 C    0.969    50 H    0.967
                            49 H    0.965
    19   6 C    3.975 --    20 C    1.003    52 H    0.973    51 H    0.970
                            18 C    0.969
    20   6 C    3.957 --    29 C    1.558    21 C    1.300    19 C    1.003
    21   6 C    3.699 --    22 C    1.348    20 C    1.300    53 H    0.971
    22   6 C    3.959 --    23 C    1.486    21 C    1.348    54 H    0.960
    23   6 C    3.708 --    22 C    1.486    24 O    1.109    26 C    1.002
    24   8 O    2.219 --    23 C    1.109    25 C    0.971
    25   6 C    3.928 --    57 H    0.977    56 H    0.973    55 H    0.973
                            24 O    0.971
    26   6 C    3.897 --    29 C    1.038    23 C    1.002    58 H    0.966
                            27 O    0.783
    27   8 O    2.185 --    28 C    1.333    26 C    0.783
    28   6 C    3.318 --    27 O    1.333    60 H    0.966    59 H    0.958
    29   6 C    3.724 --    20 C    1.558    26 C    1.038    61 H    0.968
    30   6 C    3.959 --    17 N    0.999    64 H    0.978    62 H    0.967
                            63 H    0.962
    31   6 C    3.975 --    33 C    1.009    32 C    1.008    65 H    0.961
                             3 C    0.944
    32   6 C    3.981 --    31 C    1.008    67 H    0.982    68 H    0.982
                            66 H    0.975
    33   6 C    3.984 --    31 C    1.009    70 H    0.983    71 H    0.981
                            69 H    0.977
    34   1 H    0.996 --     5 C    0.958
    35   1 H    0.994 --     8 C    0.974
    36   1 H    0.993 --     8 C    0.977
    37   1 H    0.994 --     8 C    0.974
    38   1 H    0.994 --    11 C    0.974
    39   1 H    0.993 --    11 C    0.977
    40   1 H    0.994 --    11 C    0.974
    41   1 H    0.996 --    12 C    0.964
    42   1 H    0.998 --    13 C    0.963
    43   1 H    0.995 --    14 C    0.969
    44   1 H    0.996 --    14 C    0.973
    45   1 H    0.995 --    15 C    0.961
    46   1 H    0.969 --    15 C    0.928
    47   1 H    0.988 --     2 C    0.902
    48   1 H    0.995 --    16 C    0.958
    49   1 H    0.991 --    18 C    0.965
    50   1 H    0.994 --    18 C    0.967
    51   1 H    0.996 --    19 C    0.970
    52   1 H    0.996 --    19 C    0.973
    53   1 H    0.998 --    21 C    0.971
    54   1 H    0.995 --    22 C    0.960
    55   1 H    0.990 --    25 C    0.973
    56   1 H    0.990 --    25 C    0.973
    57   1 H    0.993 --    25 C    0.977
    58   1 H    0.980 --    26 C    0.966
    59   1 H    0.985 --    28 C    0.958
    60   1 H    0.993 --    28 C    0.966
    61   1 H    0.997 --    29 C    0.968
    62   1 H    0.985 --    30 C    0.967
    63   1 H    0.987 --    30 C    0.962
    64   1 H    0.994 --    30 C    0.978
    65   1 H    0.993 --    31 C    0.961
    66   1 H    0.992 --    32 C    0.975
    67   1 H    0.997 --    32 C    0.982
    68   1 H    0.995 --    32 C    0.982
    69   1 H    0.994 --    33 C    0.977
    70   1 H    0.997 --    33 C    0.983
    71   1 H    0.994 --    33 C    0.981
    72   1 H    0.971 --     1 N    0.943
 ---------------------------------------------------------------------------

molecular dipole:
                 x           y           z       tot (Debye)
 q only:        2.109      -0.463      -0.677
   full:        2.627      -0.615      -0.751       7.119

           -------------------------------------------------
          | TOTAL ENERGY             -100.737470346206 Eh   |
          | GRADIENT NORM               0.003812261354 Eh/α |
          | HOMO-LUMO GAP               0.555204832188 eV   |
           -------------------------------------------------

 * finished run on 2024/04/06 at 11:16:44.602
