   * xtb version 6.6.1 (8d0f1dd) compiled by 'conda@1efc2f54142f' on 2023-08-01
          program call               : xtb xtbopt.xyz --opt crude --input .xc2 --gfn2

   ID    Z sym.   atoms
    1    7 N      1, 17
    2    6 C      2-6, 8, 9, 11-16, 18-23, 25, 26, 28-33
    3    8 O      7, 10, 24, 27
    4    1 H      34-72
########################################################################
[WARNING] Please study the warnings concerning your input carefully
-1- readin_getIntValue: could not parse ''
########################################################################

          :  Hamiltonian                  GFN2-xTB          :
 * total energy  :   -99.2076081 Eh     change       -0.2017941E-11 Eh
 * total energy  :   -99.3166997 Eh     change       -0.1090916E+00 Eh
 * total energy  :   -99.3184362 Eh     change       -0.1736465E-02 Eh
 * total energy  :   -99.3193983 Eh     change       -0.9621675E-03 Eh
 * total energy  :   -99.3195697 Eh     change       -0.1713351E-03 Eh
   *** GEOMETRY OPTIMIZATION CONVERGED AFTER 5 ITERATIONS ***

 final structure:
================
72
 xtb: 6.6.1 (8d0f1dd)
N           -1.90128436092858        2.91111682967077        2.20453027279185
C           -1.85899018903019        2.16513696491755        1.20338557307508
C           -3.00350670054964        1.93953906841881        0.25472708783616
C           -3.44982308118067        0.48789594798885        0.33748737118516
C           -4.35458707503054       -0.01424959218381       -0.60037131862741
C           -4.80849485779190       -1.32087223722891       -0.54100699984601
O           -5.68830220827482       -1.88010124897876       -1.39966784322411
C           -6.29529901792708       -1.07550182983683       -2.38268682667102
C           -4.33837680779764       -2.17880636132276        0.48857691234893
O           -4.82866621598817       -3.43612165056429        0.46689961033363
C           -4.48364272525936       -4.32108698408106        1.50648651121565
C           -3.44152319059477       -1.67476990340154        1.41610549941227
C           -3.00648990313033       -0.35712154102558        1.34209073958521
C           -2.44647060109299        2.24852021753114       -1.16018432695903
C           -1.51653402348333        1.16425096882504       -1.73264472901904
C           -0.19079546896911        1.11079563363619       -1.07774745438415
N            0.44616205622822       -0.00162896273482       -0.72337378005848
C            1.82842970378284        0.05370342156365       -0.30996735101274
C            2.78513594492578       -0.22291240513357       -1.48464258371482
C            4.20901143247819       -0.17479462052413       -1.00091424644801
C            4.82139803657201        1.07182685852497       -0.79393734107353
C            6.16470537313072        1.15659563727404       -0.41843682108510
C            6.89278612606785        0.02543177339250       -0.16245995174812
O            8.20659685107579       -0.04871441801153        0.13226082977202
C            8.96617317449921        1.13963228879619        0.18478029263868
C            6.24674009413399       -1.32368499737798       -0.15018667861822
O            6.02534572516992       -1.69322690635233        1.28530960530178
C            6.45363358245516       -2.83884138377712        1.72439423592303
C            4.90128646921185       -1.32920785024955       -0.76578768913545
C           -0.16609157370411       -1.30311252328867       -0.84093060396154
C           -4.23698049789809        2.84443967277592        0.54520429540314
C           -4.86036556953861        2.52076164188510        1.90092733278365
C           -3.92114985580149        4.33552751330342        0.46570570381503
H           -4.72035688607701        0.63316711896466       -1.37993653774019
H           -6.83460349261325       -0.23472182678241       -1.93599498632076
H           -7.00245937857233       -1.72481824236369       -2.89505117621607
H           -5.56331902053151       -0.69967619269882       -3.10525076267302
H           -4.78331227829661       -3.92895838966555        2.48291956828016
H           -5.03182725698223       -5.23877491952650        1.30271589096250
H           -3.40988081529773       -4.53506792596587        1.51258528386577
H           -3.08133325099113       -2.29705410434681        2.21919306686024
H           -2.33328588728777        0.00719500960541        2.10253832794109
H           -3.28402917489685        2.36992466734484       -1.84630042718670
H           -1.90907115031638        3.19702265203635       -1.12576126671632
H           -2.01834494016056        0.19896060446874       -1.69904944544884
H           -1.35079542560805        1.41814506562380       -2.78817742699543
H           -0.95131351843379        1.62041748364852        0.87818677815531
H            0.37015632331452        2.03093160601240       -1.00915658100284
H            1.99897322943889       -0.68597200116417        0.47593483518166
H            2.04424077411596        1.04237022758479        0.10054279067635
H            2.62332055157648        0.53077233291058       -2.25764569771200
H            2.56912618820848       -1.20432255419179       -1.90770902272019
H            4.27125336914022        1.98008338022147       -0.98147669082732
H            6.62578414270662        2.12977998668439       -0.36167226194746
H            8.60393656686660        1.80525006453025        0.97290006424662
H            8.94641733519257        1.66334417400476       -0.77489729806029
H            9.98464438794755        0.82936007470195        0.40967770616963
H            6.92308878556650       -2.08942018178571       -0.54729564006480
H            6.09792944795665       -3.14342778637002        2.69310422133739
H            7.14210029500090       -3.44912707314387        1.16160422635083
H            4.45263766441815       -2.29494601088591       -0.93665329455677
H           -0.35389324343076       -1.56064413461636       -1.88556935403282
H           -1.11397401986218       -1.32854348992360       -0.29732640274881
H            0.49800256424546       -2.05055376463525       -0.41480872379331
H           -4.97835940218006        2.61389640007009       -0.22855308820442
H           -4.16287480512698        2.75871166518868        2.69737147390521
H           -5.12956278608569        1.46947314947221        1.96861340030009
H           -5.76041229348506        3.11405211522277        2.03892486313029
H           -3.16342793603057        4.59922924602155        1.19679105077934
H           -3.58205379800590        4.62688413292898       -0.52485442099627
H           -4.82117118209205        4.90234804230230        0.68909028528247
H           -1.05546473208445        3.00842989860547        2.75778618729755

          :  Hamiltonian                  GFN2-xTB          :
         :: total energy             -99.319569679806 Eh    ::
         :: gradient norm              0.006618846669 Eh/a0 ::
         :: HOMO-LUMO gap              0.500733025693 eV    ::
         :: SCC energy              -100.681061586715 Eh    ::
         :: -> dispersion             -0.075323581924 Eh    ::
         :: repulsion energy           1.360154264432 Eh    ::

    * Orbital Energies and Occupations

         #    Occupation            Energy/Eh            Energy/eV
      -------------------------------------------------------------
         1        2.0000           -0.8302365             -22.5919
       ...           ...                  ...                  ...
        78        1.9991           -0.5297087             -14.4141
        79        1.9986           -0.5226223             -14.2213
        80        1.9985           -0.5222808             -14.2120
        81        1.9983           -0.5197868             -14.1441
        82        1.9979           -0.5163205             -14.0498
        83        1.9966           -0.5088280             -13.8459
        84        1.9959           -0.5062389             -13.7755
        85        1.9952           -0.5035365             -13.7019
        86        1.9850           -0.4854158             -13.2088
        87        1.9836           -0.4840393             -13.1714
        88        1.9448           -0.4645117             -12.6400
        89        1.8911           -0.4533031             -12.3350
        90        1.1660           -0.4134044             -11.2493 (HOMO)
        91        0.6086           -0.3950028             -10.7486 (LUMO)
        92        0.4199           -0.3871147             -10.5339
        93        0.0159           -0.3317233              -9.0266
        94        0.0041           -0.3100864              -8.4379
        95        0.0033           -0.3067490              -8.3471
        96        0.0030           -0.3051687              -8.3041
        97        0.0001           -0.2420661              -6.5870
        98        0.0000           -0.1841351              -5.0106
        99                         -0.1304129              -3.5487
       100                         -0.1071519              -2.9158
       101                         -0.0714529              -1.9443
       ...                                ...                  ...
       171                          0.5792027              15.7609
      -------------------------------------------------------------
                  HL-Gap            0.0184016 Eh            0.5007 eV

     #   Z          covCN         q      C6AA      α(0)
     1   7 N        1.774    -0.272    27.882     7.819
     2   6 C        2.827     0.101    25.749     8.315
     3   6 C        3.908     0.006    20.417     6.423
     4   6 C        2.974     0.001    27.993     8.679
     5   6 C        2.921    -0.080    30.012     8.984
     6   6 C        2.862     0.128    25.191     8.227
     7   8 O        1.706    -0.234    17.872     5.708
     8   6 C        3.644     0.029    20.427     6.496
     9   6 C        2.864     0.127    25.213     8.231
    10   8 O        1.706    -0.232    17.853     5.705
    11   6 C        3.645     0.028    20.434     6.497
    12   6 C        2.914    -0.075    29.878     8.963
    13   6 C        2.922    -0.054    29.332     8.882
    14   6 C        3.812    -0.064    21.718     6.633
    15   6 C        3.802    -0.069    21.816     6.650
    16   6 C        2.844     0.004    27.923     8.660
    17   7 N        2.729     0.007    21.130     6.827
    18   6 C        3.756    -0.016    20.909     6.520
    19   6 C        3.809    -0.072    21.864     6.656
    20   6 C        2.957     0.009    27.816     8.651
    21   6 C        2.921    -0.054    29.330     8.881
    22   6 C        2.901    -0.066    29.643     8.927
    23   6 C        2.854     0.129    25.165     8.222
    24   8 O        1.705    -0.234    17.883     5.710
    25   6 C        3.645     0.024    20.508     6.509
    26   6 C        3.737     0.094    19.106     6.238
    27   8 O        1.691    -0.175    16.943     5.557
    28   6 C        2.719     0.049    26.886     8.488
    29   6 C        2.911    -0.077    29.923     8.970
    30   6 C        3.699    -0.069    21.997     6.708
    31   6 C        3.853    -0.007    20.672     6.467
    32   6 C        3.756    -0.118    22.812     6.810
    33   6 C        3.755    -0.119    22.826     6.812
    34   1 H        0.926     0.051     2.312     2.378
    35   1 H        0.924     0.052     2.290     2.366
    36   1 H        0.925     0.079     1.985     2.203
    37   1 H        0.924     0.046     2.375     2.410
    38   1 H        0.924     0.053     2.278     2.360
    39   1 H        0.925     0.079     1.987     2.204
    40   1 H        0.924     0.046     2.368     2.406
    41   1 H        0.926     0.050     2.319     2.381
    42   1 H        0.926     0.038     2.479     2.462
    43   1 H        0.925     0.059     2.211     2.325
    44   1 H        0.924     0.052     2.289     2.366
    45   1 H        0.925     0.066     2.135     2.285
    46   1 H        0.923     0.077     2.012     2.218
    47   1 H        0.922     0.005     2.979     2.699
    48   1 H        0.926     0.067     2.119     2.276
    49   1 H        0.924     0.068     2.112     2.273
    50   1 H        0.924     0.068     2.108     2.270
    51   1 H        0.924     0.056     2.249     2.345
    52   1 H        0.924     0.054     2.266     2.354
    53   1 H        0.926     0.041     2.435     2.440
    54   1 H        0.926     0.056     2.247     2.344
    55   1 H        0.924     0.059     2.211     2.325
    56   1 H        0.924     0.059     2.211     2.325
    57   1 H        0.925     0.082     1.960     2.190
    58   1 H        0.924     0.066     2.128     2.281
    59   1 H        0.926     0.091     1.872     2.140
    60   1 H        0.926     0.068     2.104     2.268
    61   1 H        0.926     0.041     2.440     2.443
    62   1 H        0.924     0.074     2.038     2.233
    63   1 H        0.924     0.079     1.993     2.208
    64   1 H        0.925     0.079     1.993     2.208
    65   1 H        0.924     0.036     2.508     2.476
    66   1 H        0.925     0.067     2.116     2.275
    67   1 H        0.925     0.035     2.523     2.484
    68   1 H        0.925     0.049     2.326     2.385
    69   1 H        0.925     0.061     2.186     2.312
    70   1 H        0.925     0.034     2.535     2.490
    71   1 H        0.925     0.053     2.285     2.364
    72   1 H        0.860     0.154     1.372     1.835

Wiberg/Mayer (AO) data.
largest (>0.10) Wiberg bond orders for each atom

     #   Z sym  total        # sym  WBO       # sym  WBO       # sym  WBO
 ---------------------------------------------------------------------------
     1   7 N    3.037 --     2 C    1.954    72 H    0.943
     2   6 C    3.928 --     1 N    1.954     3 C    0.995    47 H    0.902
     3   6 C    3.977 --     2 C    0.995     4 C    0.970    14 C    0.956
                            31 C    0.944
     4   6 C    3.953 --    13 C    1.418     5 C    1.367     3 C    0.970
     5   6 C    3.965 --     6 C    1.404     4 C    1.367    34 H    0.958
     6   6 C    3.909 --     5 C    1.404     9 C    1.226     7 O    1.095
     7   8 O    2.253 --     6 C    1.095     8 C    0.979
     8   6 C    3.934 --     7 O    0.979    36 H    0.977    35 H    0.974
                            37 H    0.974
     9   6 C    3.906 --    12 C    1.395     6 C    1.226    10 O    1.096
    10   8 O    2.251 --     9 C    1.096    11 C    0.979
    11   6 C    3.933 --    10 O    0.979    39 H    0.977    40 H    0.974
                            38 H    0.974
    12   6 C    3.965 --    13 C    1.401     9 C    1.395    41 H    0.964
    13   6 C    3.958 --     4 C    1.418    12 C    1.401    42 H    0.963
    14   6 C    3.973 --    15 C    0.982    44 H    0.973    43 H    0.969
                             3 C    0.956
    15   6 C    3.987 --    16 C    1.059    14 C    0.982    45 H    0.961
                            46 H    0.928
    16   6 C    3.573 --    17 N    1.389    15 C    1.059    48 H    0.958
    17   7 N    3.465 --    16 C    1.389    30 C    0.999    18 C    0.989
    18   6 C    3.957 --    17 N    0.989    19 C    0.969    50 H    0.967
                            49 H    0.965
    19   6 C    3.975 --    20 C    1.003    52 H    0.973    51 H    0.970
                            18 C    0.969
    20   6 C    3.959 --    29 C    1.562    21 C    1.296    19 C    1.003
    21   6 C    3.690 --    22 C    1.348    20 C    1.296    53 H    0.970
    22   6 C    3.958 --    23 C    1.483    21 C    1.348    54 H    0.961
    23   6 C    3.702 --    22 C    1.483    24 O    1.111    26 C    0.999
    24   8 O    2.221 --    23 C    1.111    25 C    0.971
    25   6 C    3.927 --    57 H    0.977    56 H    0.973    55 H    0.973
                            24 O    0.971
    26   6 C    3.905 --    29 C    1.029    23 C    0.999    58 H    0.945
                            27 O    0.826
    27   8 O    2.211 --    28 C    1.316    26 C    0.826
    28   6 C    3.300 --    27 O    1.316    60 H    0.964    59 H    0.960
    29   6 C    3.714 --    20 C    1.562    26 C    1.029    61 H    0.968
    30   6 C    3.959 --    17 N    0.999    64 H    0.978    62 H    0.967
                            63 H    0.962
    31   6 C    3.975 --    33 C    1.009    32 C    1.008    65 H    0.961
                             3 C    0.944
    32   6 C    3.981 --    31 C    1.008    67 H    0.982    68 H    0.982
                            66 H    0.975
    33   6 C    3.984 --    31 C    1.009    70 H    0.983    71 H    0.981
                            69 H    0.977
    34   1 H    0.996 --     5 C    0.958
    35   1 H    0.994 --     8 C    0.974
    36   1 H    0.993 --     8 C    0.977
    37   1 H    0.995 --     8 C    0.974
    38   1 H    0.994 --    11 C    0.974
    39   1 H    0.993 --    11 C    0.977
    40   1 H    0.994 --    11 C    0.974
    41   1 H    0.996 --    12 C    0.964
    42   1 H    0.998 --    13 C    0.963
    43   1 H    0.995 --    14 C    0.969
    44   1 H    0.996 --    14 C    0.973
    45   1 H    0.995 --    15 C    0.961
    46   1 H    0.969 --    15 C    0.928
    47   1 H    0.988 --     2 C    0.902
    48   1 H    0.995 --    16 C    0.958
    49   1 H    0.992 --    18 C    0.965
    50   1 H    0.994 --    18 C    0.967
    51   1 H    0.996 --    19 C    0.970
    52   1 H    0.996 --    19 C    0.973
    53   1 H    0.998 --    21 C    0.970
    54   1 H    0.995 --    22 C    0.961
    55   1 H    0.990 --    25 C    0.973
    56   1 H    0.990 --    25 C    0.973
    57   1 H    0.993 --    25 C    0.977
    58   1 H    0.977 --    26 C    0.945
    59   1 H    0.986 --    28 C    0.960
    60   1 H    0.994 --    28 C    0.964
    61   1 H    0.997 --    29 C    0.968
    62   1 H    0.985 --    30 C    0.967
    63   1 H    0.987 --    30 C    0.962
    64   1 H    0.994 --    30 C    0.978
    65   1 H    0.993 --    31 C    0.961
    66   1 H    0.992 --    32 C    0.975
    67   1 H    0.997 --    32 C    0.982
    68   1 H    0.995 --    32 C    0.982
    69   1 H    0.994 --    33 C    0.977
    70   1 H    0.997 --    33 C    0.983
    71   1 H    0.994 --    33 C    0.981
    72   1 H    0.971 --     1 N    0.943
 ---------------------------------------------------------------------------

molecular dipole:
                 x           y           z       tot (Debye)
 q only:        2.150      -0.439      -0.625
   full:        2.672      -0.598      -0.711       7.192

           -------------------------------------------------
          | TOTAL ENERGY              -99.319569679806 Eh   |
          | GRADIENT NORM               0.006618846669 Eh/α |
          | HOMO-LUMO GAP               0.500733025693 eV   |
           -------------------------------------------------

 * finished run on 2024/04/06 at 11:16:45.764
