   * xtb version 6.6.1 (8d0f1dd) compiled by 'conda@1efc2f54142f' on 2023-08-01
          program call               : xtb struc.xyz --opt loose --input .xc1 --gfn2

   ID    Z sym.   atoms
    1    7 N      1, 17
    2    6 C      2-6, 8, 9, 11-16, 18-23, 25, 26, 28-33
    3    8 O      7, 10, 24, 27
    4    1 H      34-72
constraining bond 3 42 to    5.1400000 Å, actual value:    2.7644784 Å

          :  Hamiltonian                  GFN2-xTB          :
 * total energy  :   -98.3965368 Eh     change       -0.4035485E-08 Eh
 * total energy  :   -98.7364737 Eh     change       -0.3399368E+00 Eh
 * total energy  :   -98.9502140 Eh     change       -0.2137403E+00 Eh
 * total energy  :   -99.0595547 Eh     change       -0.1093407E+00 Eh
 * total energy  :   -99.1186956 Eh     change       -0.5914097E-01 Eh
 * total energy  :   -99.1505687 Eh     change       -0.3187312E-01 Eh
 * total energy  :   -99.1680892 Eh     change       -0.1752050E-01 Eh
 * total energy  :   -99.1784958 Eh     change       -0.1040660E-01 Eh
 * total energy  :   -99.1903418 Eh     change       -0.1184598E-01 Eh
 * total energy  :   -99.2052901 Eh     change       -0.1494826E-01 Eh
 * total energy  :   -99.3916783 Eh     change       -0.8295850E-04 Eh
 * total energy  :   -99.3917309 Eh     change       -0.5264229E-04 Eh
 * total energy  :   -99.3917965 Eh     change       -0.6558657E-04 Eh
 * total energy  :   -99.3918837 Eh     change       -0.8723302E-04 Eh
 * total energy  :   -99.3919697 Eh     change       -0.8590690E-04 Eh
 * total energy  :   -99.3920433 Eh     change       -0.7364708E-04 Eh
 * total energy  :   -99.3921093 Eh     change       -0.6600199E-04 Eh
 * total energy  :   -99.3921610 Eh     change       -0.5167923E-04 Eh
 * total energy  :   -99.3921984 Eh     change       -0.3739879E-04 Eh
   *** GEOMETRY OPTIMIZATION CONVERGED AFTER 119 ITERATIONS ***

 final structure:
================
72
 xtb: 6.6.1 (8d0f1dd)
N           -0.75313367140610        1.24021302422583        1.32197632753613
C           -1.24244523070956        1.34942445076255        0.17486424096871
C           -2.71224929610272        1.54485672972700       -0.10495089711966
C           -3.44929816719568        0.21159653466275       -0.00843341618285
C           -4.66941440775191        0.03795109419381       -0.66179178212059
C           -5.38791185406122       -1.14244003506110       -0.55556037315007
O           -6.56770981175368       -1.39375026093317       -1.15772270756671
C           -7.17095005439371       -0.39940298653007       -1.95138852837093
C           -4.88639550921210       -2.20021589570419        0.25074775603485
O           -5.65620721954166       -3.30281835096980        0.30480820868557
C           -5.28547210541123       -4.35649369873315        1.16323827967503
C           -3.68417035490673       -2.01269648615630        0.91491587335788
C           -2.97895849127092       -0.82504077941182        0.78630778483364
C           -2.69857815808591        2.07435880935023       -1.55599177868684
C           -1.54498774189467        1.34223836402266       -2.23250599403184
C           -0.46011856298352        1.34274392942859       -1.15129785645833
N            0.47382949401591        0.24590390322090       -1.24162297530062
C            1.76797128351746        0.46165351772577       -1.41750034665794
C            2.79610308988832       -0.59381890068459       -1.56550921292999
C            4.11792821050100       -0.15291576454365       -0.97657609857842
C            4.82333734677787        0.90148265836281       -1.53219478870737
C            6.02984134305747        1.31169785974785       -0.98601062707366
C            6.55685834812466        0.67127898158236        0.12648736573935
O            7.71511081534461        0.98166670209745        0.73563760604218
C            8.49678174923362        2.04033642576017        0.23065745712975
C            5.84277730109334       -0.41760568683682        0.69815671536197
O            6.42812721272531       -0.98914754675476        1.76828779343460
C            5.81348693486170       -2.09396962507752        2.38696953869396
C            4.63490636974528       -0.80695959781594        0.13771035764347
C           -0.05589960381730       -1.09375225453616       -1.12956255866654
C           -3.39264254470334        2.55496851179953        0.86964957200639
C           -3.67474120505269        1.93855031041904        2.23687413401573
C           -2.57204177465149        3.82781409715269        1.06785284858653
H           -5.09111498193848        0.84361837603588       -1.23897829531099
H           -7.39194550694453        0.50069627618256       -1.37013260472826
H           -8.10291200713206       -0.83644921625304       -2.30472269882301
H           -6.54653825522979       -0.13748542882293       -2.81156384797213
H           -5.21500456917869       -4.01953646829145        2.20206252352410
H           -6.07855421340325       -5.09608896768295        1.07691184954716
H           -4.33559086935970       -4.80679021168020        0.85932449313860
H           -3.28839899387273       -2.78701011117552        1.55132697007484
H            1.49652100080363       -0.54079239230580        2.00009079871935
H           -3.63497883255094        1.91452317182261       -2.08012034381607
H           -2.49890103649965        3.14527727883627       -1.55232282918189
H           -1.84297075677092        0.32332265968649       -2.48014857792749
H           -1.21431340843046        1.83571204629343       -3.14500901654091
H           -2.07286437097445       -0.70056381614077        1.35679465047459
H            0.10556504804623        2.28030666331519       -1.19834902629743
H            2.21083767541459       -0.46816617701917        1.69089842415975
H            2.09295283065465        1.48806830335375       -1.48313289957444
H            2.94408686265001       -0.78885503482419       -2.63709117889369
H            2.47836283353029       -1.53186042621219       -1.10910375052689
H            4.44421306084667        1.40622834257577       -2.40810256275747
H            6.55948414588632        2.13098264053144       -1.44310379573907
H            7.95994006922986        2.99201538829014        0.27974037592327
H            8.81180198769617        1.85038697599869       -0.79907961490522
H            9.37336066252091        2.08774177093461        0.87297126844023
H            6.48035271528446       -2.38211079230386        3.19713562349134
H            4.83509295816248       -1.83088450718013        2.80253787404995
H            5.70445771443689       -2.93345690224634        1.69371162428061
H            4.09551049202660       -1.64156304483160        0.55878118358732
H            0.08587848585160       -1.64514346776994       -2.06204330505607
H           -1.11828330769873       -1.05288874634542       -0.89486489810524
H            0.44662286345340       -1.63513396229576       -0.32518308471547
H           -4.34697631195666        2.82307134761619        0.40227596325715
H           -2.74859750360806        1.57931598582149        2.67595757481037
H           -4.37709590396755        1.11246483632747        2.16630930043496
H           -4.10164648401271        2.69254746511152        2.89349039451354
H           -1.65988310308620        3.60606367544128        1.61557624564117
H           -2.30991979399566        4.30762059700348        0.12810146054410
H           -3.15160617686200        4.53933677586442        1.65026310577265
H            0.25583684405751        1.14191058436976        1.39353355096598

          :  Hamiltonian                  GFN2-xTB          :
         :: total energy             -99.392198380046 Eh    ::
         :: gradient norm              0.002033573987 Eh/a0 ::
         :: HOMO-LUMO gap              1.641289508697 eV    ::
         :: SCC energy              -100.785130125644 Eh    ::
         :: -> dispersion             -0.076566588770 Eh    ::
         :: repulsion energy           1.391579787096 Eh    ::

    * Orbital Energies and Occupations

         #    Occupation            Energy/Eh            Energy/eV
      -------------------------------------------------------------
         1        2.0000           -0.8092995             -22.0222
       ...           ...                  ...                  ...
        78        1.9986           -0.5339549             -14.5297
        79        1.9985           -0.5326942             -14.4953
        80        1.9982           -0.5301253             -14.4254
        81        1.9973           -0.5237749             -14.2526
        82        1.9967           -0.5206103             -14.1665
        83        1.9963           -0.5186691             -14.1137
        84        1.9952           -0.5146701             -14.0049
        85        1.9941           -0.5114243             -13.9166
        86        1.9807           -0.4925128             -13.4020
        87        1.9768           -0.4895490             -13.3213
        88        1.9624           -0.4817812             -13.1099
        89        1.8512           -0.4590808             -12.4922
        90        1.8343           -0.4572337             -12.4420 (HOMO)
        91        0.3940           -0.3969174             -10.8007 (LUMO)
        92        0.0238           -0.3492004              -9.5022
        93        0.0030           -0.3160800              -8.6010
        94        0.0027           -0.3143521              -8.5540
        95        0.0026           -0.3140584              -8.5460
        96        0.0023           -0.3120530              -8.4914
        97        0.0000           -0.1906366              -5.1875
        98        0.0000           -0.1891955              -5.1483
        99                         -0.1359896              -3.7005
       100                         -0.0755305              -2.0553
       101                         -0.0674564              -1.8356
       ...                                ...                  ...
       171                          0.5724808              15.5780
      -------------------------------------------------------------
                  HL-Gap            0.0603163 Eh            1.6413 eV

     #   Z          covCN         q      C6AA      α(0)
     1   7 N        1.775    -0.299    28.575     7.916
     2   6 C        2.903     0.122    25.324     8.251
     3   6 C        3.920     0.004    20.444     6.426
     4   6 C        2.970     0.006    27.882     8.661
     5   6 C        2.920    -0.078    29.937     8.973
     6   6 C        2.862     0.132    25.110     8.214
     7   8 O        1.706    -0.225    17.739     5.686
     8   6 C        3.644     0.027    20.464     6.503
     9   6 C        2.864     0.132    25.117     8.215
    10   8 O        1.706    -0.224    17.709     5.682
    11   6 C        3.646     0.026    20.475     6.503
    12   6 C        2.913    -0.072    29.786     8.949
    13   6 C        2.922    -0.054    29.351     8.884
    14   6 C        3.843    -0.070    21.811     6.643
    15   6 C        3.822    -0.068    21.778     6.641
    16   6 C        3.825     0.006    20.464     6.437
    17   7 N        2.730     0.017    20.964     6.800
    18   6 C        2.848     0.008    27.836     8.647
    19   6 C        3.809    -0.069    21.819     6.649
    20   6 C        2.971     0.000    28.020     8.683
    21   6 C        2.921    -0.050    29.250     8.869
    22   6 C        2.914    -0.067    29.670     8.932
    23   6 C        2.864     0.134    25.075     8.208
    24   8 O        1.706    -0.221    17.675     5.676
    25   6 C        3.645     0.025    20.494     6.506
    26   6 C        2.863     0.134    25.078     8.208
    27   8 O        1.706    -0.224    17.710     5.682
    28   6 C        3.644     0.027    20.451     6.500
    29   6 C        2.919    -0.077    29.931     8.972
    30   6 C        3.701    -0.069    21.990     6.706
    31   6 C        3.851    -0.007    20.660     6.465
    32   6 C        3.756    -0.120    22.848     6.815
    33   6 C        3.756    -0.113    22.725     6.797
    34   1 H        0.926     0.053     2.282     2.362
    35   1 H        0.924     0.054     2.270     2.356
    36   1 H        0.925     0.082     1.955     2.186
    37   1 H        0.924     0.050     2.322     2.383
    38   1 H        0.924     0.056     2.250     2.346
    39   1 H        0.925     0.082     1.956     2.187
    40   1 H        0.924     0.052     2.300     2.372
    41   1 H        0.926     0.054     2.269     2.355
    42   1 H        0.798     0.006     3.020     2.731
    43   1 H        0.925     0.056     2.245     2.343
    44   1 H        0.925     0.052     2.292     2.368
    45   1 H        0.925     0.051     2.310     2.377
    46   1 H        0.925     0.053     2.287     2.365
    47   1 H        0.926     0.055     2.263     2.353
    48   1 H        0.924     0.068     2.113     2.273
    49   1 H        0.798    -0.003     3.179     2.802
    50   1 H        0.926     0.072     2.060     2.244
    51   1 H        0.923     0.089     1.888     2.149
    52   1 H        0.924     0.069     2.094     2.263
    53   1 H        0.926     0.046     2.374     2.410
    54   1 H        0.926     0.059     2.206     2.322
    55   1 H        0.924     0.055     2.263     2.352
    56   1 H        0.924     0.056     2.243     2.342
    57   1 H        0.925     0.083     1.948     2.182
    58   1 H        0.925     0.083     1.953     2.185
    59   1 H        0.924     0.049     2.328     2.386
    60   1 H        0.924     0.052     2.291     2.367
    61   1 H        0.926     0.048     2.346     2.395
    62   1 H        0.924     0.078     1.997     2.210
    63   1 H        0.925     0.086     1.915     2.164
    64   1 H        0.924     0.077     2.009     2.217
    65   1 H        0.924     0.042     2.418     2.432
    66   1 H        0.925     0.067     2.124     2.279
    67   1 H        0.925     0.039     2.459     2.452
    68   1 H        0.925     0.053     2.282     2.362
    69   1 H        0.925     0.050     2.322     2.383
    70   1 H        0.925     0.032     2.554     2.499
    71   1 H        0.925     0.054     2.266     2.354
    72   1 H        0.860     0.149     1.406     1.857

Wiberg/Mayer (AO) data.
largest (>0.10) Wiberg bond orders for each atom

     #   Z sym  total        # sym  WBO       # sym  WBO       # sym  WBO
 ---------------------------------------------------------------------------
     1   7 N    3.030 --     2 C    1.914    72 H    0.936
     2   6 C    3.921 --     1 N    1.914     3 C    0.985    16 C    0.923
     3   6 C    3.977 --     2 C    0.985    14 C    0.975     4 C    0.960
                            31 C    0.934
     4   6 C    3.939 --    13 C    1.402     5 C    1.377     3 C    0.960
     5   6 C    3.958 --     6 C    1.394     4 C    1.377    34 H    0.954
     6   6 C    3.896 --     5 C    1.394     9 C    1.219     7 O    1.104
     7   8 O    2.253 --     6 C    1.104     8 C    0.978
     8   6 C    3.931 --     7 O    0.978    36 H    0.976    37 H    0.973
                            35 H    0.973
     9   6 C    3.893 --    12 C    1.385     6 C    1.219    10 O    1.107
    10   8 O    2.252 --     9 C    1.107    11 C    0.976
    11   6 C    3.929 --    39 H    0.977    10 O    0.976    38 H    0.973
                            40 H    0.973
    12   6 C    3.959 --    13 C    1.412     9 C    1.385    41 H    0.963
    13   6 C    3.945 --    12 C    1.412     4 C    1.402    47 H    0.960
    14   6 C    3.988 --    15 C    1.004     3 C    0.975    44 H    0.969
                            43 H    0.967
    15   6 C    3.980 --    14 C    1.004    46 H    0.976    16 C    0.976
                            45 H    0.972
    16   6 C    3.946 --    17 N    0.980    15 C    0.976    48 H    0.945
                             2 C    0.923
    17   7 N    3.492 --    18 C    1.426    30 C    0.996    16 C    0.980
    18   6 C    3.580 --    17 N    1.426    19 C    1.054    50 H    0.957
    19   6 C    3.986 --    18 C    1.054    20 C    0.987    52 H    0.956
                            51 H    0.914
    20   6 C    3.938 --    21 C    1.411    29 C    1.386    19 C    0.987
    21   6 C    3.953 --    22 C    1.417    20 C    1.411    53 H    0.968
    22   6 C    3.961 --    21 C    1.417    23 C    1.383    54 H    0.963
    23   6 C    3.899 --    22 C    1.383    26 C    1.222    24 O    1.112
    24   8 O    2.258 --    23 C    1.112    25 C    0.975
    25   6 C    3.928 --    57 H    0.977    24 O    0.975    55 H    0.973
                            56 H    0.973
    26   6 C    3.900 --    29 C    1.388    23 C    1.222    27 O    1.106
    27   8 O    2.258 --    26 C    1.106    28 C    0.978
    28   6 C    3.931 --    27 O    0.978    58 H    0.977    60 H    0.973
                            59 H    0.973
    29   6 C    3.960 --    26 C    1.388    20 C    1.386    61 H    0.959
    30   6 C    3.954 --    17 N    0.996    62 H    0.967    63 H    0.967
                            64 H    0.963
    31   6 C    3.976 --    32 C    1.010    33 C    1.009    65 H    0.962
                             3 C    0.934
    32   6 C    3.982 --    31 C    1.010    67 H    0.982    68 H    0.981
                            66 H    0.977
    33   6 C    3.987 --    31 C    1.009    69 H    0.982    71 H    0.981
                            70 H    0.979
    34   1 H    0.996 --     5 C    0.954
    35   1 H    0.992 --     8 C    0.973
    36   1 H    0.992 --     8 C    0.976
    37   1 H    0.993 --     8 C    0.973
    38   1 H    0.992 --    11 C    0.973
    39   1 H    0.992 --    11 C    0.977
    40   1 H    0.992 --    11 C    0.973
    41   1 H    0.995 --    12 C    0.963
    42   1 H    0.999 --    49 H    0.988
    43   1 H    0.995 --    14 C    0.967
    44   1 H    0.996 --    14 C    0.969
    45   1 H    0.997 --    15 C    0.972
    46   1 H    0.996 --    15 C    0.976
    47   1 H    0.996 --    13 C    0.960
    48   1 H    0.994 --    16 C    0.945
    49   1 H    0.999 --    42 H    0.988
    50   1 H    0.995 --    18 C    0.957
    51   1 H    0.962 --    19 C    0.914
    52   1 H    0.991 --    19 C    0.956
    53   1 H    0.997 --    21 C    0.968
    54   1 H    0.995 --    22 C    0.963
    55   1 H    0.992 --    25 C    0.973
    56   1 H    0.992 --    25 C    0.973
    57   1 H    0.992 --    25 C    0.977
    58   1 H    0.992 --    28 C    0.977
    59   1 H    0.993 --    28 C    0.973
    60   1 H    0.993 --    28 C    0.973
    61   1 H    0.996 --    29 C    0.959
    62   1 H    0.985 --    30 C    0.967
    63   1 H    0.992 --    30 C    0.967
    64   1 H    0.987 --    30 C    0.963
    65   1 H    0.994 --    31 C    0.962
    66   1 H    0.993 --    32 C    0.977
    67   1 H    0.996 --    32 C    0.982
    68   1 H    0.995 --    32 C    0.981
    69   1 H    0.996 --    33 C    0.982
    70   1 H    0.998 --    33 C    0.979
    71   1 H    0.995 --    33 C    0.981
    72   1 H    0.974 --     1 N    0.936
 ---------------------------------------------------------------------------

molecular dipole:
                 x           y           z       tot (Debye)
 q only:        0.463      -0.099      -1.239
   full:        0.761      -0.005      -1.707       4.750

           -------------------------------------------------
          | TOTAL ENERGY              -99.392198380046 Eh   |
          | GRADIENT NORM               0.002033573987 Eh/α |
          | HOMO-LUMO GAP               1.641289508697 eV   |
           -------------------------------------------------

 * finished run on 2024/04/06 at 11:12:09.247
