   * xtb version 6.6.1 (8d0f1dd) compiled by 'conda@1efc2f54142f' on 2023-08-01
          program call               : xtb xtbopt.xyz --opt crude --input .xc2 --gfn2

   ID    Z sym.   atoms
    1    6 C      1, 3, 5-7, 10, 11, 14
    2    7 N      2, 4, 9, 13
    3    8 O      8, 12
    4    1 H      15-25

          :  Hamiltonian                  GFN2-xTB          :
 * total energy  :   -42.1082311 Eh     change       -0.3552714E-13 Eh
   *** GEOMETRY OPTIMIZATION CONVERGED AFTER 1 ITERATIONS ***

 final structure:
================
25
 xtb: 6.6.1 (8d0f1dd)
C            3.10811910221055        0.99841108764578       -0.21468037222186
N            2.22672190223944        0.00564358177089       -0.15731654725774
C            2.47493839920280       -1.32383960464492       -0.17323749043467
N            1.30235003092327       -2.01376349450291       -0.11298842084109
C            0.28306674897255       -1.11539397793734       -0.05875519047308
C            0.84344567371517        0.15064068864261       -0.08065948344217
C            0.03471427745281        1.34729065218510       -0.05671029044804
O            0.44690377500341        2.48193454477976       -0.07506798478776
N           -1.32658551907975        1.03358488422237       -0.00890003990987
C           -2.27027091636714        2.14228501950614        0.00237177634489
C           -1.90967740805303       -0.21893701460911        0.01644462308285
O           -3.09792809340346       -0.37562520107985        0.05324676066544
N           -1.04011649534607       -1.33295763009501       -0.00458757896080
C           -1.60749878185271       -2.66590905145401        0.02312834799168
H            4.93906566933325        2.45408630563499        1.61228343971938
H            4.15575930659394        0.77374193796614       -0.29291962836047
H            2.74152406622740        2.00822473053941       -0.21135692785456
H            3.44581414248251       -1.77103278125680       -0.21985583301369
H           -1.70435693556252        3.07037585786939        0.02030509822016
H           -2.89936245099486        2.10017642113895       -0.88704503556698
H           -2.91344230171606        2.07084893509751        0.87926163441570
H           -1.28368966204197       -3.20087522964717        0.91635667158556
H           -1.32333832064704       -3.22118384856108       -0.87127053327404
H           -2.69162062443419       -2.55971059657053        0.04510086982494
H            1.22589592924135       -3.01977767503973       -0.11197624710351

          :  Hamiltonian                  GFN2-xTB          :
         :: total energy             -42.108231078933 Eh    ::
         :: gradient norm              0.002761370969 Eh/a0 ::
         :: HOMO-LUMO gap              0.357656117966 eV    ::
         :: SCC energy               -42.631771307405 Eh    ::
         :: -> dispersion             -0.022753087772 Eh    ::
         :: repulsion energy           0.523444762766 Eh    ::

    * Orbital Energies and Occupations

         #    Occupation            Energy/Eh            Energy/eV
      -------------------------------------------------------------
         1        2.0000           -0.9111972             -24.7949
       ...           ...                  ...                  ...
        25        1.9999           -0.6681843             -18.1822
        26        1.9999           -0.6680708             -18.1791
        27        1.9999           -0.6588377             -17.9279
        28        1.9995           -0.6370456             -17.3349
        29        1.9994           -0.6326685             -17.2158
        30        1.9991           -0.6272318             -17.0678
        31        1.9986           -0.6194955             -16.8573
        32        1.9953           -0.6005580             -16.3420
        33        1.9847           -0.5816424             -15.8273
        34        1.9559           -0.5646983             -15.3662
        35        1.9499           -0.5626221             -15.3097
        36        1.9442           -0.5608638             -15.2619
        37        1.2856           -0.5139481             -13.9852 (HOMO)
        38        0.8793           -0.5008045             -13.6276 (LUMO)
        39        0.0055           -0.4112236             -11.1900
        40        0.0031           -0.4020086             -10.9392
        41        0.0004           -0.3686947             -10.0327
        42        0.0000           -0.2869105              -7.8072
        43                         -0.2071385              -5.6365
        44                         -0.1862836              -5.0690
        45                         -0.1444547              -3.9308
        46                         -0.1158145              -3.1515
        47                         -0.0822788              -2.2389
        48                         -0.0499090              -1.3581
       ...                                ...                  ...
        67                          0.5547144              15.0945
      -------------------------------------------------------------
                  HL-Gap            0.0131436 Eh            0.3577 eV

     #   Z          covCN         q      C6AA      α(0)
     1   6 C        2.790    -0.070    29.726     8.931
     2   7 N        2.809     0.130    19.027     6.479
     3   6 C        3.038     0.026    27.392     8.584
     4   7 N        2.780    -0.059    22.370     7.025
     5   6 C        3.022     0.120    25.345     8.258
     6   6 C        3.110    -0.038    28.789     8.790
     7   6 C        2.764     0.275    22.353     7.743
     8   8 O        0.858    -0.356    20.824     6.118
     9   7 N        2.746    -0.081    22.815     7.094
    10   6 C        3.710    -0.062    21.838     6.679
    11   6 C        2.728     0.318    21.594     7.608
    12   8 O        0.860    -0.350    20.701     6.100
    13   7 N        2.738    -0.053    22.264     7.008
    14   6 C        3.696    -0.073    22.074     6.721
    15   1 H        0.000     0.052     5.734     4.378
    16   1 H        0.926     0.109     1.708     2.043
    17   1 H        0.926     0.139     1.466     1.893
    18   1 H        0.927     0.122     1.600     1.978
    19   1 H        0.925     0.116     1.644     2.005
    20   1 H        0.924     0.103     1.760     2.075
    21   1 H        0.925     0.104     1.747     2.067
    22   1 H        0.924     0.086     1.917     2.165
    23   1 H        0.924     0.085     1.927     2.171
    24   1 H        0.925     0.129     1.541     1.941
    25   1 H        0.860     0.228     0.973     1.545

Wiberg/Mayer (AO) data.
largest (>0.10) Wiberg bond orders for each atom

     #   Z sym  total        # sym  WBO       # sym  WBO       # sym  WBO
 ---------------------------------------------------------------------------
     1   6 C    3.411 --     2 N    1.329    16 H    0.965    17 H    0.956
     2   7 N    3.764 --     1 C    1.329     3 C    1.248     6 C    1.089
     3   6 C    3.644 --     2 N    1.248     4 N    1.240    18 H    0.955
     4   7 N    3.527 --     3 C    1.240     5 C    1.194    25 H    0.920
     5   6 C    3.939 --     6 C    1.349    13 N    1.219     4 N    1.194
     6   6 C    3.846 --     5 C    1.349     2 N    1.089     7 C    1.085
     7   6 C    3.959 --     8 O    1.688     9 N    1.092     6 C    1.085
     8   8 O    2.021 --     7 C    1.688     9 N    0.139
     9   7 N    3.531 --    11 C    1.127     7 C    1.092    10 C    0.972
                             8 O    0.139    12 O    0.134
    10   6 C    3.898 --     9 N    0.972    19 H    0.965    21 H    0.958
                            20 H    0.957
    11   6 C    3.958 --    12 O    1.706     9 N    1.127    13 N    1.034
    12   8 O    2.046 --    11 C    1.706     9 N    0.134    13 N    0.118
    13   7 N    3.532 --     5 C    1.219    11 C    1.034    14 C    0.975
                            12 O    0.118
    14   6 C    3.919 --    13 N    0.975    23 H    0.968    22 H    0.968
                            24 H    0.963
    15   1 H    0.027
    16   1 H    0.987 --     1 C    0.965
    17   1 H    0.980 --     1 C    0.956
    18   1 H    0.984 --     3 C    0.955
    19   1 H    0.983 --    10 C    0.965
    20   1 H    0.976 --    10 C    0.957
    21   1 H    0.977 --    10 C    0.958
    22   1 H    0.986 --    14 C    0.968
    23   1 H    0.986 --    14 C    0.968
    24   1 H    0.982 --    14 C    0.963
    25   1 H    0.947 --     4 N    0.920
 ---------------------------------------------------------------------------

molecular dipole:
                 x           y           z       tot (Debye)
 q only:        2.315      -1.956      -0.052
   full:        2.595      -2.426      -0.065       9.031

           -------------------------------------------------
          | TOTAL ENERGY              -42.108231078933 Eh   |
          | GRADIENT NORM               0.002761370969 Eh/α |
          | HOMO-LUMO GAP               0.357656117966 eV   |
           -------------------------------------------------

 * finished run on 2024/06/05 at 19:57:50.089
