   * xtb version 6.6.1 (8d0f1dd) compiled by 'conda@1efc2f54142f' on 2023-08-01
          program call               : xtb struc.xyz --opt loose --input .xc1 --gfn2

   ID    Z sym.   atoms
    1    7 N      1, 17
    2    6 C      2-6, 8, 9, 11-16, 18-23, 25, 26, 28-33
    3    8 O      7, 10, 24, 27
    4    1 H      34-72
constraining bond 4 47 to    3.7133300 Å, actual value:    2.8390517 Å

          :  Hamiltonian                  GFN2-xTB          :
 * total energy  :   -99.5406103 Eh     change       -0.4035485E-08 Eh
 * total energy  :   -99.7703432 Eh     change       -0.2297329E+00 Eh
 * total energy  :  -100.0769892 Eh     change       -0.3066460E+00 Eh
 * total energy  :  -100.4889419 Eh     change       -0.4119528E+00 Eh
 * total energy  :   -98.2910112 Eh     change        0.2197931E+01 Eh
 * total energy  :  -100.5916693 Eh     change       -0.2300658E+01 Eh
 * total energy  :  -100.6535811 Eh     change       -0.6191172E-01 Eh
 * total energy  :  -100.6839175 Eh     change       -0.3033639E-01 Eh
 * total energy  :  -100.6947512 Eh     change       -0.1083372E-01 Eh
 * total energy  :  -100.7010665 Eh     change       -0.6315334E-02 Eh
 * total energy  :  -100.8361596 Eh     change       -0.1743857E-03 Eh
 * total energy  :  -100.8363229 Eh     change       -0.1633015E-03 Eh
 * total energy  :  -100.8364256 Eh     change       -0.1027287E-03 Eh
 * total energy  :  -100.8365542 Eh     change       -0.1285762E-03 Eh
 * total energy  :  -100.8366562 Eh     change       -0.1019571E-03 Eh
 * total energy  :  -100.8367279 Eh     change       -0.7172651E-04 Eh
 * total energy  :  -100.8368021 Eh     change       -0.7420053E-04 Eh
 * total energy  :  -100.8368588 Eh     change       -0.5665351E-04 Eh
 * total energy  :  -100.8369051 Eh     change       -0.4631131E-04 Eh
   *** GEOMETRY OPTIMIZATION CONVERGED AFTER 67 ITERATIONS ***

 final structure:
================
72
 xtb: 6.6.1 (8d0f1dd)
N           -1.58974952353662        0.82149263474515        2.07016097003281
C           -1.46209028318791        0.94144412485430        0.82886525670660
C           -2.62520403162714        0.93363063619211       -0.13334668955107
C           -3.23186177805487       -0.55432596321661       -0.21603353183735
C           -4.47493787490645       -0.55078662636237       -1.05754407966250
C           -5.62841965774745       -1.17783471254757       -0.71168972384531
O           -6.75616165438697       -1.22540168265487       -1.44976262398227
C           -6.80994123334356       -0.52898563158059       -2.67363595557160
C           -5.73014139304661       -1.87491593904084        0.54539978425484
O           -6.88280404291922       -2.49771179633664        0.76131894112197
C           -7.10153495308614       -3.18614194959954        1.97266279045626
C           -4.64486821168333       -1.81287626704036        1.43796564839250
C           -3.49745559056147       -1.16194146471392        1.12200448701729
C           -1.95990584964046        1.20953285848099       -1.49954618165905
C           -0.52443198408353        0.70702530222328       -1.37189504234118
C           -0.14388689778927        1.09305974161855        0.06744015375921
N            0.91416301933532        0.37152590929776        0.71981896934579
C            2.25296890649789        0.88832941878695        0.61356382013546
C            2.88240105632567        0.79866337160256       -0.79992542602472
C            4.37804777250420        0.80682929809250       -0.71166602895311
C            5.11832409015882        1.95465914468880       -0.95401954869454
C            6.50065401410822        1.94276886029698       -0.85446290249089
C            7.17546301961510        0.78230811361304       -0.49927160539350
O            8.50765377892197        0.65219319003386       -0.37765607541970
C            9.33864198493064        1.75684830331556       -0.65005361937983
C            6.42410479494402       -0.39824204562097       -0.23349073456072
O            7.15218622396994       -1.47762391938402        0.11080476590304
C            6.49531701561372       -2.68887691654112        0.39804103949704
C            5.04403024970063       -0.36195662542539       -0.34668501377481
C            0.80727627505034       -1.06614379048955        0.74273636885188
C           -3.68436346523424        2.00353645332496        0.22776811707778
C           -4.53530370391995        1.62297477856484        1.43474815099477
C           -3.03411758520907        3.36001709957480        0.51257049347053
H           -4.40919097549158       -0.05550966337412       -2.01147989765763
H           -6.64292005946442        0.54220182456173       -2.52966775220740
H           -7.81588477157814       -0.68961653924386       -3.05461019780487
H           -6.08522161863017       -0.92177938686777       -3.39261801311550
H           -7.05780452985788       -2.50874615958006        2.82937299213917
H           -8.10177368975000       -3.60322099061622        1.89265665372850
H           -6.37834426283804       -3.99361517615329        2.10837216430923
H           -4.73566798296240       -2.27414312689325        2.40815806607313
H           -2.70538752188918       -1.10074237738435        1.85098518878112
H           -2.47675468181332        0.72431613302998       -2.32438006136644
H           -1.95488462109006        2.27911198675361       -1.70391540987738
H           -0.48620416055880       -0.37693269240236       -1.48953288455547
H            0.13552605479142        1.15531915653326       -2.11164226258603
H           -2.66312766994414       -0.96121607487628       -0.57510077534613
H            0.11723134070693        2.15768087322967        0.09632582987329
H            2.87540491429354        0.32187300614635        1.31041684502227
H            2.25136690037434        1.93164998022514        0.93909670252141
H            2.53533870408698        1.63146322861762       -1.41116404469382
H            2.55661307863613       -0.13237901196646       -1.26750260180843
H            4.61889051859159        2.86937331876681       -1.23309051926901
H            7.04917661288648        2.84804160993764       -1.05753454317398
H            9.14105262369392        2.58584053353793        0.03577276827428
H            9.22143401429298        2.10009792585594       -1.68205615441424
H           10.35562738926058        1.39958540293987       -0.50122440088089
H            7.28215518916056       -3.39516880744990        0.65641013268366
H            5.81200413675308       -2.58286194097707        1.24678695157418
H            5.94501467036532       -3.06263734253589       -0.47111747248340
H            4.46543751679767       -1.25356663532457       -0.16104915551106
H            1.14534483459946       -1.54372853378211       -0.18655082142250
H           -0.22702580906280       -1.35341891137275        0.92256716324736
H            1.41885828497865       -1.44950948398912        1.56057585450108
H           -4.33685171383394        2.10813522839482       -0.64647603012787
H           -3.89223393007781        1.33066634770435        2.25998385833006
H           -5.21627023387101        0.81085949238599        1.20324487929323
H           -5.12775322659925        2.48004398674820        1.74408492342341
H           -2.48227370179695        3.32179602472674        1.44860079423957
H           -2.35801108436927        3.67679669607452       -0.27759414740689
H           -3.80818375546474        4.11712353825550        0.60674628492124
H           -0.73224367402555        0.84788217414008        2.61422896148477

          :  Hamiltonian                  GFN2-xTB          :
         :: total energy            -100.836905074585 Eh    ::
         :: gradient norm              0.003039238559 Eh/a0 ::
         :: HOMO-LUMO gap              1.160103079065 eV    ::
         :: SCC energy              -100.786952531649 Eh    ::
         :: -> dispersion             -0.077255962799 Eh    ::
         :: repulsion energy           1.479164023775 Eh    ::

    * Orbital Energies and Occupations

         #    Occupation            Energy/Eh            Energy/eV
      -------------------------------------------------------------
         1        2.0000           -0.8290304             -22.5591
       ...           ...                  ...                  ...
        78        1.9983           -0.5342769             -14.5384
        79        1.9979           -0.5311056             -14.4521
        80        1.9974           -0.5273138             -14.3489
        81        1.9971           -0.5259624             -14.3122
        82        1.9960           -0.5207881             -14.1714
        83        1.9954           -0.5184827             -14.1086
        84        1.9952           -0.5178038             -14.0902
        85        1.9927           -0.5112470             -13.9117
        86        1.9677           -0.4874603             -13.2645
        87        1.9631           -0.4853241             -13.2063
        88        1.9499           -0.4803678             -13.0715
        89        1.8433           -0.4614237             -12.5560
        90        1.7178           -0.4509904             -12.2721 (HOMO)
        91        0.5838           -0.4083573             -11.1120 (LUMO)
        92        0.0096           -0.3378846              -9.1943
        93        0.0030           -0.3195414              -8.6952
        94        0.0017           -0.3107914              -8.4571
        95        0.0014           -0.3077916              -8.3754
        96        0.0000           -0.2348295              -6.3900
        97        0.0000           -0.1856713              -5.0524
        98                         -0.0999418              -2.7196
        99                         -0.0855549              -2.3281
       100                         -0.0787759              -2.1436
       101                         -0.0681386              -1.8541
       ...                                ...                  ...
       171                          1.1146436              30.3310
      -------------------------------------------------------------
                  HL-Gap            0.0426330 Eh            1.1601 eV

     #   Z          covCN         q      C6AA      α(0)
     1   7 N        1.775    -0.300    28.588     7.918
     2   6 C        2.902     0.119    25.389     8.262
     3   6 C        3.906     0.007    20.400     6.420
     4   6 C        3.857    -0.045    21.340     6.570
     5   6 C        2.904    -0.079    29.964     8.975
     6   6 C        2.848     0.135    25.047     8.202
     7   8 O        1.706    -0.233    17.865     5.707
     8   6 C        3.644     0.025    20.498     6.508
     9   6 C        2.864     0.144    24.865     8.174
    10   8 O        1.706    -0.187    17.127     5.588
    11   6 C        3.646     0.017    20.621     6.526
    12   6 C        2.898    -0.062    29.542     8.912
    13   6 C        2.905    -0.031    28.767     8.794
    14   6 C        3.835    -0.073    21.875     6.654
    15   6 C        3.823    -0.068    21.783     6.642
    16   6 C        3.817     0.020    20.227     6.401
    17   7 N        2.728    -0.123    23.678     7.227
    18   6 C        3.749    -0.002    20.677     6.485
    19   6 C        3.806    -0.070    21.826     6.651
    20   6 C        2.968     0.008    27.846     8.656
    21   6 C        2.921    -0.044    29.083     8.844
    22   6 C        2.913    -0.065    29.618     8.924
    23   6 C        2.864     0.135    25.044     8.203
    24   8 O        1.706    -0.216    17.591     5.663
    25   6 C        3.645     0.024    20.510     6.509
    26   6 C        2.862     0.135    25.055     8.205
    27   8 O        1.706    -0.221    17.660     5.674
    28   6 C        3.645     0.027    20.459     6.501
    29   6 C        2.920    -0.078    29.936     8.972
    30   6 C        3.699    -0.040    21.462     6.626
    31   6 C        3.850    -0.008    20.693     6.470
    32   6 C        3.757    -0.123    22.915     6.825
    33   6 C        3.757    -0.112    22.701     6.793
    34   1 H        0.926     0.058     2.219     2.330
    35   1 H        0.924     0.052     2.292     2.367
    36   1 H        0.925     0.085     1.933     2.174
    37   1 H        0.924     0.052     2.297     2.370
    38   1 H        0.924     0.067     2.123     2.279
    39   1 H        0.925     0.091     1.865     2.136
    40   1 H        0.924     0.065     2.141     2.288
    41   1 H        0.926     0.068     2.113     2.273
    42   1 H        0.926     0.075     2.031     2.229
    43   1 H        0.925     0.048     2.347     2.396
    44   1 H        0.925     0.053     2.281     2.362
    45   1 H        0.924     0.039     2.468     2.457
    46   1 H        0.925     0.046     2.374     2.410
    47   1 H        0.931     0.132     1.522     1.929
    48   1 H        0.924     0.061     2.186     2.312
    49   1 H        0.924     0.054     2.268     2.355
    50   1 H        0.924     0.050     2.316     2.380
    51   1 H        0.925     0.046     2.367     2.406
    52   1 H        0.924     0.050     2.320     2.382
    53   1 H        0.926     0.052     2.292     2.367
    54   1 H        0.926     0.061     2.190     2.314
    55   1 H        0.924     0.058     2.224     2.332
    56   1 H        0.924     0.058     2.221     2.331
    57   1 H        0.925     0.084     1.940     2.178
    58   1 H        0.925     0.083     1.952     2.185
    59   1 H        0.924     0.051     2.304     2.374
    60   1 H        0.924     0.054     2.275     2.359
    61   1 H        0.926     0.050     2.316     2.380
    62   1 H        0.923     0.036     2.498     2.472
    63   1 H        0.925     0.051     2.313     2.378
    64   1 H        0.924     0.056     2.246     2.344
    65   1 H        0.924     0.040     2.451     2.448
    66   1 H        0.925     0.069     2.097     2.264
    67   1 H        0.925     0.036     2.501     2.473
    68   1 H        0.925     0.056     2.252     2.347
    69   1 H        0.925     0.048     2.344     2.394
    70   1 H        0.925     0.035     2.521     2.483
    71   1 H        0.925     0.053     2.281     2.362
    72   1 H        0.860     0.164     1.312     1.794

Wiberg/Mayer (AO) data.
largest (>0.10) Wiberg bond orders for each atom

     #   Z sym  total        # sym  WBO       # sym  WBO       # sym  WBO
 ---------------------------------------------------------------------------
     1   7 N    3.005 --     2 C    1.902    72 H    0.934
     2   6 C    3.926 --     1 N    1.902     3 C    0.988    16 C    0.940
     3   6 C    3.925 --     2 C    0.988    14 C    0.985    31 C    0.960
                             4 C    0.863
     4   6 C    3.975 --    13 C    1.049     5 C    1.034    47 H    0.916
                             3 C    0.863
     5   6 C    3.802 --     6 C    1.568     4 C    1.034    34 H    0.957
                             7 O    0.106
     6   6 C    3.932 --     5 C    1.568     9 C    1.135     7 O    1.095
     7   8 O    2.260 --     6 C    1.095     8 C    0.976     5 C    0.106
     8   6 C    3.930 --    36 H    0.976     7 O    0.976    35 H    0.974
                            37 H    0.974
     9   6 C    3.700 --    12 C    1.267    10 O    1.173     6 C    1.135
    10   8 O    2.286 --     9 C    1.173    11 C    0.967
    11   6 C    3.919 --    39 H    0.976    40 H    0.971    38 H    0.970
                            10 O    0.967
    12   6 C    3.977 --    13 C    1.613     9 C    1.267    41 H    0.958
    13   6 C    3.749 --    12 C    1.613     4 C    1.049    42 H    0.956
    14   6 C    3.990 --    15 C    1.006     3 C    0.985    43 H    0.970
                            44 H    0.967
    15   6 C    3.972 --    14 C    1.006    46 H    0.975    45 H    0.974
                            16 C    0.965
    16   6 C    3.954 --    17 N    1.010    15 C    0.965     2 C    0.940
                            48 H    0.939
    17   7 N    3.142 --    30 C    1.016    18 C    1.014    16 C    1.010
    18   6 C    3.963 --    17 N    1.014    50 H    0.969    49 H    0.967
                            19 C    0.955
    19   6 C    3.970 --    20 C    1.018    51 H    0.975    52 H    0.964
                            18 C    0.955
    20   6 C    3.926 --    21 C    1.395    29 C    1.375    19 C    1.018
    21   6 C    3.929 --    22 C    1.422    20 C    1.395    53 H    0.967
    22   6 C    3.949 --    21 C    1.422    23 C    1.376    54 H    0.962
    23   6 C    3.873 --    22 C    1.376    26 C    1.208    24 O    1.116
    24   8 O    2.247 --    23 C    1.116    25 C    0.975
    25   6 C    3.925 --    57 H    0.976    24 O    0.975    56 H    0.971
                            55 H    0.971
    26   6 C    3.882 --    29 C    1.395    23 C    1.208    27 O    1.108
    27   8 O    2.248 --    26 C    1.108    28 C    0.978
    28   6 C    3.930 --    27 O    0.978    58 H    0.977    59 H    0.973
                            60 H    0.972
    29   6 C    3.950 --    26 C    1.395    20 C    1.375    61 H    0.962
    30   6 C    3.973 --    17 N    1.016    63 H    0.978    64 H    0.976
                            62 H    0.962
    31   6 C    3.982 --    32 C    1.009    33 C    1.004    65 H    0.961
                             3 C    0.960
    32   6 C    3.981 --    31 C    1.009    67 H    0.980    68 H    0.979
                            66 H    0.973
    33   6 C    3.986 --    31 C    1.004    69 H    0.983    71 H    0.982
                            70 H    0.978
    34   1 H    0.995 --     5 C    0.957
    35   1 H    0.995 --     8 C    0.974
    36   1 H    0.992 --     8 C    0.976
    37   1 H    0.995 --     8 C    0.974
    38   1 H    0.989 --    11 C    0.970
    39   1 H    0.991 --    11 C    0.976
    40   1 H    0.989 --    11 C    0.971
    41   1 H    0.994 --    12 C    0.958
    42   1 H    0.994 --    13 C    0.956
    43   1 H    0.995 --    14 C    0.970
    44   1 H    0.995 --    14 C    0.967
    45   1 H    0.998 --    15 C    0.974
    46   1 H    0.995 --    15 C    0.975
    47   1 H    0.961 --     4 C    0.916
    48   1 H    0.994 --    16 C    0.939
    49   1 H    0.994 --    18 C    0.967
    50   1 H    0.993 --    18 C    0.969
    51   1 H    0.996 --    19 C    0.975
    52   1 H    0.994 --    19 C    0.964
    53   1 H    0.996 --    21 C    0.967
    54   1 H    0.994 --    22 C    0.962
    55   1 H    0.989 --    25 C    0.971
    56   1 H    0.989 --    25 C    0.971
    57   1 H    0.992 --    25 C    0.976
    58   1 H    0.992 --    28 C    0.977
    59   1 H    0.991 --    28 C    0.973
    60   1 H    0.991 --    28 C    0.972
    61   1 H    0.996 --    29 C    0.962
    62   1 H    0.981 --    30 C    0.962
    63   1 H    0.996 --    30 C    0.978
    64   1 H    0.992 --    30 C    0.976
    65   1 H    0.994 --    31 C    0.961
    66   1 H    0.992 --    32 C    0.973
    67   1 H    0.996 --    32 C    0.980
    68   1 H    0.994 --    32 C    0.979
    69   1 H    0.996 --    33 C    0.983
    70   1 H    0.998 --    33 C    0.978
    71   1 H    0.995 --    33 C    0.982
    72   1 H    0.966 --     1 N    0.934
 ---------------------------------------------------------------------------

molecular dipole:
                 x           y           z       tot (Debye)
 q only:       -0.646      -0.438      -0.028
   full:       -0.200      -0.346      -0.407       1.449

           -------------------------------------------------
          | TOTAL ENERGY             -100.836905074585 Eh   |
          | GRADIENT NORM               0.003039238559 Eh/α |
          | HOMO-LUMO GAP               1.160103079065 eV   |
           -------------------------------------------------

 * finished run on 2024/04/06 at 11:15:51.155
