   * xtb version 6.6.1 (8d0f1dd) compiled by 'conda@1efc2f54142f' on 2023-08-01
          program call               : xtb xtbopt.xyz --opt crude --input .xc2 --gfn2

   ID    Z sym.   atoms
    1    7 N      1, 17
    2    6 C      2-6, 8, 9, 11-16, 18-23, 25, 26, 28-33
    3    8 O      7, 10, 24, 27
    4    1 H      34-72
########################################################################
[WARNING] Please study the warnings concerning your input carefully
-1- readin_getIntValue: could not parse ''
########################################################################

          :  Hamiltonian                  GFN2-xTB          :
 * total energy  :   -99.3069367 Eh     change       -0.2444267E-11 Eh
 * total energy  :   -99.4174906 Eh     change       -0.1105539E+00 Eh
 * total energy  :   -99.4194036 Eh     change       -0.1913020E-02 Eh
 * total energy  :   -99.4204017 Eh     change       -0.9980678E-03 Eh
 * total energy  :   -99.4203594 Eh     change        0.4229905E-04 Eh
 * total energy  :   -99.4205575 Eh     change       -0.1980636E-03 Eh
   *** GEOMETRY OPTIMIZATION CONVERGED AFTER 6 ITERATIONS ***

 final structure:
================
72
 xtb: 6.6.1 (8d0f1dd)
N           -1.58880569171788        0.82141048204001        2.07249061167952
C           -1.46439845157610        0.93932147249267        0.83060366087102
C           -2.62982977495913        0.93112880537404       -0.13165407464293
C           -3.27432288858549       -0.51493319167597       -0.18607692474059
C           -4.48872292088171       -0.53658954403879       -1.04806644309539
C           -5.64082596000375       -1.17152679467188       -0.70595397930561
O           -6.76389375143374       -1.22893081259991       -1.45093695861727
C           -6.80854968929137       -0.53685853565360       -2.67754031999879
C           -5.74235770309886       -1.86899727344411        0.55138873708480
O           -6.89659545229786       -2.49105497913064        0.76848385757860
C           -7.11015308153207       -3.18826882968817        1.97764732626311
C           -4.65316367505586       -1.81841749832808        1.43960070597827
C           -3.50840861686111       -1.15611308740628        1.12940805099153
C           -1.96407169398127        1.21023435304478       -1.49737540935167
C           -0.52728852341115        0.71112215268062       -1.37158595413050
C           -0.14748926679778        1.09363519483706        0.06846716691188
N            0.91045253750312        0.37056509153284        0.72011168932244
C            2.24995207803829        0.88567259889366        0.61402399922383
C            2.88045514117869        0.79181006790178       -0.79892305035830
C            4.37596736015443        0.80160119512667       -0.71053938435211
C            5.11330578363618        1.95092919158312       -0.95459138475987
C            6.49580919904555        1.94269353276406       -0.85523686783731
C            7.17382751359346        0.78407973008321       -0.49928879985937
O            8.50660197436044        0.65714811993090       -0.37823411233777
C            9.33489006833388        1.76457688670428       -0.64837818036491
C            6.42531017796437       -0.39818723391759       -0.23276888451421
O            7.15682035112815       -1.47556713711758        0.11082291457755
C            6.50371641398882       -2.68949386117524        0.39595313764892
C            5.04499299672398       -0.36534656341700       -0.34457205594574
C            0.79995934821948       -1.06711447971548        0.74340194500266
C           -3.67867380303801        2.01623552720744        0.23073568345810
C           -4.53429548832148        1.64024078558593        1.43619624497899
C           -3.02086536087346        3.36910055044745        0.51468088420135
H           -4.42082938997468       -0.03533780276681       -1.99892890880829
H           -6.63886388302163        0.53491069483150       -2.53670918812629
H           -7.81258816365197       -0.69558853247209       -3.06545317037321
H           -6.07868993707054       -0.93461455681835       -3.38914820557412
H           -7.06506339885595       -2.51460424086403        2.83774302470306
H           -8.11097121680689       -3.60877416138324        1.89935845317880
H           -6.38505487198614       -3.99682287206947        2.10504613003221
H           -4.73600243221833       -2.29873852378854        2.40177174212138
H           -2.71413601863163       -1.10609619411718        1.85583853738640
H           -2.48219376392111        0.72697215572388       -2.32266362234681
H           -1.95861072487722        2.28060391928272       -1.69795443970274
H           -0.48380590999177       -0.37243776645504       -1.49251313224994
H            0.13028402028288        1.16227232068640       -2.11223816445054
H           -2.49452251341080       -1.10899695319833       -0.68831843797531
H            0.11426927497738        2.15858002986778        0.09956429994865
H            2.87096639005143        0.31999914471812        1.31335034477821
H            2.24891110672199        1.92999365792132        0.93677069402747
H            2.53330329958043        1.62286349890773       -1.41283478958495
H            2.55485127880655       -0.14069762684286       -1.26372846158875
H            4.61142609327464        2.86421182047559       -1.23488296586470
H            7.04176622449141        2.84917743811310       -1.05952746479847
H            9.13439822139019        2.59186540398115        0.03894524908800
H            9.21745215594675        2.10921479679776       -1.68007793250691
H           10.35315909292630        1.41023132168380       -0.49945010648316
H            7.29311174084685       -3.39398239750878        0.65044519148914
H            5.82193527420866       -2.58770307853332        1.24629559894631
H            5.95261206769374       -3.06226652399043       -0.47311115477283
H            4.46849965262456       -1.25805063194873       -0.15763016158774
H            1.13515668406290       -1.54667035340559       -0.18570899497718
H           -0.23549138124695       -1.34990918662680        0.92477788889766
H            1.41081442951471       -1.45213130066128        1.56035179333068
H           -4.33050832851970        2.12623118283401       -0.64354116737188
H           -3.89546156240110        1.34106044583804        2.26227668638171
H           -5.22178699447604        0.83453032114261        1.20124690180876
H           -5.12069596635785        2.50149026140797        1.74677794187798
H           -2.46271645885961        3.32804858424276        1.44632974700265
H           -2.34990328538688        3.68546641110063       -0.27966063999985
H           -3.79141570830471        4.12911453935718        0.61568482372047
H           -0.72643865057008        0.84661836081619        2.61047707145179

          :  Hamiltonian                  GFN2-xTB          :
         :: total energy             -99.420557491275 Eh    ::
         :: gradient norm              0.004776072083 Eh/a0 ::
         :: HOMO-LUMO gap              1.158422579040 eV    ::
         :: SCC energy              -100.761696331940 Eh    ::
         :: -> dispersion             -0.077217490821 Eh    ::
         :: repulsion energy           1.340278509123 Eh    ::

    * Orbital Energies and Occupations

         #    Occupation            Energy/Eh            Energy/eV
      -------------------------------------------------------------
         1        2.0000           -0.8286585             -22.5489
       ...           ...                  ...                  ...
        78        1.9982           -0.5332309             -14.5100
        79        1.9979           -0.5311963             -14.4546
        80        1.9974           -0.5275021             -14.3541
        81        1.9971           -0.5260745             -14.3152
        82        1.9958           -0.5201235             -14.1533
        83        1.9952           -0.5181456             -14.0995
        84        1.9952           -0.5178793             -14.0922
        85        1.9928           -0.5115966             -13.9213
        86        1.9676           -0.4875315             -13.2664
        87        1.9627           -0.4852455             -13.2042
        88        1.9497           -0.4804217             -13.0729
        89        1.8435           -0.4615696             -12.5599
        90        1.7177           -0.4511026             -12.2751 (HOMO)
        91        0.5851           -0.4085314             -11.1167 (LUMO)
        92        0.0095           -0.3379303              -9.1956
        93        0.0030           -0.3197112              -8.6998
        94        0.0017           -0.3109333              -8.4609
        95        0.0014           -0.3079034              -8.3785
        96        0.0000           -0.2359120              -6.4195
        97        0.0000           -0.1858349              -5.0568
        98                         -0.0999229              -2.7190
        99                         -0.0791679              -2.1543
       100                         -0.0744668              -2.0263
       101                         -0.0678472              -1.8462
       ...                                ...                  ...
       171                          0.5779000              15.7255
      -------------------------------------------------------------
                  HL-Gap            0.0425712 Eh            1.1584 eV

     #   Z          covCN         q      C6AA      α(0)
     1   7 N        1.775    -0.300    28.578     7.916
     2   6 C        2.902     0.120    25.368     8.258
     3   6 C        3.911     0.008    20.392     6.419
     4   6 C        3.859    -0.013    20.770     6.481
     5   6 C        2.904    -0.075    29.878     8.963
     6   6 C        2.849     0.135    25.040     8.201
     7   8 O        1.706    -0.232    17.849     5.704
     8   6 C        3.645     0.025    20.496     6.507
     9   6 C        2.863     0.144    24.862     8.173
    10   8 O        1.706    -0.188    17.138     5.589
    11   6 C        3.645     0.017    20.626     6.527
    12   6 C        2.899    -0.062    29.539     8.911
    13   6 C        2.905    -0.027    28.673     8.780
    14   6 C        3.835    -0.073    21.864     6.652
    15   6 C        3.822    -0.067    21.762     6.638
    16   6 C        3.817     0.020    20.224     6.400
    17   7 N        2.728    -0.123    23.682     7.228
    18   6 C        3.749    -0.002    20.677     6.485
    19   6 C        3.806    -0.070    21.826     6.651
    20   6 C        2.968     0.008    27.844     8.655
    21   6 C        2.921    -0.044    29.083     8.844
    22   6 C        2.913    -0.065    29.617     8.924
    23   6 C        2.864     0.135    25.044     8.203
    24   8 O        1.706    -0.216    17.591     5.663
    25   6 C        3.645     0.024    20.511     6.509
    26   6 C        2.862     0.135    25.054     8.204
    27   8 O        1.706    -0.220    17.660     5.674
    28   6 C        3.645     0.027    20.461     6.501
    29   6 C        2.920    -0.077    29.935     8.972
    30   6 C        3.699    -0.040    21.458     6.625
    31   6 C        3.850    -0.009    20.695     6.471
    32   6 C        3.757    -0.122    22.891     6.821
    33   6 C        3.757    -0.112    22.696     6.792
    34   1 H        0.926     0.060     2.204     2.322
    35   1 H        0.924     0.052     2.293     2.368
    36   1 H        0.925     0.085     1.930     2.173
    37   1 H        0.924     0.052     2.296     2.370
    38   1 H        0.924     0.067     2.120     2.277
    39   1 H        0.925     0.091     1.865     2.136
    40   1 H        0.924     0.065     2.141     2.288
    41   1 H        0.926     0.068     2.105     2.269
    42   1 H        0.926     0.076     2.023     2.224
    43   1 H        0.925     0.047     2.352     2.398
    44   1 H        0.925     0.053     2.282     2.362
    45   1 H        0.924     0.038     2.475     2.460
    46   1 H        0.925     0.046     2.372     2.408
    47   1 H        0.923     0.085     1.929     2.172
    48   1 H        0.924     0.061     2.182     2.310
    49   1 H        0.924     0.054     2.266     2.354
    50   1 H        0.924     0.050     2.315     2.379
    51   1 H        0.925     0.046     2.366     2.405
    52   1 H        0.924     0.050     2.321     2.382
    53   1 H        0.926     0.052     2.292     2.367
    54   1 H        0.926     0.061     2.189     2.314
    55   1 H        0.924     0.058     2.224     2.332
    56   1 H        0.924     0.058     2.221     2.330
    57   1 H        0.925     0.084     1.940     2.178
    58   1 H        0.925     0.083     1.951     2.185
    59   1 H        0.924     0.051     2.302     2.373
    60   1 H        0.924     0.054     2.274     2.358
    61   1 H        0.926     0.050     2.315     2.380
    62   1 H        0.923     0.036     2.500     2.473
    63   1 H        0.925     0.050     2.315     2.380
    64   1 H        0.924     0.056     2.243     2.342
    65   1 H        0.924     0.039     2.456     2.451
    66   1 H        0.925     0.068     2.104     2.268
    67   1 H        0.925     0.036     2.508     2.476
    68   1 H        0.925     0.055     2.255     2.348
    69   1 H        0.925     0.048     2.348     2.396
    70   1 H        0.925     0.035     2.521     2.483
    71   1 H        0.925     0.053     2.283     2.363
    72   1 H        0.860     0.164     1.309     1.793

Wiberg/Mayer (AO) data.
largest (>0.10) Wiberg bond orders for each atom

     #   Z sym  total        # sym  WBO       # sym  WBO       # sym  WBO
 ---------------------------------------------------------------------------
     1   7 N    3.008 --     2 C    1.906    72 H    0.934
     2   6 C    3.927 --     1 N    1.906     3 C    0.984    16 C    0.941
     3   6 C    3.936 --     2 C    0.984    14 C    0.984    31 C    0.955
                             4 C    0.891
     4   6 C    3.983 --    13 C    1.055     5 C    1.041     3 C    0.891
                            47 H    0.889
     5   6 C    3.802 --     6 C    1.565     4 C    1.041    34 H    0.957
                             7 O    0.105
     6   6 C    3.932 --     5 C    1.565     9 C    1.136     7 O    1.096
     7   8 O    2.261 --     6 C    1.096     8 C    0.976     5 C    0.105
     8   6 C    3.930 --    36 H    0.976     7 O    0.976    35 H    0.974
                            37 H    0.974
     9   6 C    3.701 --    12 C    1.269    10 O    1.172     6 C    1.136
    10   8 O    2.286 --     9 C    1.172    11 C    0.966
    11   6 C    3.919 --    39 H    0.976    40 H    0.971    38 H    0.970
                            10 O    0.966
    12   6 C    3.977 --    13 C    1.609     9 C    1.269    41 H    0.958
    13   6 C    3.748 --    12 C    1.609     4 C    1.055    42 H    0.956
    14   6 C    3.990 --    15 C    1.006     3 C    0.984    43 H    0.970
                            44 H    0.967
    15   6 C    3.971 --    14 C    1.006    46 H    0.975    45 H    0.972
                            16 C    0.965
    16   6 C    3.954 --    17 N    1.009    15 C    0.965     2 C    0.941
                            48 H    0.939
    17   7 N    3.142 --    30 C    1.016    18 C    1.014    16 C    1.009
    18   6 C    3.963 --    17 N    1.014    50 H    0.969    49 H    0.967
                            19 C    0.955
    19   6 C    3.970 --    20 C    1.018    51 H    0.975    52 H    0.964
                            18 C    0.955
    20   6 C    3.926 --    21 C    1.395    29 C    1.375    19 C    1.018
    21   6 C    3.929 --    22 C    1.422    20 C    1.395    53 H    0.967
    22   6 C    3.949 --    21 C    1.422    23 C    1.376    54 H    0.962
    23   6 C    3.873 --    22 C    1.376    26 C    1.208    24 O    1.116
    24   8 O    2.247 --    23 C    1.116    25 C    0.975
    25   6 C    3.925 --    57 H    0.976    24 O    0.975    56 H    0.971
                            55 H    0.971
    26   6 C    3.882 --    29 C    1.395    23 C    1.208    27 O    1.108
    27   8 O    2.248 --    26 C    1.108    28 C    0.978
    28   6 C    3.930 --    27 O    0.978    58 H    0.977    59 H    0.973
                            60 H    0.972
    29   6 C    3.950 --    26 C    1.395    20 C    1.375    61 H    0.962
    30   6 C    3.973 --    17 N    1.016    63 H    0.978    64 H    0.976
                            62 H    0.962
    31   6 C    3.982 --    32 C    1.010    33 C    1.006    65 H    0.961
                             3 C    0.955
    32   6 C    3.981 --    31 C    1.010    67 H    0.980    68 H    0.979
                            66 H    0.973
    33   6 C    3.986 --    31 C    1.006    69 H    0.983    71 H    0.982
                            70 H    0.978
    34   1 H    0.995 --     5 C    0.957
    35   1 H    0.995 --     8 C    0.974
    36   1 H    0.992 --     8 C    0.976
    37   1 H    0.994 --     8 C    0.974
    38   1 H    0.989 --    11 C    0.970
    39   1 H    0.991 --    11 C    0.976
    40   1 H    0.989 --    11 C    0.971
    41   1 H    0.994 --    12 C    0.958
    42   1 H    0.993 --    13 C    0.956
    43   1 H    0.995 --    14 C    0.970
    44   1 H    0.995 --    14 C    0.967
    45   1 H    0.998 --    15 C    0.972
    46   1 H    0.995 --    15 C    0.975
    47   1 H    0.948 --     4 C    0.889
    48   1 H    0.994 --    16 C    0.939
    49   1 H    0.994 --    18 C    0.967
    50   1 H    0.993 --    18 C    0.969
    51   1 H    0.996 --    19 C    0.975
    52   1 H    0.994 --    19 C    0.964
    53   1 H    0.996 --    21 C    0.967
    54   1 H    0.994 --    22 C    0.962
    55   1 H    0.989 --    25 C    0.971
    56   1 H    0.989 --    25 C    0.971
    57   1 H    0.992 --    25 C    0.976
    58   1 H    0.992 --    28 C    0.977
    59   1 H    0.991 --    28 C    0.973
    60   1 H    0.991 --    28 C    0.972
    61   1 H    0.996 --    29 C    0.962
    62   1 H    0.981 --    30 C    0.962
    63   1 H    0.996 --    30 C    0.978
    64   1 H    0.992 --    30 C    0.976
    65   1 H    0.994 --    31 C    0.961
    66   1 H    0.992 --    32 C    0.973
    67   1 H    0.997 --    32 C    0.980
    68   1 H    0.994 --    32 C    0.979
    69   1 H    0.996 --    33 C    0.983
    70   1 H    0.998 --    33 C    0.978
    71   1 H    0.995 --    33 C    0.982
    72   1 H    0.966 --     1 N    0.934
 ---------------------------------------------------------------------------

molecular dipole:
                 x           y           z       tot (Debye)
 q only:       -0.659      -0.429      -0.010
   full:       -0.196      -0.347      -0.402       1.439

           -------------------------------------------------
          | TOTAL ENERGY              -99.420557491275 Eh   |
          | GRADIENT NORM               0.004776072083 Eh/α |
          | HOMO-LUMO GAP               1.158422579040 eV   |
           -------------------------------------------------

 * finished run on 2024/04/06 at 11:15:52.421
