   * xtb version 6.6.1 (8d0f1dd) compiled by 'conda@1efc2f54142f' on 2023-08-01
          program call               : xtb struc.xyz --opt loose --input .xc1 --gfn2

   ID    Z sym.   atoms
    1    6 C      1, 3, 5-7, 10, 11, 14
    2    7 N      2, 4, 9, 13
    3    8 O      8, 12
    4    1 H      15-25
constraining bond 20 21 to    3.2800000 Å, actual value:    1.7685310 Å

          :  Hamiltonian                  GFN2-xTB          :
 * total energy  :   -38.1661667 Eh     change       -0.6633627E-10 Eh
 * total energy  :   -40.2680149 Eh     change       -0.2101848E+01 Eh
 * total energy  :   -41.6230117 Eh     change       -0.1354997E+01 Eh
 * total energy  :   -42.0282744 Eh     change       -0.4052628E+00 Eh
 * total energy  :   -42.0577251 Eh     change       -0.2945063E-01 Eh
 * total energy  :   -42.0581533 Eh     change       -0.4282700E-03 Eh
 * total energy  :   -42.0592110 Eh     change       -0.1057631E-02 Eh
 * total energy  :   -42.0596702 Eh     change       -0.4592151E-03 Eh
 * total energy  :   -42.0600173 Eh     change       -0.3471455E-03 Eh
 * total energy  :   -42.0603805 Eh     change       -0.3632087E-03 Eh
 * total energy  :   -42.0608761 Eh     change       -0.4955926E-03 Eh
 * total energy  :   -42.0612629 Eh     change       -0.3867391E-03 Eh
 * total energy  :   -42.0614308 Eh     change       -0.1679737E-03 Eh
 * total energy  :   -42.0614816 Eh     change       -0.5082115E-04 Eh
 * total energy  :   -42.0615147 Eh     change       -0.3305931E-04 Eh
 * total energy  :   -42.0615494 Eh     change       -0.3465814E-04 Eh
 * total energy  :   -42.0615702 Eh     change       -0.2080388E-04 Eh
 * total energy  :   -42.0615833 Eh     change       -0.1316414E-04 Eh
   *** GEOMETRY OPTIMIZATION CONVERGED AFTER 18 ITERATIONS ***

 final structure:
================
25
 xtb: 6.6.1 (8d0f1dd)
C            3.21361413486513        1.13844262028032        0.01843839048383
N            2.26083717641038        0.05941811115680        0.00030924040297
C            2.53309005359405       -1.23252939265493       -0.00821348374994
N            1.38642529561267       -1.94547594334851       -0.00842584406581
C            0.34417688774455       -1.06392022192021        0.00042607882767
C            0.89599748225124        0.20614956199122        0.00635658096242
C            0.05904381892795        1.40001516835928       -0.00311562680080
O            0.46614895261987        2.53477266039643       -0.01733114410290
N           -1.30185084346380        1.07109271020668        0.00149615220617
C           -2.26461164889143        2.13602037183790       -0.00120967713811
C           -1.86685760046133       -0.20144290335658        0.00485859733844
O           -3.04663872536267       -0.38476626930848        0.00915733448191
N           -0.97295807269479       -1.30135310516523        0.00154447154869
C           -1.52172104753060       -2.64230800565965       -0.00239709959143
H            3.71246056702693        1.18512940041102        0.98739193330080
H            3.96667950275366        0.99228405299357       -0.75475987751731
H            2.68444070083082        2.07556858071390       -0.15080161532468
H            3.51605386826269       -1.66144783325788       -0.01508642217083
H           -1.76894755365031        3.09533131405806        0.00418967117369
H           -2.70331597241590        2.11640805996394       -1.62704305704829
H           -2.72703948218291        2.10192645834616        1.61142387114355
H           -1.20506971639482       -3.18621060624035        0.88694035940379
H           -1.21880970644091       -3.17558661000260       -0.90295966008202
H           -2.60681635594678       -2.54516675417178        0.00636657998864
H            1.32609979863630       -2.95411288402909       -0.01638413577045

          :  Hamiltonian                  GFN2-xTB          :
         :: total energy             -42.061583333084 Eh    ::
         :: gradient norm              0.003795212151 Eh/a0 ::
         :: HOMO-LUMO gap              2.575425839529 eV    ::
         :: SCC energy               -42.563213285790 Eh    ::
         :: -> dispersion             -0.023734395117 Eh    ::
         :: repulsion energy           0.498409532585 Eh    ::

    * Orbital Energies and Occupations

         #    Occupation            Energy/Eh            Energy/eV
      -------------------------------------------------------------
         1        2.0000           -0.9220345             -25.0898
       ...           ...                  ...                  ...
        25        2.0000           -0.6682955             -18.1852
        26        2.0000           -0.6614596             -17.9992
        27        2.0000           -0.6403377             -17.4245
        28        2.0000           -0.6326815             -17.2161
        29        2.0000           -0.6280048             -17.0889
        30        2.0000           -0.6250807             -17.0093
        31        2.0000           -0.6228522             -16.9487
        32        2.0000           -0.6083085             -16.5529
        33        2.0000           -0.5761870             -15.6788
        34        1.9999           -0.5625869             -15.3088
        35        1.9998           -0.5586450             -15.2015
        36        1.9969           -0.5354614             -14.5706
        37        1.9963           -0.5340678             -14.5327 (HOMO)
        38        0.0068           -0.4394227             -11.9573 (LUMO)
        39        0.0002           -0.4100655             -11.1585
        40        0.0001           -0.4085430             -11.1170
        41        0.0000           -0.3728569             -10.1460
        42                         -0.3122638              -8.4971
        43                         -0.2672657              -7.2727
        44                         -0.2046062              -5.5676
        45                         -0.2023058              -5.5050
        46                         -0.1478963              -4.0245
        47                         -0.1295922              -3.5264
        48                         -0.0839978              -2.2857
       ...                                ...                  ...
        67                          0.5628420              15.3157
      -------------------------------------------------------------
                  HL-Gap            0.0946452 Eh            2.5754 eV

     #   Z          covCN         q      C6AA      α(0)
     1   6 C        3.692    -0.097    22.548     6.795
     2   7 N        2.838     0.095    19.599     6.575
     3   6 C        3.068     0.056    26.681     8.470
     4   7 N        2.801    -0.057    22.335     7.019
     5   6 C        3.046     0.117    25.380     8.263
     6   6 C        3.129    -0.026    28.439     8.731
     7   6 C        2.763     0.272    22.412     7.753
     8   8 O        0.858    -0.366    21.019     6.147
     9   7 N        2.743    -0.091    23.013     7.125
    10   6 C        1.922    -0.008    31.301     9.035
    11   6 C        2.731     0.320    21.569     7.603
    12   8 O        0.859    -0.342    20.548     6.078
    13   7 N        2.738    -0.060    22.409     7.031
    14   6 C        3.697    -0.074    22.083     6.722
    15   1 H        0.924     0.113     1.673     2.023
    16   1 H        0.925     0.108     1.709     2.045
    17   1 H        0.925     0.140     1.461     1.890
    18   1 H        0.926     0.130     1.537     1.939
    19   1 H        0.926     0.102     1.764     2.077
    20   1 H        0.026     0.070     5.194     4.167
    21   1 H        0.029     0.071     5.154     4.151
    22   1 H        0.925     0.082     1.963     2.191
    23   1 H        0.925     0.082     1.962     2.191
    24   1 H        0.925     0.130     1.538     1.939
    25   1 H        0.860     0.233     0.950     1.527

Wiberg/Mayer (AO) data.
largest (>0.10) Wiberg bond orders for each atom

     #   Z sym  total        # sym  WBO       # sym  WBO       # sym  WBO
 ---------------------------------------------------------------------------
     1   6 C    3.912 --     2 N    0.983    16 H    0.963    17 H    0.960
                            15 H    0.954
     2   7 N    3.730 --     3 C    1.427     6 C    1.171     1 C    0.983
     3   6 C    3.923 --     2 N    1.427     4 N    1.283    18 H    0.951
     4   7 N    3.609 --     3 C    1.283     5 C    1.187    25 H    0.917
     5   6 C    3.962 --     6 C    1.354    13 N    1.229     4 N    1.187
     6   6 C    3.934 --     5 C    1.354     2 N    1.171     7 C    1.054
     7   6 C    3.965 --     8 O    1.706     9 N    1.094     6 C    1.054
     8   8 O    2.073 --     7 C    1.706     9 N    0.154
     9   7 N    3.579 --    11 C    1.100     7 C    1.094    10 C    1.015
                             8 O    0.154    12 O    0.133
    10   6 C    3.833 --     9 N    1.015    19 H    0.971    21 H    0.902
                            20 H    0.900
    11   6 C    3.960 --    12 O    1.739     9 N    1.100    13 N    1.024
    12   8 O    2.099 --    11 C    1.739     9 N    0.133    13 N    0.126
    13   7 N    3.568 --     5 C    1.229    11 C    1.024    14 C    0.973
                            12 O    0.126
    14   6 C    3.925 --    13 N    0.973    22 H    0.972    23 H    0.972
                            24 H    0.963
    15   1 H    0.987 --     1 C    0.954
    16   1 H    0.987 --     1 C    0.963
    17   1 H    0.980 --     1 C    0.960
    18   1 H    0.982 --     3 C    0.951
    19   1 H    0.988 --    10 C    0.971
    20   1 H    0.990 --    10 C    0.900
    21   1 H    0.990 --    10 C    0.902
    22   1 H    0.992 --    14 C    0.972
    23   1 H    0.992 --    14 C    0.972
    24   1 H    0.983 --    14 C    0.963
    25   1 H    0.945 --     4 N    0.917
 ---------------------------------------------------------------------------

molecular dipole:
                 x           y           z       tot (Debye)
 q only:        2.774      -2.122       0.011
   full:        3.196      -2.599       0.015      10.470

           -------------------------------------------------
          | TOTAL ENERGY              -42.061583333084 Eh   |
          | GRADIENT NORM               0.003795212151 Eh/α |
          | HOMO-LUMO GAP               2.575425839529 eV   |
           -------------------------------------------------

 * finished run on 2024/06/05 at 19:58:08.340
