   * xtb version 6.6.1 (8d0f1dd) compiled by 'conda@1efc2f54142f' on 2023-08-01
          program call               : xtb xtbopt.xyz --opt crude --input .xc2 --gfn2

   ID    Z sym.   atoms
    1    6 C      1, 3, 5-7, 10, 11, 14
    2    7 N      2, 4, 9, 13
    3    8 O      8, 12
    4    1 H      15-25

          :  Hamiltonian                  GFN2-xTB          :
 * total energy  :   -42.0646457 Eh     change       -0.9947598E-13 Eh
 * total energy  :   -42.1575591 Eh     change       -0.9291341E-01 Eh
 * total energy  :   -42.2341107 Eh     change       -0.7655163E-01 Eh
 * total energy  :   -42.2412301 Eh     change       -0.7119390E-02 Eh
 * total energy  :   -42.2351272 Eh     change        0.6102904E-02 Eh
 * total energy  :   -42.2413548 Eh     change       -0.6227629E-02 Eh
 * total energy  :   -42.2435569 Eh     change       -0.2202075E-02 Eh
 * total energy  :   -42.2429708 Eh     change        0.5860935E-03 Eh
 * total energy  :   -42.2449667 Eh     change       -0.1995859E-02 Eh
 * total energy  :   -42.2452305 Eh     change       -0.2638522E-03 Eh
   *** GEOMETRY OPTIMIZATION CONVERGED AFTER 10 ITERATIONS ***

 final structure:
================
25
 xtb: 6.6.1 (8d0f1dd)
C            3.21610909686658        1.13673118691393        0.01826093917441
N            2.26943372393694        0.05213111266650        0.00025960567664
C            2.54119358595379       -1.23960430563273       -0.00831577706295
N            1.39326958501147       -1.95111049228262       -0.00847355163261
C            0.35194907692385       -1.06803315776043        0.00048216750543
C            0.90659226522037        0.20022887593745        0.00649265185926
C            0.07539565484552        1.39778092020749       -0.00296769675777
O            0.48652262356394        2.53094866184114       -0.01761389196449
N           -1.27348944610615        1.06713721049879        0.00143745571174
C           -2.22897069036495        2.17112072210016       -0.00324088728332
C           -1.84996170260829       -0.19180590523720        0.00501567546378
O           -3.03383675493464       -0.36153113102433        0.00872305182869
N           -0.96678684370649       -1.30093388676141        0.00162193521959
C           -1.51994518107871       -2.64175212704491       -0.00251790233214
H            3.71354314651440        1.18664133935788        0.98765833084012
H            3.96865347317410        0.99575990539857       -0.75610030316193
H            2.68053850340724        2.07096357333787       -0.14999367929857
H            3.52443065753665       -1.66925515603773       -0.01518446962719
H           -1.66769365763568        3.10205778916534        0.00064918448913
H           -2.85373537497508        2.10455993661251       -0.88850377680061
H           -2.87305693048231        2.09710869774785        0.88001093721852
H           -1.20561805733591       -3.18826192663138        0.88683017767251
H           -1.21809079119633       -3.17797606838338       -0.90246517045486
H           -2.60502862399026       -2.54497605709020        0.00547877036328
H            1.32901417556014       -2.95969117629909       -0.01637215874655

          :  Hamiltonian                  GFN2-xTB          :
         :: total energy             -42.245230512605 Eh    ::
         :: gradient norm              0.006865357555 Eh/a0 ::
         :: HOMO-LUMO gap              3.230094573937 eV    ::
         :: SCC energy               -42.775804162414 Eh    ::
         :: -> dispersion             -0.022661121591 Eh    ::
         :: repulsion energy           0.530459256129 Eh    ::

    * Orbital Energies and Occupations

         #    Occupation            Energy/Eh            Energy/eV
      -------------------------------------------------------------
         1        2.0000           -0.9218455             -25.0847
       ...           ...                  ...                  ...
        25        2.0000           -0.6686560             -18.1951
        26        2.0000           -0.6638307             -18.0638
        27        2.0000           -0.6554280             -17.8351
        28        2.0000           -0.6380391             -17.3619
        29        2.0000           -0.6305836             -17.1591
        30        2.0000           -0.6250734             -17.0091
        31        2.0000           -0.6246188             -16.9967
        32        2.0000           -0.6187777             -16.8378
        33        2.0000           -0.5950108             -16.1911
        34        1.9999           -0.5766891             -15.6925
        35        1.9996           -0.5616284             -15.2827
        36        1.9994           -0.5584677             -15.1967
        37        1.9993           -0.5573294             -15.1657 (HOMO)
        38        0.0018           -0.4386256             -11.9356 (LUMO)
        39        0.0000           -0.4060499             -11.0492
        40        0.0000           -0.3721251             -10.1260
        41                         -0.2883524              -7.8465
        42                         -0.2067495              -5.6259
        43                         -0.2020199              -5.4972
        44                         -0.1476196              -4.0169
        45                         -0.1320311              -3.5927
        46                         -0.0850215              -2.3136
        47                         -0.0499815              -1.3601
        48                         -0.0376174              -1.0236
       ...                                ...                  ...
        67                          0.5636441              15.3375
      -------------------------------------------------------------
                  HL-Gap            0.1187038 Eh            3.2301 eV

     #   Z          covCN         q      C6AA      α(0)
     1   6 C        3.692    -0.098    22.559     6.796
     2   7 N        2.839     0.096    19.587     6.573
     3   6 C        3.068     0.056    26.672     8.468
     4   7 N        2.802    -0.057    22.338     7.020
     5   6 C        3.047     0.117    25.379     8.262
     6   6 C        3.135    -0.026    28.429     8.728
     7   6 C        2.764     0.276    22.331     7.739
     8   8 O        0.858    -0.367    21.037     6.149
     9   7 N        2.745    -0.087    22.933     7.112
    10   6 C        3.710    -0.063    21.845     6.680
    11   6 C        2.727     0.319    21.585     7.606
    12   8 O        0.859    -0.355    20.799     6.115
    13   7 N        2.738    -0.061    22.414     7.032
    14   6 C        3.696    -0.072    22.061     6.719
    15   1 H        0.924     0.113     1.672     2.022
    16   1 H        0.925     0.108     1.710     2.045
    17   1 H        0.925     0.141     1.453     1.885
    18   1 H        0.926     0.130     1.537     1.939
    19   1 H        0.925     0.112     1.677     2.025
    20   1 H        0.925     0.097     1.816     2.107
    21   1 H        0.924     0.096     1.819     2.109
    22   1 H        0.925     0.081     1.969     2.194
    23   1 H        0.924     0.081     1.968     2.194
    24   1 H        0.925     0.129     1.545     1.944
    25   1 H        0.860     0.233     0.951     1.528

Wiberg/Mayer (AO) data.
largest (>0.10) Wiberg bond orders for each atom

     #   Z sym  total        # sym  WBO       # sym  WBO       # sym  WBO
 ---------------------------------------------------------------------------
     1   6 C    3.911 --     2 N    0.982    16 H    0.963    17 H    0.959
                            15 H    0.954
     2   7 N    3.735 --     3 C    1.429     6 C    1.174     1 C    0.982
     3   6 C    3.928 --     2 N    1.429     4 N    1.284    18 H    0.951
     4   7 N    3.610 --     3 C    1.284     5 C    1.187    25 H    0.917
     5   6 C    3.962 --     6 C    1.357    13 N    1.228     4 N    1.187
     6   6 C    3.934 --     5 C    1.357     2 N    1.174     7 C    1.049
     7   6 C    3.966 --     8 O    1.702     9 N    1.120     6 C    1.049
     8   8 O    2.073 --     7 C    1.702     9 N    0.160
     9   7 N    3.577 --    11 C    1.121     7 C    1.120    10 C    0.965
                             8 O    0.160    12 O    0.139
    10   6 C    3.920 --    19 H    0.970    20 H    0.968    21 H    0.968
                             9 N    0.965
    11   6 C    3.960 --    12 O    1.724     9 N    1.121    13 N    1.023
    12   8 O    2.085 --    11 C    1.724     9 N    0.139    13 N    0.124
    13   7 N    3.567 --     5 C    1.228    11 C    1.023    14 C    0.973
                            12 O    0.124
    14   6 C    3.926 --    13 N    0.973    22 H    0.972    23 H    0.972
                            24 H    0.964
    15   1 H    0.987 --     1 C    0.954
    16   1 H    0.988 --     1 C    0.963
    17   1 H    0.980 --     1 C    0.959
    18   1 H    0.982 --     3 C    0.951
    19   1 H    0.987 --    10 C    0.970
    20   1 H    0.990 --    10 C    0.968
    21   1 H    0.990 --    10 C    0.968
    22   1 H    0.992 --    14 C    0.972
    23   1 H    0.992 --    14 C    0.972
    24   1 H    0.983 --    14 C    0.964
    25   1 H    0.945 --     4 N    0.917
 ---------------------------------------------------------------------------

molecular dipole:
                 x           y           z       tot (Debye)
 q only:        2.751      -2.065       0.006
   full:        3.060      -2.607       0.010      10.218

           -------------------------------------------------
          | TOTAL ENERGY              -42.245230512605 Eh   |
          | GRADIENT NORM               0.006865357555 Eh/α |
          | HOMO-LUMO GAP               3.230094573937 eV   |
           -------------------------------------------------

 * finished run on 2024/06/05 at 19:58:08.785
