   * xtb version 6.6.1 (8d0f1dd) compiled by 'conda@1efc2f54142f' on 2023-08-01
          program call               : xtb xtbopt.xyz --opt crude --input .xc2 --gfn2

   ID    Z sym.   atoms
    1    6 C      1, 3, 5-7, 10, 11, 14
    2    7 N      2, 4, 9, 13
    3    8 O      8, 12
    4    1 H      15-25

          :  Hamiltonian                  GFN2-xTB          :
 * total energy  :   -42.1349884 Eh     change       -0.7190692E-11 Eh
   *** GEOMETRY OPTIMIZATION CONVERGED AFTER 1 ITERATIONS ***

 final structure:
================
25
 xtb: 6.6.1 (8d0f1dd)
C            3.68553785181047        2.75477897873376        0.03841801710909
N            2.25102031682300       -0.53433153902308       -0.01700475450708
C            2.34918094441937       -1.82942466339391       -0.01138578166963
N            1.12464852915207       -2.44286315075368       -0.00605223844100
C            0.20202630912053       -1.44858609255828       -0.00756181347103
C            0.92684158266395       -0.24853464940245       -0.01497097077079
C            0.24414876077018        1.02517192265614       -0.02154738172226
O            0.76704774475339        2.11684506580403       -0.03952937276375
N           -1.14415360900120        0.87506795580798       -0.00463840804830
C           -1.95211992855174        2.08391933865018        0.00199551796966
C           -1.86728393077764       -0.30521190932095        0.00289119534423
O           -3.06960902674674       -0.31482038563708        0.01358262646086
N           -1.14027378426538       -1.50796493733991       -0.00238108928668
C           -1.86186048741177       -2.76224560010228       -0.00316488023578
H            3.98147617508374        2.48952968594634        1.03455596013630
H            4.32531494143990        2.51072691133365       -0.78863526052389
H            2.73844567512971        3.23102240937130       -0.12974820581992
H            3.27565397664224       -2.36888943673018       -0.01233052492915
H           -1.28142446903968        2.93948687957349        0.01219255505006
H           -2.58807869673092        2.11243454763930       -0.88329906250639
H           -2.59598413789934        2.09503942867666        0.88187378533627
H           -1.61423901319742       -3.34482963259541        0.88515241277991
H           -1.62490048499506       -3.33655778829345       -0.89987437051472
H           -2.92707165768683       -2.53355417911781        0.00437208698720
H            0.95608793259544       -3.43797061832423       -0.00173842406295

          :  Hamiltonian                  GFN2-xTB          :
         :: total energy             -42.134988388288 Eh    ::
         :: gradient norm              0.002213795355 Eh/a0 ::
         :: HOMO-LUMO gap              1.106629921254 eV    ::
         :: SCC energy               -42.661050239122 Eh    ::
         :: -> dispersion             -0.021265310371 Eh    ::
         :: repulsion energy           0.525964525756 Eh    ::

    * Orbital Energies and Occupations

         #    Occupation            Energy/Eh            Energy/eV
      -------------------------------------------------------------
         1        2.0000           -0.8872969             -24.1446
       ...           ...                  ...                  ...
        25        1.9996           -0.6557961             -17.8451
        26        1.9988           -0.6378230             -17.3560
        27        1.9980           -0.6297634             -17.1367
        28        1.9979           -0.6286826             -17.1073
        29        1.9973           -0.6251255             -17.0105
        30        1.9971           -0.6238125             -16.9748
        31        1.9930           -0.6097891             -16.5932
        32        1.9923           -0.6083228             -16.5533
        33        1.9735           -0.5885997             -16.0166
        34        1.9230           -0.5712685             -15.5450
        35        1.9123           -0.5691297             -15.4868
        36        1.8796           -0.5638389             -15.3428
        37        1.7110           -0.5484792             -14.9249 (HOMO)
        38        0.6243           -0.5078113             -13.8182 (LUMO)
        39        0.0021           -0.4115243             -11.1981
        40        0.0006           -0.3924740             -10.6798
        41        0.0001           -0.3631212              -9.8810
        42        0.0000           -0.2820323              -7.6745
        43                         -0.2003274              -5.4512
        44                         -0.1580434              -4.3006
        45                         -0.1328471              -3.6150
        46                         -0.0698911              -1.9018
        47                         -0.0463687              -1.2618
        48                         -0.0302964              -0.8244
       ...                                ...                  ...
        67                          0.5468004              14.8792
      -------------------------------------------------------------
                  HL-Gap            0.0406679 Eh            1.1066 eV

     #   Z          covCN         q      C6AA      α(0)
     1   6 C        2.779    -0.064    29.567     8.906
     2   7 N        1.903    -0.167    25.412     7.474
     3   6 C        3.158     0.106    25.375     8.236
     4   7 N        2.789    -0.079    22.783     7.089
     5   6 C        3.055     0.115    25.416     8.268
     6   6 C        3.206     0.023    26.889     8.445
     7   6 C        2.764     0.274    22.370     7.746
     8   8 O        0.858    -0.339    20.495     6.070
     9   7 N        2.744    -0.074    22.675     7.072
    10   6 C        3.710    -0.062    21.828     6.677
    11   6 C        2.731     0.319    21.583     7.606
    12   8 O        0.860    -0.344    20.584     6.083
    13   7 N        2.737    -0.042    22.058     6.975
    14   6 C        3.697    -0.070    22.024     6.713
    15   1 H        0.926     0.137     1.483     1.904
    16   1 H        0.926     0.138     1.479     1.902
    17   1 H        0.926     0.159     1.330     1.803
    18   1 H        0.926     0.109     1.704     2.041
    19   1 H        0.925     0.117     1.640     2.003
    20   1 H        0.924     0.108     1.710     2.045
    21   1 H        0.924     0.109     1.708     2.044
    22   1 H        0.924     0.092     1.863     2.135
    23   1 H        0.924     0.092     1.861     2.134
    24   1 H        0.925     0.128     1.550     1.947
    25   1 H        0.860     0.216     1.028     1.588

Wiberg/Mayer (AO) data.
largest (>0.10) Wiberg bond orders for each atom

     #   Z sym  total        # sym  WBO       # sym  WBO       # sym  WBO
 ---------------------------------------------------------------------------
     1   6 C    2.936 --    15 H    0.978    16 H    0.978    17 H    0.966
     2   7 N    3.002 --     3 C    1.558     6 C    1.270
     3   6 C    3.849 --     2 N    1.558     4 N    1.213    18 H    0.955
     4   7 N    3.578 --     5 C    1.224     3 C    1.213    25 H    0.924
     5   6 C    3.897 --     6 C    1.277     4 N    1.224    13 N    1.212
     6   6 C    3.834 --     5 C    1.277     2 N    1.270     7 C    1.069
     7   6 C    3.946 --     8 O    1.675     9 N    1.099     6 C    1.069
     8   8 O    1.972 --     7 C    1.675     9 N    0.126
     9   7 N    3.514 --    11 C    1.121     7 C    1.099    10 C    0.975
                             8 O    0.126    12 O    0.122
    10   6 C    3.884 --     9 N    0.975    19 H    0.963    21 H    0.951
                            20 H    0.951
    11   6 C    3.954 --    12 O    1.687     9 N    1.121    13 N    1.053
    12   8 O    1.995 --    11 C    1.687     9 N    0.122    13 N    0.108
    13   7 N    3.496 --     5 C    1.212    11 C    1.053    14 C    0.978
                            12 O    0.108
    14   6 C    3.910 --    13 N    0.978    24 H    0.962    22 H    0.962
                            23 H    0.962
    15   1 H    0.980 --     1 C    0.978
    16   1 H    0.980 --     1 C    0.978
    17   1 H    0.972 --     1 C    0.966
    18   1 H    0.986 --     3 C    0.955
    19   1 H    0.981 --    10 C    0.963
    20   1 H    0.969 --    10 C    0.951
    21   1 H    0.969 --    10 C    0.951
    22   1 H    0.979 --    14 C    0.962
    23   1 H    0.978 --    14 C    0.962
    24   1 H    0.981 --    14 C    0.962
    25   1 H    0.952 --     4 N    0.924
 ---------------------------------------------------------------------------

molecular dipole:
                 x           y           z       tot (Debye)
 q only:        1.889      -1.050       0.027
   full:        1.798      -1.763       0.029       6.401

           -------------------------------------------------
          | TOTAL ENERGY              -42.134988388288 Eh   |
          | GRADIENT NORM               0.002213795355 Eh/α |
          | HOMO-LUMO GAP               1.106629921254 eV   |
           -------------------------------------------------

 * finished run on 2024/06/05 at 19:59:06.527
