   * xtb version 6.6.1 (8d0f1dd) compiled by 'conda@1efc2f54142f' on 2023-08-01
          program call               : xtb xtbopt.xyz --opt crude --input .xc2 --gfn2

   ID    Z sym.   atoms
    1    6 C      1, 3, 5-7, 10, 11, 14
    2    7 N      2, 4, 9, 13
    3    8 O      8, 12
    4    1 H      15-25
########################################################################
[WARNING] Please study the warnings concerning your input carefully
-1- readin_getIntValue: could not parse ''
########################################################################

          :  Hamiltonian                  GFN2-xTB          :
 * total energy  :   -38.6333663 Eh     change        0.9237056E-13 Eh
 * total energy  :   -42.0885597 Eh     change       -0.3455193E+01 Eh
 * total energy  :   -42.1342138 Eh     change       -0.4565413E-01 Eh
 * total energy  :   -42.1460009 Eh     change       -0.1178705E-01 Eh
 * total energy  :   -42.1522089 Eh     change       -0.6208002E-02 Eh
 * total energy  :   -42.1534297 Eh     change       -0.1220781E-02 Eh
 * total energy  :   -42.1550883 Eh     change       -0.1658657E-02 Eh
 * total energy  :   -42.1563188 Eh     change       -0.1230459E-02 Eh
 * total energy  :   -42.1583115 Eh     change       -0.1992726E-02 Eh
 * total energy  :   -42.1592234 Eh     change       -0.9119314E-03 Eh
 * total energy  :   -42.1593775 Eh     change       -0.1541000E-03 Eh
   *** GEOMETRY OPTIMIZATION CONVERGED AFTER 11 ITERATIONS ***

 final structure:
================
25
 xtb: 6.6.1 (8d0f1dd)
C            2.92893914472107        1.08872428201097        0.25631835783118
N            2.11731067054506       -0.07792694912161        0.03724188805570
C            2.56656440402463       -1.31382584693594       -0.11165049879067
N            1.53345842181394       -2.14336243393640       -0.29962887494466
C            0.35855461651479       -1.41480616217079       -0.24319615927355
C            0.74194169395143       -0.09482613400613       -0.00282400147143
C           -0.06105261394192        1.15245883316928       -0.12979175950195
O            0.40414227558305        2.10772426191401       -0.71038857197650
N           -1.34117868933802        1.12165476980149        0.36376146971743
C           -2.26327593539769        2.15174104311522       -0.08595804662489
C           -1.78882580917416        0.25468404335354        1.33857884682958
O           -2.92000743775697        0.22227193132782        1.71924146851027
N           -0.88736408247133       -1.90813350847509       -0.29630429075357
C           -1.29847112387052       -2.91516507725430       -0.94878526232592
H            2.79277368275427        1.45572563199476        1.27480400137477
H            3.97585651206700        0.84232115481865        0.09911933029390
H            2.62370174300645        1.87847663315513       -0.43190163376387
H            3.59848736808978       -1.60681269280343       -0.07853975551278
H           -1.69554248623279        3.02550708498683       -0.40027560175928
H           -2.85262372541131        1.78202146043827       -0.92659180284235
H           -2.93847587625162        2.40675132254777        0.72779735466498
H           -1.00042292496366       -0.36519854578504        1.78101383748315
H           -0.70883622309611       -3.47372448225588       -1.67625644451926
H           -2.32406697131352       -3.21408724753056       -0.79964863529969
H            1.59884488024818       -3.14395483075632       -0.42496359750578

          :  Hamiltonian                  GFN2-xTB          :
         :: total energy             -42.159377536530 Eh    ::
         :: gradient norm              0.006424386372 Eh/a0 ::
         :: HOMO-LUMO gap              2.511807797752 eV    ::
         :: SCC energy               -42.701576376276 Eh    ::
         :: -> dispersion             -0.022314131737 Eh    ::
         :: repulsion energy           0.541991736810 Eh    ::

    * Orbital Energies and Occupations

         #    Occupation            Energy/Eh            Energy/eV
      -------------------------------------------------------------
         1        2.0000           -0.9124963             -24.8303
       ...           ...                  ...                  ...
        25        2.0000           -0.6647457             -18.0887
        26        1.9999           -0.6597729             -17.9533
        27        1.9999           -0.6541120             -17.7993
        28        1.9999           -0.6486381             -17.6503
        29        1.9998           -0.6394246             -17.3996
        30        1.9995           -0.6276042             -17.0780
        31        1.9991           -0.6174571             -16.8019
        32        1.9969           -0.5979179             -16.2702
        33        1.9962           -0.5949350             -16.1890
        34        1.9847           -0.5727303             -15.5848
        35        1.9639           -0.5589198             -15.2090
        36        1.9395           -0.5505713             -14.9818
        37        1.9307           -0.5483440             -14.9212 (HOMO)
        38        0.1514           -0.4560368             -12.4094 (LUMO)
        39        0.0347           -0.4317523             -11.7486
        40        0.0036           -0.3956288             -10.7656
        41        0.0003           -0.3573836              -9.7249
        42        0.0000           -0.3227273              -8.7819
        43                         -0.1907733              -5.1912
        44                         -0.1731277              -4.7110
        45                         -0.1247277              -3.3940
        46                         -0.0688967              -1.8748
        47                         -0.0550903              -1.4991
        48                         -0.0370225              -1.0074
       ...                                ...                  ...
        67                          0.5244595              14.2713
      -------------------------------------------------------------
                  HL-Gap            0.0923072 Eh            2.5118 eV

     #   Z          covCN         q      C6AA      α(0)
     1   6 C        3.693    -0.093    22.473     6.783
     2   7 N        2.844     0.087    19.728     6.597
     3   6 C        3.025     0.062    26.594     8.459
     4   7 N        2.803    -0.062    22.437     7.035
     5   6 C        3.017     0.126    25.223     8.238
     6   6 C        3.089    -0.015    28.290     8.718
     7   6 C        2.767     0.274    22.376     7.747
     8   8 O        0.859    -0.353    20.762     6.109
     9   7 N        2.734    -0.053    22.266     7.008
    10   6 C        3.707    -0.066    21.915     6.692
    11   6 C        2.712     0.249    22.821     7.820
    12   8 O        0.858    -0.282    19.467     5.916
    13   7 N        1.824    -0.154    25.128     7.428
    14   6 C        2.794     0.038    27.126     8.532
    15   1 H        0.924     0.109     1.702     2.040
    16   1 H        0.925     0.102     1.764     2.077
    17   1 H        0.924     0.139     1.468     1.895
    18   1 H        0.926     0.125     1.577     1.964
    19   1 H        0.925     0.109     1.709     2.044
    20   1 H        0.924     0.094     1.836     2.119
    21   1 H        0.925     0.107     1.721     2.051
    22   1 H        0.924     0.046     2.374     2.409
    23   1 H        0.924     0.068     2.104     2.269
    24   1 H        0.926     0.117     1.634     1.999
    25   1 H        0.860     0.227     0.977     1.549

Wiberg/Mayer (AO) data.
largest (>0.10) Wiberg bond orders for each atom

     #   Z sym  total        # sym  WBO       # sym  WBO       # sym  WBO
 ---------------------------------------------------------------------------
     1   6 C    3.917 --     2 N    0.987    16 H    0.974    15 H    0.956
                            17 H    0.948
     2   7 N    3.710 --     3 C    1.393     6 C    1.182     1 C    0.987
     3   6 C    3.904 --     2 N    1.393     4 N    1.320    18 H    0.950
     4   7 N    3.594 --     3 C    1.320     5 C    1.144    25 H    0.920
     5   6 C    3.918 --     6 C    1.372    13 N    1.220     4 N    1.144
     6   6 C    3.881 --     5 C    1.372     2 N    1.182     7 C    0.996
     7   6 C    3.939 --     8 O    1.702     9 N    1.152     6 C    0.996
     8   8 O    2.032 --     7 C    1.702     9 N    0.139
     9   7 N    3.563 --     7 C    1.152    11 C    1.131    10 C    0.969
                             8 O    0.139    12 O    0.133
    10   6 C    3.909 --     9 N    0.969    21 H    0.967    19 H    0.965
                            20 H    0.958
    11   6 C    3.933 --    12 O    1.831     9 N    1.131    22 H    0.912
    12   8 O    2.078 --    11 C    1.831     9 N    0.133
    13   7 N    3.154 --    14 C    1.787     5 C    1.220
    14   6 C    3.810 --    13 N    1.787    24 H    0.956    23 H    0.948
    15   1 H    0.986 --     1 C    0.956
    16   1 H    0.989 --     1 C    0.974
    17   1 H    0.979 --     1 C    0.948
    18   1 H    0.984 --     3 C    0.950
    19   1 H    0.984 --    10 C    0.965
    20   1 H    0.980 --    10 C    0.958
    21   1 H    0.983 --    10 C    0.967
    22   1 H    0.980 --    11 C    0.912
    23   1 H    0.983 --    14 C    0.948
    24   1 H    0.981 --    14 C    0.956
    25   1 H    0.948 --     4 N    0.920
 ---------------------------------------------------------------------------

molecular dipole:
                 x           y           z       tot (Debye)
 q only:        2.434      -1.823      -0.336
   full:        2.912      -2.481      -0.493       9.805

           -------------------------------------------------
          | TOTAL ENERGY              -42.159377536530 Eh   |
          | GRADIENT NORM               0.006424386372 Eh/α |
          | HOMO-LUMO GAP               2.511807797752 eV   |
           -------------------------------------------------

 * finished run on 2024/06/05 at 19:58:00.845
