   * xtb version 6.6.1 (8d0f1dd) compiled by 'conda@1efc2f54142f' on 2023-08-01
          program call               : xtb struc.xyz --opt loose --input .xc1 --gfn2

   ID    Z sym.   atoms
    1    7 N      1, 17
    2    6 C      2-6, 8, 9, 11-16, 18-23, 25, 26, 28-33
    3    8 O      7, 10, 24, 27
    4    1 H      34-72
constraining bond 22 27 to    5.7600000 Å, actual value:    3.6115688 Å

          :  Hamiltonian                  GFN2-xTB          :
 * total energy  :   -98.5799727 Eh     change       -0.4035485E-08 Eh
 * total energy  :   -98.7990369 Eh     change       -0.2190641E+00 Eh
 * total energy  :   -98.9294235 Eh     change       -0.1303866E+00 Eh
 * total energy  :   -98.9999747 Eh     change       -0.7055122E-01 Eh
 * total energy  :   -99.0385668 Eh     change       -0.3859213E-01 Eh
 * total energy  :   -99.0636919 Eh     change       -0.2512500E-01 Eh
 * total energy  :   -99.0864253 Eh     change       -0.2273345E-01 Eh
 * total energy  :   -99.1113606 Eh     change       -0.2493530E-01 Eh
 * total energy  :   -99.1332481 Eh     change       -0.2188752E-01 Eh
 * total energy  :   -99.1461282 Eh     change       -0.1288002E-01 Eh
 * total energy  :   -99.2744679 Eh     change       -0.2048386E-03 Eh
 * total energy  :   -99.2745467 Eh     change       -0.7879107E-04 Eh
 * total energy  :   -99.2746289 Eh     change       -0.8221966E-04 Eh
 * total energy  :   -99.2746857 Eh     change       -0.5679336E-04 Eh
 * total energy  :   -99.2747548 Eh     change       -0.6909839E-04 Eh
 * total energy  :   -99.2748181 Eh     change       -0.6329057E-04 Eh
 * total energy  :   -99.2748687 Eh     change       -0.5053704E-04 Eh
 * total energy  :   -99.2749266 Eh     change       -0.5792333E-04 Eh
 * total energy  :   -99.2749578 Eh     change       -0.3118501E-04 Eh
   *** GEOMETRY OPTIMIZATION CONVERGED AFTER 75 ITERATIONS ***

 final structure:
================
72
 xtb: 6.6.1 (8d0f1dd)
N           -1.83307049517943        2.74272591815909        2.24811214443424
C           -1.77905948622648        1.95575005740447        1.28103362281469
C           -2.90353013871931        1.71807217327647        0.31021877053874
C           -3.37123308556199        0.27360605391384        0.42153200383118
C           -4.25637343247074       -0.24506039701617       -0.52514712248390
C           -4.71926922088051       -1.54861779965124       -0.44624191226083
O           -5.57828386485170       -2.12414522287662       -1.30933654130226
C           -6.13948004871660       -1.35581712231698       -2.34742213662217
C           -4.27722915356581       -2.38592928126175        0.61600090542045
O           -4.76833846250199       -3.63763086656541        0.60747284330466
C           -4.43225456571103       -4.51769367263556        1.65539309827152
C           -3.40385682451867       -1.86055357843785        1.55663724009012
C           -2.96210264721938       -0.54863675419318        1.46172328363495
C           -2.31203014233348        1.96684666803025       -1.10234747846263
C           -1.29360864222517        0.90648309205716       -1.54552437918149
C            0.04867247628772        1.09483696934295       -0.94982069784456
N            0.88247550808772        0.13307302602224       -0.64274694149186
C            2.24138872548618        0.42517480243875       -0.25464380781679
C            3.19553495576434        0.23238258092065       -1.44803737204937
C            4.61077237530118        0.47514506481028       -1.02225594244026
C            5.34536908894501        1.58507237965382       -1.40677934375638
C            6.65071858980073        1.78338667702319       -0.99046519816640
C            7.29140714233347        0.85823439910165       -0.14619939322379
O            8.54648636117915        0.95539161609983        0.30996968878642
C            9.33521128177837        2.06449184473333       -0.05758148589082
C            6.49879965808055       -0.21417841040485        0.20039589551008
O            3.02448910384630       -2.44377070313269        0.47625298554923
C            3.35027450264195       -3.65745400089427        0.94269863683568
C            5.23400209243189       -0.45840497370702       -0.17151919820963
C            0.52879729507862       -1.26320213755484       -0.73436474632720
C           -4.12994750778865        2.64884278129871        0.54588572194334
C           -4.78049831683234        2.37859151769838        1.90038222650536
C           -3.79551810508149        4.13267329675667        0.42066711386560
H           -4.60097916051724        0.38278199546898       -1.32993814828511
H           -6.69572576209115       -0.49870799596687       -1.95616635030831
H           -6.82515595016197       -2.02315527070221       -2.86586553434794
H           -5.37513827090729       -1.00848112807670       -3.05003883176923
H           -4.76035051016189       -4.12944428314546        2.62395611804347
H           -4.96135758218760       -5.44381888897864        1.43935031857885
H           -3.35605098344506       -4.71369555567907        1.68512769515800
H           -3.06642621226157       -2.46528622423883        2.38244603781607
H           -2.30699414489658       -0.16922507275209        2.23026808674920
H           -3.12996478760567        1.98256045741903       -1.82115351314862
H           -1.84077381871523        2.94972623188913       -1.12120991186770
H           -1.68503655828442       -0.09084005182728       -1.34346649036184
H           -1.17514601219995        0.99656558232038       -2.63312047396742
H           -0.87485328247651        1.37701661475928        1.01367753591402
H            0.41930548791515        2.10840287692781       -0.87338175909783
H            2.53820172922656       -0.27110021142341        0.53310735064240
H            2.31195505035212        1.45178060505224        0.11169357574952
H            2.92116783701042        0.91172933621278       -2.25721445854965
H            3.10101963642679       -0.79673634528909       -1.79611271594000
H            4.89932040053665        2.32172671784675       -2.05980994986544
H            7.18688867115293        2.66016718731023       -1.31821896305403
H            8.90499968577608        2.99995208331443        0.31186186039852
H            9.46605959704766        2.12241127178746       -1.14187543589262
H           10.30303423004529        1.90348114956755        0.41269683897479
H            3.98469877322726       -3.58784515194896        1.84584613186645
H            2.45211419104377       -4.24229310860494        1.21730256433298
H            3.91050793167538       -4.24624968057476        0.19230245659233
H            4.66318994082893       -1.32843370948269        0.14361505984506
H            0.33216711262926       -1.55055371533055       -1.76821134007098
H           -0.36339253776574       -1.46849367099610       -0.13915886135552
H            1.36178177588633       -1.86036450405427       -0.34589947058819
H           -4.86058484317715        2.40061279267097       -0.23260788429157
H           -4.09070626679324        2.62622544197457        2.70079540798798
H           -5.07301099455276        1.33558024871570        1.99537614272028
H           -5.66933254832264        2.99444079130349        2.00781459136022
H           -3.02901943037266        4.40921711194735        1.13794683371098
H           -3.46351832609452        4.39226401599405       -0.58099744102960
H           -4.68617563476074        4.71715389951416        0.63538596530437
H           -1.00891785230824        2.84538168062058        2.83119932038619

          :  Hamiltonian                  GFN2-xTB          :
         :: total energy             -99.274957774907 Eh    ::
         :: gradient norm              0.002399938704 Eh/a0 ::
         :: HOMO-LUMO gap              0.878448482759 eV    ::
         :: SCC energy              -100.659906764223 Eh    ::
         :: -> dispersion             -0.073326977439 Eh    ::
         :: repulsion energy           1.383733926653 Eh    ::

    * Orbital Energies and Occupations

         #    Occupation            Energy/Eh            Energy/eV
      -------------------------------------------------------------
         1        2.0000           -0.8151021             -22.1801
       ...           ...                  ...                  ...
        78        1.9975           -0.5332825             -14.5114
        79        1.9973           -0.5321323             -14.4801
        80        1.9963           -0.5271877             -14.3455
        81        1.9943           -0.5204510             -14.1622
        82        1.9934           -0.5180059             -14.0957
        83        1.9921           -0.5153127             -14.0224
        84        1.9858           -0.5059181             -13.7667
        85        1.9734           -0.4958676             -13.4932
        86        1.9178           -0.4775326             -12.9943
        87        1.8950           -0.4734575             -12.8834
        88        1.8197           -0.4642604             -12.6332
        89        1.6865           -0.4542976             -12.3621
        90        1.6785           -0.4538234             -12.3492 (HOMO)
        91        0.8094           -0.4215410             -11.4707 (LUMO)
        92        0.2583           -0.3974348             -10.8148
        93        0.0111           -0.3455210              -9.4021
        94        0.0025           -0.3216232              -8.7518
        95        0.0023           -0.3206434              -8.7252
        96        0.0021           -0.3187468              -8.6735
        97        0.0015           -0.3135497              -8.5321
        98        0.0000           -0.1961529              -5.3376
        99        0.0000           -0.1876978              -5.1075
       100                         -0.1293242              -3.5191
       101                         -0.0735200              -2.0006
       ...                                ...                  ...
       171                          0.5909966              16.0818
      -------------------------------------------------------------
                  HL-Gap            0.0322824 Eh            0.8784 eV

     #   Z          covCN         q      C6AA      α(0)
     1   7 N        1.774    -0.263    27.651     7.787
     2   6 C        2.826     0.102    25.732     8.312
     3   6 C        3.908     0.007    20.407     6.421
     4   6 C        2.974     0.003    27.947     8.672
     5   6 C        2.920    -0.079    29.969     8.977
     6   6 C        2.862     0.132    25.110     8.214
     7   8 O        1.706    -0.223    17.708     5.682
     8   6 C        3.644     0.026    20.476     6.504
     9   6 C        2.864     0.132    25.103     8.213
    10   8 O        1.706    -0.220    17.658     5.674
    11   6 C        3.645     0.024    20.497     6.507
    12   6 C        2.913    -0.071    29.759     8.945
    13   6 C        2.921    -0.049    29.223     8.865
    14   6 C        3.813    -0.067    21.766     6.641
    15   6 C        3.803    -0.070    21.847     6.654
    16   6 C        2.847     0.018    27.598     8.610
    17   7 N        2.730     0.049    20.388     6.706
    18   6 C        3.760    -0.032    21.189     6.562
    19   6 C        3.808    -0.070    21.833     6.651
    20   6 C        2.984     0.015    27.677     8.630
    21   6 C        2.918    -0.042    29.035     8.836
    22   6 C        2.937    -0.062    29.534     8.913
    23   6 C        2.858     0.169    24.351     8.088
    24   8 O        1.705    -0.218    17.619     5.667
    25   6 C        3.646     0.025    20.493     6.506
    26   6 C        2.032    -0.035    31.930     9.126
    27   8 O        0.854    -0.516    24.142     6.588
    28   6 C        3.621     0.087    19.570     6.378
    29   6 C        2.917    -0.030    28.757     8.794
    30   6 C        3.702    -0.094    22.454     6.776
    31   6 C        3.853    -0.008    20.677     6.467
    32   6 C        3.756    -0.119    22.835     6.813
    33   6 C        3.755    -0.120    22.846     6.815
    34   1 H        0.926     0.053     2.278     2.360
    35   1 H        0.924     0.056     2.249     2.345
    36   1 H        0.925     0.084     1.940     2.178
    37   1 H        0.924     0.050     2.321     2.383
    38   1 H        0.924     0.058     2.220     2.330
    39   1 H        0.925     0.084     1.939     2.177
    40   1 H        0.924     0.054     2.274     2.358
    41   1 H        0.926     0.058     2.223     2.332
    42   1 H        0.926     0.044     2.395     2.420
    43   1 H        0.925     0.062     2.180     2.309
    44   1 H        0.925     0.056     2.248     2.345
    45   1 H        0.924     0.073     2.050     2.239
    46   1 H        0.924     0.086     1.922     2.168
    47   1 H        0.922     0.010     2.897     2.662
    48   1 H        0.925     0.076     2.021     2.223
    49   1 H        0.924     0.120     1.611     1.985
    50   1 H        0.924     0.062     2.170     2.304
    51   1 H        0.924     0.053     2.287     2.365
    52   1 H        0.924     0.084     1.938     2.177
    53   1 H        0.926     0.057     2.236     2.338
    54   1 H        0.926     0.067     2.113     2.273
    55   1 H        0.924     0.056     2.242     2.342
    56   1 H        0.924     0.057     2.229     2.335
    57   1 H        0.925     0.085     1.933     2.174
    58   1 H        0.922     0.042     2.424     2.435
    59   1 H        0.922     0.035     2.522     2.484
    60   1 H        0.922     0.041     2.440     2.443
    61   1 H        0.925     0.127     1.558     1.952
    62   1 H        0.924     0.077     2.013     2.219
    63   1 H        0.924     0.075     2.036     2.232
    64   1 H        0.924     0.141     1.455     1.886
    65   1 H        0.924     0.039     2.457     2.452
    66   1 H        0.925     0.070     2.087     2.259
    67   1 H        0.925     0.037     2.494     2.469
    68   1 H        0.925     0.053     2.278     2.360
    69   1 H        0.925     0.063     2.168     2.303
    70   1 H        0.925     0.036     2.506     2.476
    71   1 H        0.925     0.057     2.237     2.339
    72   1 H        0.860     0.161     1.328     1.805

Wiberg/Mayer (AO) data.
largest (>0.10) Wiberg bond orders for each atom

     #   Z sym  total        # sym  WBO       # sym  WBO       # sym  WBO
 ---------------------------------------------------------------------------
     1   7 N    3.038 --     2 C    1.959    72 H    0.940
     2   6 C    3.935 --     1 N    1.959     3 C    0.993    47 H    0.903
     3   6 C    3.973 --     2 C    0.993     4 C    0.969    14 C    0.956
                            31 C    0.943
     4   6 C    3.937 --    13 C    1.406     5 C    1.372     3 C    0.969
     5   6 C    3.956 --     6 C    1.396     4 C    1.372    34 H    0.957
     6   6 C    3.894 --     5 C    1.396     9 C    1.214     7 O    1.106
     7   8 O    2.253 --     6 C    1.106     8 C    0.977
     8   6 C    3.929 --     7 O    0.977    36 H    0.976    35 H    0.973
                            37 H    0.972
     9   6 C    3.890 --    12 C    1.383     6 C    1.214    10 O    1.112
    10   8 O    2.253 --     9 C    1.112    11 C    0.975
    11   6 C    3.926 --    39 H    0.976    10 O    0.975    40 H    0.972
                            38 H    0.972
    12   6 C    3.956 --    13 C    1.413     9 C    1.383    41 H    0.963
    13   6 C    3.944 --    12 C    1.413     4 C    1.406    42 H    0.962
    14   6 C    3.979 --    15 C    0.991    44 H    0.971    43 H    0.968
                             3 C    0.956
    15   6 C    3.986 --    16 C    1.058    14 C    0.991    45 H    0.955
                            46 H    0.922
    16   6 C    3.707 --    17 N    1.501    15 C    1.058    48 H    0.954
    17   7 N    3.572 --    16 C    1.501    30 C    0.991    18 C    0.985
    18   6 C    3.940 --    17 N    0.985    50 H    0.969    19 C    0.963
                            49 H    0.945
    19   6 C    3.967 --    20 C    1.009    51 H    0.971    18 C    0.963
                            52 H    0.959
    20   6 C    3.873 --    21 C    1.421    29 C    1.278    19 C    1.009
    21   6 C    3.968 --    22 C    1.446    20 C    1.421    53 H    0.958
    22   6 C    3.895 --    21 C    1.446    23 C    1.288    54 H    0.949
    23   6 C    3.881 --    26 C    1.335    22 C    1.288    24 O    1.117
    24   8 O    2.263 --    23 C    1.117    25 C    0.973
    25   6 C    3.925 --    57 H    0.976    24 O    0.973    55 H    0.972
                            56 H    0.972
    26   6 C    3.158 --    29 C    1.579    23 C    1.335
    27   8 O    1.257 --    28 C    1.140
    28   6 C    3.902 --    27 O    1.140    59 H    0.920    58 H    0.918
                            60 H    0.917
    29   6 C    3.918 --    26 C    1.579    20 C    1.278    61 H    0.899
    30   6 C    3.922 --    17 N    0.991    62 H    0.964    63 H    0.962
                            64 H    0.935
    31   6 C    3.969 --    33 C    1.008    32 C    1.008    65 H    0.958
                             3 C    0.943
    32   6 C    3.975 --    31 C    1.008    67 H    0.981    68 H    0.980
                            66 H    0.972
    33   6 C    3.979 --    31 C    1.008    70 H    0.982    71 H    0.979
                            69 H    0.975
    34   1 H    0.996 --     5 C    0.957
    35   1 H    0.992 --     8 C    0.973
    36   1 H    0.992 --     8 C    0.976
    37   1 H    0.992 --     8 C    0.972
    38   1 H    0.991 --    11 C    0.972
    39   1 H    0.992 --    11 C    0.976
    40   1 H    0.991 --    11 C    0.972
    41   1 H    0.995 --    12 C    0.963
    42   1 H    0.997 --    13 C    0.962
    43   1 H    0.995 --    14 C    0.968
    44   1 H    0.996 --    14 C    0.971
    45   1 H    0.992 --    15 C    0.955
    46   1 H    0.975 --    15 C    0.922
    47   1 H    0.983 --     2 C    0.903
    48   1 H    0.994 --    16 C    0.954
    49   1 H    0.981 --    18 C    0.945
    50   1 H    0.995 --    18 C    0.969
    51   1 H    0.993 --    19 C    0.971
    52   1 H    0.989 --    19 C    0.959
    53   1 H    0.988 --    21 C    0.958
    54   1 H    0.980 --    22 C    0.949
    55   1 H    0.991 --    25 C    0.972
    56   1 H    0.991 --    25 C    0.972
    57   1 H    0.991 --    25 C    0.976
    58   1 H    0.924 --    28 C    0.918
    59   1 H    0.927 --    28 C    0.920
    60   1 H    0.924 --    28 C    0.917
    61   1 H    0.960 --    29 C    0.899
    62   1 H    0.986 --    30 C    0.964
    63   1 H    0.988 --    30 C    0.962
    64   1 H    0.980 --    30 C    0.935
    65   1 H    0.990 --    31 C    0.958
    66   1 H    0.989 --    32 C    0.972
    67   1 H    0.996 --    32 C    0.981
    68   1 H    0.993 --    32 C    0.980
    69   1 H    0.992 --    33 C    0.975
    70   1 H    0.996 --    33 C    0.982
    71   1 H    0.993 --    33 C    0.979
    72   1 H    0.968 --     1 N    0.940
 ---------------------------------------------------------------------------

molecular dipole:
                 x           y           z       tot (Debye)
 q only:        0.255       1.352      -1.232
   full:        0.666       1.196      -1.332       4.854

           -------------------------------------------------
          | TOTAL ENERGY              -99.274957774907 Eh   |
          | GRADIENT NORM               0.002399938704 Eh/α |
          | HOMO-LUMO GAP               0.878448482759 eV   |
           -------------------------------------------------

 * finished run on 2024/04/06 at 11:14:19.018
