   * xtb version 6.6.1 (8d0f1dd) compiled by 'conda@1efc2f54142f' on 2023-08-01
          program call               : xtb struc.xyz --opt loose --input .xc1 --gfn2

   ID    Z sym.   atoms
    1    7 N      1, 17
    2    6 C      2-6, 8, 9, 11-16, 18-23, 25, 26, 28-33
    3    8 O      7, 10, 24, 27
    4    1 H      34-72
constraining bond 22 53 to    2.7133300 Å, actual value:    2.1331964 Å

          :  Hamiltonian                  GFN2-xTB          :
 * total energy  :   -99.4642239 Eh     change       -0.4035485E-08 Eh
 * total energy  :   -99.5392894 Eh     change       -0.7506548E-01 Eh
 * total energy  :   -99.6248293 Eh     change       -0.8553994E-01 Eh
 * total energy  :   -99.6644468 Eh     change       -0.3961746E-01 Eh
 * total energy  :   -99.6944568 Eh     change       -0.3001001E-01 Eh
 * total energy  :   -99.7198023 Eh     change       -0.2534552E-01 Eh
 * total energy  :   -99.7263919 Eh     change       -0.6589644E-02 Eh
 * total energy  :   -99.7485582 Eh     change       -0.2216626E-01 Eh
 * total energy  :   -99.7592940 Eh     change       -0.1073580E-01 Eh
 * total energy  :   -99.7836896 Eh     change       -0.2439561E-01 Eh
 * total energy  :   -99.8641583 Eh     change       -0.3012423E-03 Eh
 * total energy  :   -99.8641453 Eh     change        0.1293665E-04 Eh
 * total energy  :   -99.8643398 Eh     change       -0.1944791E-03 Eh
 * total energy  :   -99.8643986 Eh     change       -0.5880239E-04 Eh
 * total energy  :   -99.8645331 Eh     change       -0.1344913E-03 Eh
 * total energy  :   -99.8645907 Eh     change       -0.5763387E-04 Eh
 * total energy  :   -99.8646528 Eh     change       -0.6209091E-04 Eh
 * total energy  :   -99.8647123 Eh     change       -0.5947146E-04 Eh
 * total energy  :   -99.8647530 Eh     change       -0.4072406E-04 Eh
   *** GEOMETRY OPTIMIZATION CONVERGED AFTER 36 ITERATIONS ***

 final structure:
================
72
 xtb: 6.6.1 (8d0f1dd)
N           -1.93994981331701        2.82138047540714        2.28571862281695
C           -1.87473278785497        2.12738929495901        1.24892215209165
C           -3.01132776884844        1.92343744283353        0.28524165143200
C           -3.47872852606646        0.47725004338830        0.35039094848466
C           -4.39472927932789        0.00460565873831       -0.59188706118120
C           -4.86201208672517       -1.29811015321703       -0.55789255558161
O           -5.75472293185479       -1.82781742257127       -1.42103502706340
C           -6.36421320384193       -0.99298292423763       -2.37717855508700
C           -4.39084816905939       -2.18449128362794        0.44732591209849
O           -4.88835107433397       -3.43749567203292        0.39567622963807
C           -4.53377497760212       -4.35665373357795        1.40183192487554
C           -3.48522047180326       -1.70882477129660        1.38142496027210
C           -3.03863057102894       -0.39348695520411        1.33445857301254
C           -2.43908709889737        2.23277712547681       -1.12370392008393
C           -1.51936244891264        1.13927428632408       -1.69633713100435
C           -0.18398184178287        1.09879589316016       -1.06161532229109
N            0.45786952657586        0.00165561226478       -0.67966097092196
C            1.84579270562998        0.06989831894609       -0.28776099555811
C            2.78629712294530       -0.40341255100244       -1.41138696366532
C            4.21582070360707       -0.14650570076851       -1.00926764851043
C            4.82319768814124        1.02007855572526       -1.31059032251411
C            6.21275743468389        1.34862794193437       -0.93061861240723
C            6.88425405504713        0.25004353523037       -0.13975412247141
O            8.13643236588218        0.37729486300140        0.30033717957325
C            8.87362803422098        1.54121872799370        0.00098932079824
C            6.21603019257102       -0.94244113526133        0.16009648789055
O            6.94831240543610       -1.84228593442633        0.86981404056705
C            6.37747325416627       -3.09090749768241        1.18082820052971
C            4.90740244338643       -1.14134776457214       -0.26736141823846
C           -0.15472375549499       -1.30397008287189       -0.72489925106896
C           -4.23355033010857        2.84595961314161        0.56992297061978
C           -4.89367412290350        2.50741325420605        1.90426932629109
C           -3.88611960776480        4.33159486762631        0.52875351249129
H           -4.75740834182900        0.67214640612026       -1.35555150903730
H           -6.88900543164178       -0.15783899155486       -1.90341206993978
H           -7.08422883623766       -1.62189737028944       -2.89699069034405
H           -5.63642738754143       -0.60731854905113       -3.09873765458237
H           -4.82563195721568       -3.99838457586776        2.39344499300595
H           -5.08282390274092       -5.26753221208888        1.17144036944656
H           -3.45984322485077       -4.56955042830894        1.39153677431495
H           -3.12615262861284       -2.35247033030857        2.16806733983932
H           -2.35801780149563       -0.05207976608905        2.09899110840720
H           -3.26953891361531        2.37195923000506       -1.81471046191776
H           -1.88741977521090        3.17252187378816       -1.07926895159531
H           -2.02015187974558        0.17409378728626       -1.64646722103297
H           -1.36672682113184        1.38112077310833       -2.75630871603335
H           -0.95380056173790        1.61758176882665        0.90683909013514
H            0.37818834215696        2.02033885436205       -1.02671205991761
H            1.99844670672591       -0.54520003008152        0.60348595739957
H            2.09973496832354        1.10259115785730       -0.04125718526580
H            2.56025723958881        0.16029697239796       -2.31748021956852
H            2.63081763742351       -1.46449988035757       -1.60909408216211
H            6.66948507374293        1.56569338861318       -1.60846346527853
H            6.14082018482564        2.22522577565002       -0.25237924614302
H            8.39037097319179        2.43757114291340        0.39985803519961
H            9.01921480130435        1.65667750738624       -1.07658260181433
H            9.84038728186212        1.40919858600450        0.48275770247725
H            7.15245611071603       -3.63843621052575        1.71307218316195
H            5.50239139930511       -2.98283095273874        1.83005566037038
H            6.10106753193652       -3.64290862411144        0.27722115063744
H            4.39855242383573       -2.06645704669565       -0.04882295827658
H           -0.28689334916535       -1.64494554699588       -1.75424547906158
H           -1.12997152873576       -1.28534659917906       -0.23278691729382
H            0.48120614894569       -2.01513882406107       -0.20358289040135
H           -4.96226712879496        2.64786306213484       -0.22441627185855
H           -4.20854354236842        2.71098469744444        2.72060820943355
H           -5.18882495982395        1.46163124359137        1.94277599034940
H           -5.78244009584437        3.11893318658142        2.03580846175882
H           -3.14738901017484        4.56716804411696        1.28841850592761
H           -3.50929190753044        4.63405607548061       -0.44466479025395
H           -4.78138966953633        4.91255689100064        0.73401727777258
H           -1.10021963607050        2.90880310812898        2.84974933890727

          :  Hamiltonian                  GFN2-xTB          :
         :: total energy             -99.864753023225 Eh    ::
         :: gradient norm              0.003221761757 Eh/a0 ::
         :: HOMO-LUMO gap              0.835714327878 eV    ::
         :: SCC energy              -100.674046033946 Eh    ::
         :: -> dispersion             -0.074671365214 Eh    ::
         :: repulsion energy           1.430836618883 Eh    ::

    * Orbital Energies and Occupations

         #    Occupation            Energy/Eh            Energy/eV
      -------------------------------------------------------------
         1        2.0000           -0.8273539             -22.5134
       ...           ...                  ...                  ...
        78        1.9989           -0.5298873             -14.4190
        79        1.9985           -0.5241167             -14.2619
        80        1.9984           -0.5237510             -14.2520
        81        1.9978           -0.5181372             -14.0992
        82        1.9975           -0.5160196             -14.0416
        83        1.9964           -0.5103330             -13.8869
        84        1.9957           -0.5075904             -13.8122
        85        1.9949           -0.5050100             -13.7420
        86        1.9829           -0.4857173             -13.2170
        87        1.9431           -0.4663818             -12.6909
        88        1.9320           -0.4634497             -12.6111
        89        1.8861           -0.4549189             -12.3790
        90        1.3794           -0.4231133             -11.5135 (HOMO)
        91        0.4843           -0.3924013             -10.6778 (LUMO)
        92        0.3950           -0.3882689             -10.5653
        93        0.0156           -0.3337204              -9.0810
        94        0.0039           -0.3117979              -8.4845
        95        0.0032           -0.3085971              -8.3974
        96        0.0021           -0.3015111              -8.2045
        97        0.0000           -0.2242770              -6.1029
        98        0.0000           -0.1859430              -5.0598
        99                         -0.1301972              -3.5428
       100                         -0.0819201              -2.2292
       101                         -0.0640787              -1.7437
       ...                                ...                  ...
       171                          0.7999256              21.7671
      -------------------------------------------------------------
                  HL-Gap            0.0307119 Eh            0.8357 eV

     #   Z          covCN         q      C6AA      α(0)
     1   7 N        1.774    -0.271    27.860     7.816
     2   6 C        2.827     0.101    25.744     8.314
     3   6 C        3.907     0.006    20.417     6.423
     4   6 C        2.974     0.002    27.978     8.676
     5   6 C        2.921    -0.080    30.007     8.983
     6   6 C        2.863     0.129    25.180     8.225
     7   8 O        1.706    -0.232    17.852     5.705
     8   6 C        3.645     0.028    20.434     6.497
     9   6 C        2.864     0.127    25.204     8.229
    10   8 O        1.706    -0.231    17.833     5.702
    11   6 C        3.645     0.028    20.440     6.498
    12   6 C        2.914    -0.075    29.877     8.963
    13   6 C        2.921    -0.054    29.337     8.882
    14   6 C        3.812    -0.065    21.731     6.635
    15   6 C        3.802    -0.069    21.820     6.650
    16   6 C        2.844     0.006    27.872     8.652
    17   7 N        2.729     0.012    21.053     6.815
    18   6 C        3.757    -0.017    20.930     6.523
    19   6 C        3.809    -0.071    21.843     6.653
    20   6 C        2.954     0.007    27.873     8.659
    21   6 C        1.984    -0.136    34.891     9.539
    22   6 C        3.812    -0.083    22.079     6.688
    23   6 C        2.852     0.127    25.217     8.230
    24   8 O        1.706    -0.192    17.212     5.601
    25   6 C        3.646     0.019    20.583     6.520
    26   6 C        2.846     0.125    25.257     8.237
    27   8 O        1.706    -0.247    18.091     5.743
    28   6 C        3.643     0.031    20.395     6.492
    29   6 C        2.918    -0.071    29.773     8.948
    30   6 C        3.699    -0.069    22.000     6.708
    31   6 C        3.853    -0.007    20.673     6.467
    32   6 C        3.756    -0.118    22.821     6.811
    33   6 C        3.755    -0.118    22.821     6.812
    34   1 H        0.926     0.051     2.303     2.373
    35   1 H        0.924     0.053     2.284     2.364
    36   1 H        0.925     0.080     1.979     2.200
    37   1 H        0.924     0.046     2.365     2.405
    38   1 H        0.924     0.054     2.271     2.357
    39   1 H        0.925     0.080     1.981     2.201
    40   1 H        0.924     0.046     2.364     2.405
    41   1 H        0.926     0.050     2.314     2.379
    42   1 H        0.926     0.038     2.479     2.462
    43   1 H        0.925     0.059     2.206     2.323
    44   1 H        0.924     0.053     2.283     2.363
    45   1 H        0.925     0.066     2.133     2.284
    46   1 H        0.924     0.079     1.985     2.203
    47   1 H        0.922     0.004     2.990     2.704
    48   1 H        0.926     0.071     2.078     2.254
    49   1 H        0.924     0.064     2.157     2.297
    50   1 H        0.924     0.070     2.088     2.260
    51   1 H        0.924     0.061     2.188     2.313
    52   1 H        0.924     0.051     2.310     2.377
    53   1 H        0.930     0.123     1.586     1.969
    54   1 H        0.922     0.092     1.857     2.131
    55   1 H        0.924     0.063     2.167     2.302
    56   1 H        0.924     0.065     2.141     2.288
    57   1 H        0.925     0.091     1.872     2.140
    58   1 H        0.925     0.080     1.983     2.202
    59   1 H        0.924     0.046     2.377     2.411
    60   1 H        0.924     0.049     2.328     2.386
    61   1 H        0.926     0.052     2.300     2.372
    62   1 H        0.924     0.076     2.024     2.225
    63   1 H        0.924     0.079     1.988     2.205
    64   1 H        0.925     0.078     1.999     2.211
    65   1 H        0.924     0.036     2.502     2.474
    66   1 H        0.925     0.068     2.102     2.267
    67   1 H        0.925     0.035     2.518     2.481
    68   1 H        0.925     0.050     2.321     2.383
    69   1 H        0.925     0.060     2.197     2.318
    70   1 H        0.925     0.034     2.533     2.489
    71   1 H        0.925     0.053     2.281     2.362
    72   1 H        0.860     0.155     1.370     1.833

Wiberg/Mayer (AO) data.
largest (>0.10) Wiberg bond orders for each atom

     #   Z sym  total        # sym  WBO       # sym  WBO       # sym  WBO
 ---------------------------------------------------------------------------
     1   7 N    3.036 --     2 C    1.955    72 H    0.943
     2   6 C    3.930 --     1 N    1.955     3 C    0.995    47 H    0.904
     3   6 C    3.977 --     2 C    0.995     4 C    0.969    14 C    0.957
                            31 C    0.943
     4   6 C    3.952 --    13 C    1.417     5 C    1.367     3 C    0.969
     5   6 C    3.964 --     6 C    1.403     4 C    1.367    34 H    0.958
     6   6 C    3.908 --     5 C    1.403     9 C    1.225     7 O    1.096
     7   8 O    2.253 --     6 C    1.096     8 C    0.979
     8   6 C    3.933 --     7 O    0.979    36 H    0.977    35 H    0.974
                            37 H    0.974
     9   6 C    3.905 --    12 C    1.395     6 C    1.225    10 O    1.098
    10   8 O    2.252 --     9 C    1.098    11 C    0.978
    11   6 C    3.933 --    10 O    0.978    39 H    0.977    40 H    0.974
                            38 H    0.974
    12   6 C    3.964 --    13 C    1.401     9 C    1.395    41 H    0.964
    13   6 C    3.957 --     4 C    1.417    12 C    1.401    42 H    0.963
    14   6 C    3.972 --    15 C    0.981    44 H    0.972    43 H    0.969
                             3 C    0.957
    15   6 C    3.987 --    16 C    1.060    14 C    0.981    45 H    0.961
                            46 H    0.927
    16   6 C    3.588 --    17 N    1.403    15 C    1.060    48 H    0.957
    17   7 N    3.478 --    16 C    1.403    30 C    0.999    18 C    0.987
    18   6 C    3.956 --    17 N    0.987    19 C    0.968    50 H    0.967
                            49 H    0.964
    19   6 C    3.968 --    20 C    0.996    52 H    0.973    51 H    0.973
                            18 C    0.968
    20   6 C    3.924 --    21 C    1.592    29 C    1.236    19 C    0.996
    21   6 C    2.835 --    20 C    1.592    22 C    1.056
    22   6 C    3.948 --    21 C    1.056    23 C    0.995    53 H    0.927
                            54 H    0.892
    23   6 C    3.665 --    26 C    1.317    24 O    1.165    22 C    0.995
    24   8 O    2.291 --    23 C    1.165    25 C    0.970
    25   6 C    3.919 --    57 H    0.976    24 O    0.970    56 H    0.969
                            55 H    0.968
    26   6 C    3.913 --    29 C    1.362    23 C    1.317    27 O    1.071
    27   8 O    2.225 --    26 C    1.071    28 C    0.980
    28   6 C    3.934 --    27 O    0.980    58 H    0.977    59 H    0.975
                            60 H    0.974
    29   6 C    3.722 --    26 C    1.362    20 C    1.236    61 H    0.958
    30   6 C    3.958 --    17 N    0.999    64 H    0.978    62 H    0.966
                            63 H    0.962
    31   6 C    3.974 --    33 C    1.009    32 C    1.008    65 H    0.960
                             3 C    0.943
    32   6 C    3.980 --    31 C    1.008    67 H    0.982    68 H    0.982
                            66 H    0.975
    33   6 C    3.984 --    31 C    1.009    70 H    0.983    71 H    0.981
                            69 H    0.977
    34   1 H    0.996 --     5 C    0.958
    35   1 H    0.994 --     8 C    0.974
    36   1 H    0.993 --     8 C    0.977
    37   1 H    0.994 --     8 C    0.974
    38   1 H    0.993 --    11 C    0.974
    39   1 H    0.993 --    11 C    0.977
    40   1 H    0.994 --    11 C    0.974
    41   1 H    0.996 --    12 C    0.964
    42   1 H    0.998 --    13 C    0.963
    43   1 H    0.995 --    14 C    0.969
    44   1 H    0.996 --    14 C    0.972
    45   1 H    0.995 --    15 C    0.961
    46   1 H    0.970 --    15 C    0.927
    47   1 H    0.988 --     2 C    0.904
    48   1 H    0.995 --    16 C    0.957
    49   1 H    0.991 --    18 C    0.964
    50   1 H    0.994 --    18 C    0.967
    51   1 H    0.995 --    19 C    0.973
    52   1 H    0.997 --    19 C    0.973
    53   1 H    0.968 --    22 C    0.927
    54   1 H    0.953 --    22 C    0.892
    55   1 H    0.991 --    25 C    0.968
    56   1 H    0.990 --    25 C    0.969
    57   1 H    0.991 --    25 C    0.976
    58   1 H    0.993 --    28 C    0.977
    59   1 H    0.995 --    28 C    0.975
    60   1 H    0.995 --    28 C    0.974
    61   1 H    0.988 --    29 C    0.958
    62   1 H    0.984 --    30 C    0.966
    63   1 H    0.988 --    30 C    0.962
    64   1 H    0.993 --    30 C    0.978
    65   1 H    0.993 --    31 C    0.960
    66   1 H    0.991 --    32 C    0.975
    67   1 H    0.997 --    32 C    0.982
    68   1 H    0.994 --    32 C    0.982
    69   1 H    0.994 --    33 C    0.977
    70   1 H    0.997 --    33 C    0.983
    71   1 H    0.994 --    33 C    0.981
    72   1 H    0.971 --     1 N    0.943
 ---------------------------------------------------------------------------

molecular dipole:
                 x           y           z       tot (Debye)
 q only:        1.828       0.277      -0.828
   full:        2.321      -0.009      -0.799       6.238

           -------------------------------------------------
          | TOTAL ENERGY              -99.864753023225 Eh   |
          | GRADIENT NORM               0.003221761757 Eh/α |
          | HOMO-LUMO GAP               0.835714327878 eV   |
           -------------------------------------------------

 * finished run on 2024/04/06 at 11:17:03.372
