   * xtb version 6.6.1 (8d0f1dd) compiled by 'conda@1efc2f54142f' on 2023-08-01
          program call               : xtb xtbopt.xyz --opt crude --input .xc2 --gfn2

   ID    Z sym.   atoms
    1    7 N      1, 17
    2    6 C      2-6, 8, 9, 11-16, 18-23, 25, 26, 28-33
    3    8 O      7, 10, 24, 27
    4    1 H      34-72
########################################################################
[WARNING] Please study the warnings concerning your input carefully
-1- readin_getIntValue: could not parse ''
########################################################################

          :  Hamiltonian                  GFN2-xTB          :
 * total energy  :   -99.2419452 Eh     change       -0.1415401E-10 Eh
 * total energy  :   -99.3022252 Eh     change       -0.6028002E-01 Eh
 * total energy  :   -99.3036036 Eh     change       -0.1378343E-02 Eh
 * total energy  :   -99.3042880 Eh     change       -0.6844751E-03 Eh
 * total energy  :   -99.3043301 Eh     change       -0.4207952E-04 Eh
   *** GEOMETRY OPTIMIZATION CONVERGED AFTER 5 ITERATIONS ***

 final structure:
================
72
 xtb: 6.6.1 (8d0f1dd)
N           -1.93638210817734        2.82186092641944        2.28063322248477
C           -1.87475274240174        2.12821690351845        1.24347140039776
C           -3.01348619975646        1.92423524097969        0.28263301677805
C           -3.48028265482629        0.47784324755645        0.34805588676297
C           -4.39613926802642        0.00434665888743       -0.59389546999274
C           -4.86250261755669       -1.29868076739751       -0.55936965468734
O           -5.75376125427862       -1.83004863805745       -1.42303871246685
C           -6.36183396850986       -0.99734517245563       -2.38193539320879
C           -4.39167369628765       -2.18386038983469        0.44698662623628
O           -4.88944577240004       -3.43690211286813        0.39707057753404
C           -4.53427014653241       -4.35444025878448        1.40449344103332
C           -3.48603889458095       -1.70734258794794        1.38063023470828
C           -3.03946834156852       -0.39207535795317        1.33246139019861
C           -2.44442323914205        2.23316040073750       -1.12749443517969
C           -1.52066698679769        1.14188919470467       -1.69830880518347
C           -0.18815094092055        1.09992220432100       -1.05707422417644
N            0.45175446404450        0.00142173798727       -0.67531606410753
C            1.83802354324329        0.06681604978658       -0.27801405739776
C            2.78151942854042       -0.40468691667511       -1.39885818251421
C            4.20886853664367       -0.14804126169615       -0.98959948983749
C            4.80703460615636        1.03055954965299       -1.27000163869225
C            6.18325354420697        1.34385182236800       -0.87425676802277
C            6.87942106326517        0.25232028887865       -0.12609585695733
O            8.14093060190591        0.36987130405877        0.29175873615436
C            8.87454437997054        1.53807833990064        0.00502557060877
C            6.21628885877825       -0.94669706404159        0.16700046647538
O            6.95128243915525       -1.85167790955111        0.86560622114962
C            6.38024094524410       -3.09993094062514        1.17752773039591
C            4.90492298055564       -1.14344408274773       -0.25483612144146
C           -0.16122096915535       -1.30377404493698       -0.72741450598748
C           -4.23550105621481        2.84587684223149        0.57125679711429
C           -4.89087287099431        2.50564316284269        1.90768037294203
C           -3.88949146817790        4.33177411106889        0.53031238784969
H           -4.75965739331390        0.67128353707718       -1.35771581264402
H           -6.88804206484254       -0.16155283996813       -1.91094711709519
H           -7.08046201488175       -1.62772277857029       -2.90189083389947
H           -5.63285606030719       -0.61273439840531       -3.10284115151655
H           -4.82604087230576       -3.99473242447874        2.39564511524907
H           -5.08295780455861       -5.26590454306116        1.17564981876435
H           -3.46022874546844       -4.56677439242194        1.39424871436047
H           -3.12682170790647       -2.35026219834885        2.16778064333241
H           -2.35849224960152       -0.04976005863749        2.09626706184713
H           -3.27633418177192        2.36625490319575       -1.81815836162541
H           -1.89693476038872        3.17558949663262       -1.08653600778697
H           -2.02114691415992        0.17628161296299       -1.65334223819742
H           -1.36291372589378        1.38691334973912       -2.75686284411379
H           -0.95440352429425        1.61933411627370        0.89719060486053
H            0.37541489271739        2.02063172109495       -1.02096017851631
H            1.98657025861330       -0.55069686713064        0.61238489275333
H            2.09277668535725        1.09850521598071       -0.02749495485727
H            2.56073246343318        0.16204508259255       -2.30399267213205
H            2.62573605618759       -1.46488382623082       -1.60062787671054
H            6.76672430842031        1.60991750822915       -1.76806511700422
H            6.17522786668243        2.25816055962401       -0.26075121374217
H            8.39586375463998        2.42955702008739        0.42081150772130
H            9.00846941719913        1.67093957534684       -1.07295223478068
H            9.84651846407929        1.39760069978539        0.47408600685759
H            7.15464811184862       -3.64712740630745        1.71131439090878
H            5.50440961981307       -2.99151793911813        1.82582412522847
H            6.10423944610819       -3.65398795941363        0.27477745286224
H            4.40183298297504       -2.07284276874606       -0.03944875305583
H           -0.29510337658777       -1.63816131890487       -1.75862762543741
H           -1.13545361655237       -1.28804086233904       -0.23327844637044
H            0.47575011799246       -2.01822476860482       -0.21186219408277
H           -4.96655006205259        2.64765639486160       -0.22093475584870
H           -4.20270348114302        2.70830202165030        2.72177206411448
H           -5.18575648721964        1.45981599306339        1.94598474886632
H           -5.77919221014417        3.11697611699278        2.04331277746038
H           -3.14887370607601        4.56750065648000        1.28813393636665
H           -3.51569618364753        4.63542158922684       -0.44395375584515
H           -4.78479997812059        4.91168001167498        0.73857776510805
H           -1.09469792323628        2.90995921028787        2.84165266223068

          :  Hamiltonian                  GFN2-xTB          :
         :: total energy             -99.304330115596 Eh    ::
         :: gradient norm              0.000972893480 Eh/a0 ::
         :: HOMO-LUMO gap              0.837168782757 eV    ::
         :: SCC energy              -100.653031420399 Eh    ::
         :: -> dispersion             -0.074689597570 Eh    ::
         :: repulsion energy           1.347435719426 Eh    ::

    * Orbital Energies and Occupations

         #    Occupation            Energy/Eh            Energy/eV
      -------------------------------------------------------------
         1        2.0000           -0.8266757             -22.4950
       ...           ...                  ...                  ...
        78        1.9989           -0.5294437             -14.4069
        79        1.9985           -0.5240187             -14.2593
        80        1.9985           -0.5236511             -14.2493
        81        1.9978           -0.5180010             -14.0955
        82        1.9974           -0.5155448             -14.0287
        83        1.9964           -0.5102301             -13.8841
        84        1.9957           -0.5075126             -13.8101
        85        1.9949           -0.5048938             -13.7389
        86        1.9830           -0.4855824             -13.2134
        87        1.9436           -0.4662987             -12.6886
        88        1.9303           -0.4628254             -12.5941
        89        1.8868           -0.4547794             -12.3752
        90        1.3804           -0.4229182             -11.5082 (HOMO)
        91        0.4839           -0.3921528             -10.6710 (LUMO)
        92        0.3945           -0.3880099             -10.5583
        93        0.0157           -0.3336519              -9.0791
        94        0.0039           -0.3116462              -8.4803
        95        0.0032           -0.3084358              -8.3930
        96        0.0021           -0.3013187              -8.1993
        97        0.0000           -0.2255148              -6.1366
        98        0.0000           -0.1857678              -5.0550
        99                         -0.1297860              -3.5317
       100                         -0.0792098              -2.1554
       101                         -0.0639300              -1.7396
       ...                                ...                  ...
       171                          0.5776194              15.7178
      -------------------------------------------------------------
                  HL-Gap            0.0307654 Eh            0.8372 eV

     #   Z          covCN         q      C6AA      α(0)
     1   7 N        1.774    -0.271    27.857     7.816
     2   6 C        2.827     0.101    25.747     8.315
     3   6 C        3.907     0.006    20.417     6.423
     4   6 C        2.974     0.002    27.978     8.676
     5   6 C        2.921    -0.080    30.007     8.983
     6   6 C        2.863     0.129    25.180     8.225
     7   8 O        1.706    -0.232    17.854     5.705
     8   6 C        3.645     0.028    20.434     6.497
     9   6 C        2.864     0.127    25.205     8.229
    10   8 O        1.706    -0.231    17.835     5.702
    11   6 C        3.645     0.028    20.439     6.498
    12   6 C        2.914    -0.075    29.878     8.963
    13   6 C        2.921    -0.054    29.337     8.882
    14   6 C        3.812    -0.065    21.730     6.635
    15   6 C        3.802    -0.069    21.819     6.650
    16   6 C        2.844     0.006    27.870     8.652
    17   7 N        2.729     0.011    21.059     6.816
    18   6 C        3.757    -0.017    20.925     6.522
    19   6 C        3.809    -0.070    21.842     6.653
    20   6 C        2.956     0.007    27.859     8.657
    21   6 C        1.985    -0.134    34.812     9.528
    22   6 C        3.811    -0.063    21.697     6.630
    23   6 C        2.853     0.130    25.154     8.220
    24   8 O        1.706    -0.192    17.212     5.601
    25   6 C        3.645     0.020    20.575     6.519
    26   6 C        2.847     0.125    25.251     8.236
    27   8 O        1.706    -0.246    18.077     5.740
    28   6 C        3.643     0.031    20.394     6.492
    29   6 C        2.918    -0.071    29.777     8.948
    30   6 C        3.699    -0.069    22.000     6.708
    31   6 C        3.853    -0.007    20.672     6.467
    32   6 C        3.756    -0.118    22.821     6.811
    33   6 C        3.755    -0.118    22.820     6.811
    34   1 H        0.926     0.051     2.304     2.374
    35   1 H        0.924     0.053     2.285     2.364
    36   1 H        0.925     0.080     1.980     2.200
    37   1 H        0.924     0.046     2.366     2.405
    38   1 H        0.924     0.054     2.272     2.357
    39   1 H        0.925     0.080     1.981     2.201
    40   1 H        0.924     0.046     2.365     2.405
    41   1 H        0.926     0.050     2.315     2.379
    42   1 H        0.926     0.038     2.480     2.463
    43   1 H        0.925     0.059     2.207     2.323
    44   1 H        0.924     0.053     2.284     2.363
    45   1 H        0.925     0.066     2.134     2.285
    46   1 H        0.923     0.079     1.987     2.204
    47   1 H        0.922     0.004     2.982     2.701
    48   1 H        0.926     0.071     2.078     2.254
    49   1 H        0.924     0.063     2.159     2.298
    50   1 H        0.924     0.070     2.086     2.259
    51   1 H        0.924     0.061     2.186     2.312
    52   1 H        0.924     0.051     2.312     2.378
    53   1 H        0.923     0.096     1.824     2.112
    54   1 H        0.923     0.092     1.857     2.131
    55   1 H        0.924     0.062     2.172     2.305
    56   1 H        0.924     0.065     2.146     2.291
    57   1 H        0.925     0.091     1.866     2.136
    58   1 H        0.925     0.080     1.982     2.202
    59   1 H        0.924     0.046     2.376     2.411
    60   1 H        0.924     0.049     2.328     2.386
    61   1 H        0.926     0.051     2.302     2.372
    62   1 H        0.924     0.076     2.025     2.225
    63   1 H        0.924     0.079     1.989     2.205
    64   1 H        0.925     0.078     1.999     2.211
    65   1 H        0.924     0.036     2.502     2.474
    66   1 H        0.925     0.068     2.103     2.268
    67   1 H        0.925     0.035     2.518     2.481
    68   1 H        0.925     0.050     2.321     2.383
    69   1 H        0.925     0.060     2.198     2.318
    70   1 H        0.925     0.034     2.533     2.489
    71   1 H        0.925     0.053     2.281     2.362
    72   1 H        0.860     0.155     1.369     1.833

Wiberg/Mayer (AO) data.
largest (>0.10) Wiberg bond orders for each atom

     #   Z sym  total        # sym  WBO       # sym  WBO       # sym  WBO
 ---------------------------------------------------------------------------
     1   7 N    3.037 --     2 C    1.955    72 H    0.943
     2   6 C    3.929 --     1 N    1.955     3 C    0.995    47 H    0.903
     3   6 C    3.977 --     2 C    0.995     4 C    0.969    14 C    0.957
                            31 C    0.943
     4   6 C    3.953 --    13 C    1.417     5 C    1.367     3 C    0.969
     5   6 C    3.964 --     6 C    1.403     4 C    1.367    34 H    0.958
     6   6 C    3.909 --     5 C    1.403     9 C    1.225     7 O    1.096
     7   8 O    2.253 --     6 C    1.096     8 C    0.979
     8   6 C    3.933 --     7 O    0.979    36 H    0.977    35 H    0.974
                            37 H    0.974
     9   6 C    3.905 --    12 C    1.395     6 C    1.225    10 O    1.098
    10   8 O    2.252 --     9 C    1.098    11 C    0.978
    11   6 C    3.933 --    10 O    0.978    39 H    0.977    40 H    0.974
                            38 H    0.974
    12   6 C    3.964 --    13 C    1.401     9 C    1.395    41 H    0.964
    13   6 C    3.958 --     4 C    1.417    12 C    1.401    42 H    0.963
    14   6 C    3.973 --    15 C    0.981    44 H    0.972    43 H    0.969
                             3 C    0.957
    15   6 C    3.987 --    16 C    1.060    14 C    0.981    45 H    0.961
                            46 H    0.928
    16   6 C    3.589 --    17 N    1.402    15 C    1.060    48 H    0.957
    17   7 N    3.477 --    16 C    1.402    30 C    0.999    18 C    0.987
    18   6 C    3.956 --    17 N    0.987    19 C    0.968    50 H    0.967
                            49 H    0.964
    19   6 C    3.968 --    20 C    0.996    52 H    0.973    51 H    0.972
                            18 C    0.968
    20   6 C    3.924 --    21 C    1.584    29 C    1.240    19 C    0.996
    21   6 C    2.835 --    20 C    1.584    22 C    1.066
    22   6 C    3.955 --    21 C    1.066    23 C    1.009    53 H    0.904
                            54 H    0.902
    23   6 C    3.671 --    26 C    1.312    24 O    1.162    22 C    1.009
    24   8 O    2.290 --    23 C    1.162    25 C    0.971
    25   6 C    3.920 --    57 H    0.976    24 O    0.971    55 H    0.968
                            56 H    0.967
    26   6 C    3.912 --    29 C    1.362    23 C    1.312    27 O    1.072
    27   8 O    2.227 --    26 C    1.072    28 C    0.980
    28   6 C    3.934 --    27 O    0.980    58 H    0.977    59 H    0.975
                            60 H    0.974
    29   6 C    3.726 --    26 C    1.362    20 C    1.240    61 H    0.958
    30   6 C    3.958 --    17 N    0.999    64 H    0.978    62 H    0.966
                            63 H    0.962
    31   6 C    3.974 --    33 C    1.009    32 C    1.008    65 H    0.960
                             3 C    0.943
    32   6 C    3.980 --    31 C    1.008    67 H    0.982    68 H    0.982
                            66 H    0.975
    33   6 C    3.984 --    31 C    1.009    70 H    0.983    71 H    0.981
                            69 H    0.977
    34   1 H    0.996 --     5 C    0.958
    35   1 H    0.994 --     8 C    0.974
    36   1 H    0.993 --     8 C    0.977
    37   1 H    0.994 --     8 C    0.974
    38   1 H    0.993 --    11 C    0.974
    39   1 H    0.993 --    11 C    0.977
    40   1 H    0.994 --    11 C    0.974
    41   1 H    0.996 --    12 C    0.964
    42   1 H    0.998 --    13 C    0.963
    43   1 H    0.995 --    14 C    0.969
    44   1 H    0.996 --    14 C    0.972
    45   1 H    0.995 --    15 C    0.961
    46   1 H    0.970 --    15 C    0.928
    47   1 H    0.988 --     2 C    0.903
    48   1 H    0.995 --    16 C    0.957
    49   1 H    0.991 --    18 C    0.964
    50   1 H    0.994 --    18 C    0.967
    51   1 H    0.995 --    19 C    0.972
    52   1 H    0.997 --    19 C    0.973
    53   1 H    0.957 --    22 C    0.904
    54   1 H    0.956 --    22 C    0.902
    55   1 H    0.991 --    25 C    0.968
    56   1 H    0.990 --    25 C    0.967
    57   1 H    0.991 --    25 C    0.976
    58   1 H    0.993 --    28 C    0.977
    59   1 H    0.995 --    28 C    0.975
    60   1 H    0.995 --    28 C    0.974
    61   1 H    0.988 --    29 C    0.958
    62   1 H    0.984 --    30 C    0.966
    63   1 H    0.988 --    30 C    0.962
    64   1 H    0.994 --    30 C    0.978
    65   1 H    0.993 --    31 C    0.960
    66   1 H    0.992 --    32 C    0.975
    67   1 H    0.997 --    32 C    0.982
    68   1 H    0.994 --    32 C    0.982
    69   1 H    0.994 --    33 C    0.977
    70   1 H    0.997 --    33 C    0.983
    71   1 H    0.994 --    33 C    0.981
    72   1 H    0.971 --     1 N    0.943
 ---------------------------------------------------------------------------

molecular dipole:
                 x           y           z       tot (Debye)
 q only:        1.842       0.267      -0.821
   full:        2.353      -0.002      -0.815       6.328

           -------------------------------------------------
          | TOTAL ENERGY              -99.304330115596 Eh   |
          | GRADIENT NORM               0.000972893480 Eh/α |
          | HOMO-LUMO GAP               0.837168782757 eV   |
           -------------------------------------------------

 * finished run on 2024/04/06 at 11:17:04.518
