   * xtb version 6.6.1 (8d0f1dd) compiled by 'conda@1efc2f54142f' on 2023-08-01
          program call               : xtb struc.xyz --opt loose --input .xc1 --gfn2

   ID    Z sym.   atoms
    1    6 C      1, 3, 5-7, 10, 11, 14
    2    7 N      2, 4, 9, 13
    3    8 O      8, 12
    4    1 H      15-25
constraining bond 6 17 to    3.7133300 Å, actual value:    2.5833586 Å

          :  Hamiltonian                  GFN2-xTB          :
 * total energy  :   -44.5251137 Eh     change       -0.6633627E-10 Eh
 * total energy  :   -48.3463784 Eh     change       -0.3821265E+01 Eh
 * total energy  :   -53.9835632 Eh     change       -0.5637185E+01 Eh
 * total energy  :   -59.2774457 Eh     change       -0.5293882E+01 Eh
 * total energy  :   -58.6348700 Eh     change        0.6425758E+00 Eh
 * total energy  :   -59.3767319 Eh     change       -0.7418619E+00 Eh
 * total energy  :   -59.4069210 Eh     change       -0.3018909E-01 Eh
 * total energy  :   -59.4686512 Eh     change       -0.6173026E-01 Eh
 * total energy  :   -59.4812282 Eh     change       -0.1257698E-01 Eh
 * total energy  :   -59.5092761 Eh     change       -0.2804793E-01 Eh
 * total energy  :   -59.7093163 Eh     change       -0.2774331E-03 Eh
 * total energy  :   -59.7094999 Eh     change       -0.1835558E-03 Eh
 * total energy  :   -59.7097637 Eh     change       -0.2637984E-03 Eh
 * total energy  :   -59.7099152 Eh     change       -0.1514830E-03 Eh
 * total energy  :   -59.7100381 Eh     change       -0.1229795E-03 Eh
 * total energy  :   -59.7100855 Eh     change       -0.4734682E-04 Eh
 * total energy  :   -59.7101422 Eh     change       -0.5667942E-04 Eh
 * total energy  :   -59.7101571 Eh     change       -0.1490767E-04 Eh
 * total energy  :   -59.7101775 Eh     change       -0.2040728E-04 Eh
   *** GEOMETRY OPTIMIZATION CONVERGED AFTER 64 ITERATIONS ***

 final structure:
================
25
 xtb: 6.6.1 (8d0f1dd)
C            2.67840690215372        1.48309546430469       -0.00713761498999
N            2.55255975728723        0.12247365513595       -0.38560858083471
C            2.51098228892411       -1.05751970096843        0.14968776459225
N            1.34248413749211       -1.76053418094474        0.10526742639688
C            0.21120690839820       -1.03386481191961       -0.00624643583826
C            1.45654997060135        0.99184335657769       -0.77593962983581
C            0.30164855929289        0.49118503553816        0.25039232851134
O            0.59235043749897        0.61292979441867        1.49074440531960
N           -1.04925132503345        0.88391693853193       -0.18459283479221
C           -1.51391101969356        2.24875931595768       -0.06258343406219
C           -1.88143628071233       -0.16362753580702       -0.23717513487606
O           -3.05194380782147       -0.25167384823476       -0.40529706435751
N           -1.03194757361035       -1.38898499342975       -0.09211923778204
C           -1.64579235865251       -2.68534068255053       -0.00145285208164
H            2.55692951093305        1.67404311390785        1.05970551184439
H            3.41594756226024        2.07541091096941       -0.53199951487474
H            1.34022307381953        1.10089427977639       -1.16892331078431
H            3.39347832389515       -1.50910752125502        0.57831742379784
H           -0.99535793364495        2.87741082333639       -0.78619754109429
H           -2.58300193172005        2.26513292048643       -0.25737866044202
H           -1.31784640145155        2.61255319052249        0.94771134980962
H           -1.48889996431216       -3.11567880887847        0.98843546928673
H           -1.25138640121115       -3.35658890432102       -0.76422008991786
H           -2.71516374755342       -2.53944330697853       -0.16237757692982
H            1.33360282696135       -2.75904596257508        0.29015945183516

          :  Hamiltonian                  GFN2-xTB          :
         :: total energy             -59.710177484622 Eh    ::
         :: gradient norm              0.002809015924 Eh/a0 ::
         :: HOMO-LUMO gap              1.439707294738 eV    ::
         :: SCC energy               -42.641836226709 Eh    ::
         :: -> dispersion             -0.023259647356 Eh    ::
         :: repulsion energy           2.249222830783 Eh    ::

    * Orbital Energies and Occupations

         #    Occupation            Energy/Eh            Energy/eV
      -------------------------------------------------------------
         1        2.0000           -0.9117431             -24.8098
       ...           ...                  ...                  ...
        25        2.0000           -0.6705089             -18.2455
        26        2.0000           -0.6642450             -18.0750
        27        2.0000           -0.6562004             -17.8561
        28        2.0000           -0.6429002             -17.4942
        29        2.0000           -0.6394129             -17.3993
        30        2.0000           -0.6329583             -17.2237
        31        2.0000           -0.6247366             -16.9999
        32        2.0000           -0.6078708             -16.5410
        33        2.0000           -0.6067910             -16.5116
        34        1.9998           -0.5874141             -15.9844
        35        1.9873           -0.5541470             -15.0791
        36        1.9750           -0.5487311             -14.9317
        37        1.9481           -0.5428260             -14.7710 (HOMO)
        38        0.0898           -0.4899178             -13.3313 (LUMO)
        39        0.0000           -0.4214674             -11.4687
        40                         -0.3481046              -9.4724
        41                         -0.3058359              -8.3222
        42                         -0.2156906              -5.8692
        43                         -0.2045340              -5.5657
        44                         -0.1877355              -5.1085
        45                         -0.1660163              -4.5175
        46                         -0.1297901              -3.5318
        47                         -0.1172836              -3.1914
        48                         -0.0729269              -1.9844
       ...                                ...                  ...
        67                         10.8069616             294.0724
      -------------------------------------------------------------
                  HL-Gap            0.0529083 Eh            1.4397 eV

     #   Z          covCN         q      C6AA      α(0)
     1   6 C        3.738    -0.004    20.728     6.496
     2   7 N        2.751     0.021    20.885     6.787
     3   6 C        2.804     0.103    25.702     8.306
     4   7 N        2.696    -0.054    22.298     7.013
     5   6 C        2.953     0.117    25.430     8.271
     6   6 C        3.780    -0.052    21.530     6.610
     7   6 C        3.762     0.242    16.903     5.861
     8   8 O        0.862    -0.508    23.970     6.564
     9   7 N        2.765    -0.127    23.759     7.239
    10   6 C        3.692    -0.055    21.742     6.672
    11   6 C        2.788     0.326    21.472     7.590
    12   8 O        0.857    -0.327    20.284     6.038
    13   7 N        2.757    -0.027    21.768     6.929
    14   6 C        3.688    -0.075    22.130     6.733
    15   1 H        0.924     0.138     1.475     1.899
    16   1 H        0.925     0.126     1.568     1.958
    17   1 H        0.935     0.170     1.261     1.756
    18   1 H        0.926     0.139     1.470     1.896
    19   1 H        0.925     0.081     1.972     2.196
    20   1 H        0.925     0.105     1.740     2.063
    21   1 H        0.924     0.099     1.798     2.097
    22   1 H        0.924     0.102     1.768     2.079
    23   1 H        0.925     0.094     1.840     2.121
    24   1 H        0.924     0.132     1.519     1.927
    25   1 H        0.860     0.236     0.940     1.519

Wiberg/Mayer (AO) data.
largest (>0.10) Wiberg bond orders for each atom

     #   Z sym  total        # sym  WBO       # sym  WBO       # sym  WBO
 ---------------------------------------------------------------------------
     1   6 C    3.874 --    16 H    0.955     6 C    0.952     2 N    0.940
                            15 H    0.936
     2   7 N    3.561 --     3 C    1.504     6 C    0.942     1 C    0.940
     3   6 C    3.882 --     2 N    1.504     4 N    1.214    18 H    0.937
     4   7 N    3.592 --     5 C    1.218     3 C    1.214    25 H    0.908
     5   6 C    3.870 --    13 N    1.480     4 N    1.218     7 C    0.856
                             8 O    0.150
     6   6 C    3.861 --    17 H    0.954     1 C    0.952     2 N    0.942
                             7 C    0.825
     7   6 C    3.963 --     8 O    1.265     9 N    0.899     5 C    0.856
                             6 C    0.825
     8   8 O    1.801 --     7 C    1.265     5 C    0.150
     9   7 N    3.463 --    11 C    1.255    10 C    0.975     7 C    0.899
                            12 O    0.200
    10   6 C    3.926 --     9 N    0.975    19 H    0.972    20 H    0.972
                            21 H    0.964
    11   6 C    3.953 --    12 O    1.758     9 N    1.255    13 N    0.850
    12   8 O    2.139 --    11 C    1.758     9 N    0.200
    13   7 N    3.635 --     5 C    1.480    14 C    0.983    11 C    0.850
    14   6 C    3.922 --    13 N    0.983    24 H    0.962    23 H    0.962
                            22 H    0.955
    15   1 H    0.979 --     1 C    0.936
    16   1 H    0.981 --     1 C    0.955
    17   1 H    0.971 --     6 C    0.954
    18   1 H    0.980 --     3 C    0.937
    19   1 H    0.991 --    10 C    0.972
    20   1 H    0.987 --    10 C    0.972
    21   1 H    0.986 --    10 C    0.964
    22   1 H    0.985 --    14 C    0.955
    23   1 H    0.989 --    14 C    0.962
    24   1 H    0.982 --    14 C    0.962
    25   1 H    0.943 --     4 N    0.908
 ---------------------------------------------------------------------------

molecular dipole:
                 x           y           z       tot (Debye)
 q only:        2.626      -1.457      -1.005
   full:        2.879      -1.913      -0.950       9.112

           -------------------------------------------------
          | TOTAL ENERGY              -59.710177484622 Eh   |
          | GRADIENT NORM               0.002809015924 Eh/α |
          | HOMO-LUMO GAP               1.439707294738 eV   |
           -------------------------------------------------

 * finished run on 2024/06/05 at 19:58:12.997
