   * xtb version 6.6.1 (8d0f1dd) compiled by 'conda@1efc2f54142f' on 2023-08-01
          program call               : xtb xtbopt.xyz --opt crude --input .xc2 --gfn2

   ID    Z sym.   atoms
    1    6 C      1, 3, 5-7, 10, 11, 14
    2    7 N      2, 4, 9, 13
    3    8 O      8, 12
    4    1 H      15-25
########################################################################
[WARNING] Please study the warnings concerning your input carefully
-1- readin_getIntValue: could not parse ''
########################################################################

          :  Hamiltonian                  GFN2-xTB          :
 * total energy  :   -40.3924375 Eh     change       -0.7105427E-14 Eh
 * total energy  :   -42.0846133 Eh     change       -0.1692176E+01 Eh
 * total energy  :   -42.1148979 Eh     change       -0.3028458E-01 Eh
 * total energy  :   -42.1186822 Eh     change       -0.3784335E-02 Eh
 * total energy  :   -42.1193972 Eh     change       -0.7150264E-03 Eh
 * total energy  :   -42.1198502 Eh     change       -0.4529199E-03 Eh
 * total energy  :   -42.1204470 Eh     change       -0.5968375E-03 Eh
 * total energy  :   -42.1208862 Eh     change       -0.4391833E-03 Eh
 * total energy  :   -42.1211261 Eh     change       -0.2399411E-03 Eh
   *** GEOMETRY OPTIMIZATION CONVERGED AFTER 9 ITERATIONS ***

 final structure:
================
25
 xtb: 6.6.1 (8d0f1dd)
C            2.71410982899950        1.48507069069203        0.05923232305800
N            2.56889243169554        0.12912664231515       -0.35592393097015
C            2.51383628560837       -1.06622779836123        0.14525477899982
N            1.35098718443020       -1.75989711759097        0.11160833310983
C            0.21388085749705       -1.02759915182435       -0.02050114474410
C            1.47465626535391        1.00984886877617       -0.60992129555190
C            0.29973922698738        0.47873313576176        0.24965400056056
O            0.52201851654598        0.43530530339685        1.52629798023653
N           -1.04579021680696        0.88444267725150       -0.18930585755279
C           -1.51724844607201        2.24609796093857       -0.06432677105531
C           -1.87626754693408       -0.16694351124018       -0.25440532959634
O           -3.04634865787416       -0.25050072184081       -0.43212574801397
N           -1.03203492936369       -1.38873235998063       -0.10647446308112
C           -1.64887385877918       -2.68160839818164        0.01960631874085
H            2.67189097770825        1.65960091571142        1.13108902054653
H            3.42407115235463        2.08237761436290       -0.49763695424012
H            1.21915971249404        1.28183002276400       -1.62599091504152
H            3.40355009374008       -1.53805118299167        0.54212470338988
H           -1.01866164206902        2.87729334306515       -0.79945399477266
H           -2.59109438667500        2.25372366640193       -0.23728034435800
H           -1.30353676592562        2.61615450421477        0.93962964105588
H           -1.51696726626086       -3.07706429664882        1.02783012660020
H           -1.23820799622388       -3.37947455159987       -0.71063419987022
H           -2.71400614789044       -2.53972336971595       -0.17108898875156
H            1.33267684156090       -2.74554434407531        0.35391432920205

          :  Hamiltonian                  GFN2-xTB          :
         :: total energy             -42.121126129161 Eh    ::
         :: gradient norm              0.009601755921 Eh/a0 ::
         :: HOMO-LUMO gap              1.499091509755 eV    ::
         :: SCC energy               -42.624176781059 Eh    ::
         :: -> dispersion             -0.023245678625 Eh    ::
         :: repulsion energy           0.502869826731 Eh    ::

    * Orbital Energies and Occupations

         #    Occupation            Energy/Eh            Energy/eV
      -------------------------------------------------------------
         1        2.0000           -0.9089559             -24.7339
       ...           ...                  ...                  ...
        25        2.0000           -0.6692281             -18.2106
        26        2.0000           -0.6639339             -18.0666
        27        2.0000           -0.6544961             -17.8097
        28        2.0000           -0.6418810             -17.4665
        29        2.0000           -0.6376926             -17.3525
        30        2.0000           -0.6290974             -17.1186
        31        2.0000           -0.6252986             -17.0152
        32        2.0000           -0.6066280             -16.5072
        33        2.0000           -0.6048542             -16.4589
        34        1.9998           -0.5830541             -15.8657
        35        1.9891           -0.5530456             -15.0491
        36        1.9761           -0.5467303             -14.8773
        37        1.9553           -0.5416961             -14.7403 (HOMO)
        38        0.0798           -0.4866055             -13.2412 (LUMO)
        39        0.0000           -0.4170307             -11.3480
        40                         -0.3452185              -9.3939
        41                         -0.2940526              -8.0016
        42                         -0.2096497              -5.7049
        43                         -0.1895748              -5.1586
        44                         -0.1765042              -4.8029
        45                         -0.1648390              -4.4855
        46                         -0.1214484              -3.3048
        47                         -0.0830164              -2.2590
        48                         -0.0703965              -1.9156
       ...                                ...                  ...
        67                          0.6024546              16.3936
      -------------------------------------------------------------
                  HL-Gap            0.0550906 Eh            1.4991 eV

     #   Z          covCN         q      C6AA      α(0)
     1   6 C        3.738    -0.000    20.661     6.486
     2   7 N        2.748     0.027    20.783     6.771
     3   6 C        2.808     0.113    25.493     8.272
     4   7 N        2.695    -0.053    22.271     7.009
     5   6 C        2.987     0.124    25.280     8.248
     6   6 C        3.801     0.000    20.577     6.459
     7   6 C        3.781     0.245    16.847     5.847
     8   8 O        0.887    -0.510    24.002     6.569
     9   7 N        2.767    -0.129    23.789     7.244
    10   6 C        3.692    -0.054    21.741     6.672
    11   6 C        2.795     0.327    21.449     7.587
    12   8 O        0.857    -0.331    20.344     6.047
    13   7 N        2.760    -0.034    21.891     6.949
    14   6 C        3.688    -0.073    22.104     6.730
    15   1 H        0.925     0.136     1.493     1.911
    16   1 H        0.925     0.127     1.560     1.953
    17   1 H        0.925     0.103     1.758     2.073
    18   1 H        0.925     0.139     1.468     1.895
    19   1 H        0.925     0.079     1.993     2.208
    20   1 H        0.925     0.107     1.722     2.052
    21   1 H        0.924     0.096     1.822     2.111
    22   1 H        0.924     0.101     1.778     2.085
    23   1 H        0.924     0.091     1.869     2.138
    24   1 H        0.924     0.131     1.526     1.931
    25   1 H        0.860     0.240     0.925     1.507

Wiberg/Mayer (AO) data.
largest (>0.10) Wiberg bond orders for each atom

     #   Z sym  total        # sym  WBO       # sym  WBO       # sym  WBO
 ---------------------------------------------------------------------------
     1   6 C    3.875 --     6 C    0.966    16 H    0.956    15 H    0.943
                             2 N    0.920
     2   7 N    3.548 --     3 C    1.500     6 C    0.939     1 C    0.920
     3   6 C    3.886 --     2 N    1.500     4 N    1.257    18 H    0.937
     4   7 N    3.592 --     3 C    1.257     5 C    1.180    25 H    0.907
     5   6 C    3.867 --    13 N    1.452     4 N    1.180     7 C    0.864
                             8 O    0.208
     6   6 C    3.894 --     1 C    0.966    17 H    0.950     2 N    0.939
                             7 C    0.896
     7   6 C    3.965 --     8 O    1.192     9 N    0.904     6 C    0.896
                             5 C    0.864
     8   8 O    1.783 --     7 C    1.192     5 C    0.208
     9   7 N    3.460 --    11 C    1.247    10 C    0.976     7 C    0.904
                            12 O    0.199
    10   6 C    3.928 --     9 N    0.976    19 H    0.972    20 H    0.971
                            21 H    0.965
    11   6 C    3.954 --    12 O    1.756     9 N    1.247    13 N    0.862
    12   8 O    2.135 --    11 C    1.756     9 N    0.199
    13   7 N    3.626 --     5 C    1.452    14 C    0.982    11 C    0.862
    14   6 C    3.922 --    13 N    0.982    23 H    0.964    24 H    0.962
                            22 H    0.956
    15   1 H    0.980 --     1 C    0.943
    16   1 H    0.982 --     1 C    0.956
    17   1 H    0.988 --     6 C    0.950
    18   1 H    0.980 --     3 C    0.937
    19   1 H    0.991 --    10 C    0.972
    20   1 H    0.987 --    10 C    0.971
    21   1 H    0.987 --    10 C    0.965
    22   1 H    0.986 --    14 C    0.956
    23   1 H    0.990 --    14 C    0.964
    24   1 H    0.982 --    14 C    0.962
    25   1 H    0.941 --     4 N    0.907
 ---------------------------------------------------------------------------

molecular dipole:
                 x           y           z       tot (Debye)
 q only:        2.818      -1.329      -0.999
   full:        3.108      -1.715      -0.970       9.354

           -------------------------------------------------
          | TOTAL ENERGY              -42.121126129161 Eh   |
          | GRADIENT NORM               0.009601755921 Eh/α |
          | HOMO-LUMO GAP               1.499091509755 eV   |
           -------------------------------------------------

 * finished run on 2024/06/05 at 19:58:13.395
