   * xtb version 6.6.1 (8d0f1dd) compiled by 'conda@1efc2f54142f' on 2023-08-01
          program call               : xtb struc.xyz --opt loose --input .xc1 --gfn2

   ID    Z sym.   atoms
    1    6 C      1, 3, 5-7, 10, 11, 14
    2    7 N      2, 4, 9, 13
    3    8 O      8, 12
    4    1 H      15-25
constraining bond 19 20 to    3.2800000 Å, actual value:    1.7855871 Å

          :  Hamiltonian                  GFN2-xTB          :
 * total energy  :   -38.2602837 Eh     change       -0.6650680E-10 Eh
 * total energy  :   -40.3293431 Eh     change       -0.2069059E+01 Eh
 * total energy  :   -41.6527774 Eh     change       -0.1323434E+01 Eh
 * total energy  :   -42.0411440 Eh     change       -0.3883666E+00 Eh
 * total energy  :   -42.0684635 Eh     change       -0.2731953E-01 Eh
 * total energy  :   -42.0693280 Eh     change       -0.8645046E-03 Eh
 * total energy  :   -42.0701987 Eh     change       -0.8707196E-03 Eh
 * total energy  :   -42.0724193 Eh     change       -0.2220560E-02 Eh
 * total energy  :   -42.0731023 Eh     change       -0.6829982E-03 Eh
 * total energy  :   -42.0741482 Eh     change       -0.1045919E-02 Eh
 * total energy  :   -42.1872346 Eh     change       -0.3149508E-03 Eh
 * total energy  :   -42.1875933 Eh     change       -0.3587264E-03 Eh
 * total energy  :   -42.1877891 Eh     change       -0.1958032E-03 Eh
 * total energy  :   -42.1879222 Eh     change       -0.1330789E-03 Eh
 * total energy  :   -42.1880302 Eh     change       -0.1080222E-03 Eh
 * total energy  :   -42.1881070 Eh     change       -0.7677268E-04 Eh
 * total energy  :   -42.1881794 Eh     change       -0.7241568E-04 Eh
 * total energy  :   -42.1882277 Eh     change       -0.4824159E-04 Eh
 * total energy  :   -42.1882504 Eh     change       -0.2272396E-04 Eh
   *** GEOMETRY OPTIMIZATION CONVERGED AFTER 40 ITERATIONS ***

 final structure:
================
25
 xtb: 6.6.1 (8d0f1dd)
C            3.10779012605054        1.21790987609319        0.08652656081518
N            2.17497335358572        0.12358285040155        0.05755420782704
C            2.50025380969880       -1.18362423257534        0.04911932498827
N            1.37336061508720       -1.93209668904625        0.01758915070313
C            0.30536551084643       -1.09237134602330        0.00568920656880
C            0.79923537079638        0.21785639697381        0.03052987977799
C           -0.08672419222097        1.28919191797290        0.02137651035042
O            0.32139790856016        2.57169944400544       -0.01537737241573
N           -1.43510023538069        1.00444332609208        0.02605062916113
C           -2.36047607519202        1.97813209450573        0.06676987474972
C           -1.94809676305615       -0.33905203897837       -0.05216887713113
O           -3.13153794601293       -0.53442837409673       -0.10352635865610
N           -1.02305610933814       -1.36548860571881       -0.05282245715245
C           -1.49919302061123       -2.73564591507060       -0.09944154665310
H            3.69835460637431        1.18793056933016        1.00319518127542
H            3.78363009347798        1.16200121203456       -0.76756552951207
H            2.55641978324871        2.15363837644576        0.04832372974535
H            3.49739741615879       -1.56910569442742        0.06304374152308
H           -0.43308393955848        3.13560988494282       -0.25267959421633
H           -3.38012881980307        1.70026493763322       -0.07597918850480
H           -2.10922408456477        2.99021511535548        0.30781099880635
H           -1.16089087089958       -3.28341532241068        0.78035379359103
H           -1.14755137224699       -3.22746090011879       -1.00669061681479
H           -2.58747270392457       -2.71121618754413       -0.10782620923996
H            1.34478905302459       -2.94033215417623        0.00131657831359

          :  Hamiltonian                  GFN2-xTB          :
         :: total energy             -42.188250383399 Eh    ::
         :: gradient norm              0.003089166819 Eh/a0 ::
         :: HOMO-LUMO gap              1.464846599853 eV    ::
         :: SCC energy               -42.710336398978 Eh    ::
         :: -> dispersion             -0.022955881557 Eh    ::
         :: repulsion energy           0.521956575514 Eh    ::

    * Orbital Energies and Occupations

         #    Occupation            Energy/Eh            Energy/eV
      -------------------------------------------------------------
         1        2.0000           -0.8907059             -24.2373
       ...           ...                  ...                  ...
        25        2.0000           -0.6675282             -18.1644
        26        2.0000           -0.6613613             -17.9966
        27        2.0000           -0.6584341             -17.9169
        28        2.0000           -0.6451044             -17.5542
        29        2.0000           -0.6261435             -17.0382
        30        2.0000           -0.6209670             -16.8974
        31        2.0000           -0.6166900             -16.7810
        32        1.9999           -0.6115356             -16.6407
        33        1.9999           -0.6050683             -16.4647
        34        1.9999           -0.6032852             -16.4162
        35        1.9992           -0.5713671             -15.5477
        36        1.9971           -0.5518860             -15.0176
        37        1.6641           -0.4736385             -12.8884 (HOMO)
        38        0.2838           -0.4198064             -11.4235 (LUMO)
        39        0.0449           -0.3885321             -10.5725
        40        0.0113           -0.3664556              -9.9718
        41        0.0001           -0.2818409              -7.6693
        42        0.0000           -0.1977192              -5.3802
        43        0.0000           -0.1825391              -4.9671
        44                         -0.1450278              -3.9464
        45                         -0.1241550              -3.3784
        46                         -0.1044008              -2.8409
        47                         -0.0630991              -1.7170
        48                         -0.0436544              -1.1879
       ...                                ...                  ...
        67                          0.5338816              14.5277
      -------------------------------------------------------------
                  HL-Gap            0.0538321 Eh            1.4648 eV

     #   Z          covCN         q      C6AA      α(0)
     1   6 C        3.690    -0.088    22.383     6.771
     2   7 N        2.822     0.050    20.369     6.703
     3   6 C        3.034     0.030    27.290     8.569
     4   7 N        2.778    -0.057    22.340     7.020
     5   6 C        3.046     0.083    26.103     8.379
     6   6 C        3.084     0.002    27.892     8.658
     7   6 C        2.787     0.150    24.727     8.145
     8   8 O        1.659    -0.365    20.192     6.066
     9   7 N        2.741    -0.011    21.474     6.882
    10   6 C        2.815    -0.086    30.135     8.994
    11   6 C        2.740     0.303    21.851     7.654
    12   8 O        0.859    -0.360    20.897     6.129
    13   7 N        2.736    -0.050    22.211     7.000
    14   6 C        3.700    -0.072    22.046     6.715
    15   1 H        0.924     0.098     1.805     2.101
    16   1 H        0.924     0.097     1.813     2.106
    17   1 H        0.925     0.119     1.619     1.990
    18   1 H        0.927     0.113     1.671     2.021
    19   1 H        0.804     0.342     0.608     1.225
    20   1 H        0.927     0.112     1.677     2.025
    21   1 H        0.927     0.078     1.998     2.210
    22   1 H        0.925     0.082     1.961     2.190
    23   1 H        0.924     0.083     1.950     2.184
    24   1 H        0.925     0.124     1.578     1.964
    25   1 H        0.860     0.223     0.997     1.564

Wiberg/Mayer (AO) data.
largest (>0.10) Wiberg bond orders for each atom

     #   Z sym  total        # sym  WBO       # sym  WBO       # sym  WBO
 ---------------------------------------------------------------------------
     1   6 C    3.929 --     2 N    0.990    17 H    0.968    16 H    0.965
                            15 H    0.964
     2   7 N    3.591 --     3 C    1.299     6 C    1.134     1 C    0.990
     3   6 C    3.720 --     2 N    1.299     4 N    1.260    18 H    0.957
     4   7 N    3.565 --     3 C    1.260     5 C    1.200    25 H    0.922
     5   6 C    3.867 --     6 C    1.266     4 N    1.200    13 N    1.160
     6   6 C    3.939 --     7 C    1.279     5 C    1.266     2 N    1.134
     7   6 C    3.751 --     6 C    1.279     9 N    1.134     8 O    1.097
                            10 C    0.131
     8   8 O    2.102 --     7 C    1.097    19 H    0.836
     9   7 N    3.636 --    10 C    1.303     7 C    1.134    11 C    0.983
    10   6 C    3.536 --     9 N    1.303    20 H    0.963    21 H    0.958
                             7 C    0.131
    11   6 C    3.908 --    12 O    1.699    13 N    1.118     9 N    0.983
    12   8 O    2.032 --    11 C    1.699    13 N    0.146
    13   7 N    3.543 --     5 C    1.160    11 C    1.118    14 C    0.972
                            12 O    0.146
    14   6 C    3.927 --    13 N    0.972    22 H    0.972    23 H    0.971
                            24 H    0.966
    15   1 H    0.985 --     1 C    0.964
    16   1 H    0.985 --     1 C    0.965
    17   1 H    0.986 --     1 C    0.968
    18   1 H    0.986 --     3 C    0.957
    19   1 H    0.882 --     8 O    0.836
    20   1 H    0.987 --    10 C    0.963
    21   1 H    0.993 --    10 C    0.958
    22   1 H    0.991 --    14 C    0.972
    23   1 H    0.990 --    14 C    0.971
    24   1 H    0.984 --    14 C    0.966
    25   1 H    0.950 --     4 N    0.922
 ---------------------------------------------------------------------------

molecular dipole:
                 x           y           z       tot (Debye)
 q only:        2.205      -0.782      -0.069
   full:        2.324      -0.925      -0.081       6.361

           -------------------------------------------------
          | TOTAL ENERGY              -42.188250383399 Eh   |
          | GRADIENT NORM               0.003089166819 Eh/α |
          | HOMO-LUMO GAP               1.464846599853 eV   |
           -------------------------------------------------

 * finished run on 2024/06/05 at 19:58:01.998
