   * xtb version 6.6.1 (8d0f1dd) compiled by 'conda@1efc2f54142f' on 2023-08-01
          program call               : xtb struc.xyz --opt loose --input .xc1 --gfn2

   ID    Z sym.   atoms
    1    6 C      1, 3, 5-7, 10, 11, 14
    2    7 N      2, 4, 9, 13
    3    8 O      8, 12
    4    1 H      15-25
constraining bond 13 25 to    5.0600000 Å, actual value:    2.8316178 Å

          :  Hamiltonian                  GFN2-xTB          :
 * total energy  :    -6.7822840 Eh     change       -0.6650680E-10 Eh
 * total energy  :   -24.8063988 Eh     change       -0.1802411E+02 Eh
 * total energy  :   -34.6126355 Eh     change       -0.9806237E+01 Eh
 * total energy  :   -39.6785634 Eh     change       -0.5065928E+01 Eh
 * total energy  :   -41.5308973 Eh     change       -0.1852334E+01 Eh
 * total energy  :   -41.7666129 Eh     change       -0.2357155E+00 Eh
 * total energy  :   -41.7909390 Eh     change       -0.2432613E-01 Eh
 * total energy  :   -41.8179268 Eh     change       -0.2698781E-01 Eh
 * total energy  :   -41.8311593 Eh     change       -0.1323253E-01 Eh
 * total energy  :   -41.8444815 Eh     change       -0.1332221E-01 Eh
 * total energy  :   -42.1315861 Eh     change       -0.5440354E-04 Eh
 * total energy  :   -42.1316337 Eh     change       -0.4760573E-04 Eh
 * total energy  :   -42.1316919 Eh     change       -0.5819279E-04 Eh
 * total energy  :   -42.1317643 Eh     change       -0.7236081E-04 Eh
 * total energy  :   -42.1318298 Eh     change       -0.6556398E-04 Eh
 * total energy  :   -42.1318063 Eh     change        0.2351198E-04 Eh
 * total energy  :   -42.1318418 Eh     change       -0.3547173E-04 Eh
 * total energy  :   -42.1319249 Eh     change       -0.8317272E-04 Eh
 * total energy  :   -42.1319522 Eh     change       -0.2726577E-04 Eh
   *** GEOMETRY OPTIMIZATION CONVERGED AFTER 37 ITERATIONS ***

 final structure:
================
25
 xtb: 6.6.1 (8d0f1dd)
C            3.18745967380397        1.18413864179408        0.04112997844014
N            2.19904940109156        0.14385719123372        0.01471964070788
C            2.41587311174179       -1.19269300564100        0.01437082817478
N            1.30576738918808       -1.89449492753556        0.00883982537031
C            0.30418968640421       -0.98966749289439        0.00690929894911
C            0.84766979567078        0.30601165231852        0.00949643813396
C            0.01406277888636        1.48352270794737       -0.00486861991422
O            0.40719823049310        2.62870973921695       -0.01326095550007
N           -1.33926020960496        1.15202444212908       -0.01203861371104
C           -2.29602911286717        2.24436368650455       -0.02314020478483
C           -1.89897968261975       -0.12099192065904       -0.00258122076144
O           -3.09161027224194       -0.27857253296701       -0.00334439325759
N           -1.02290397761919       -1.21152743280996        0.00646672569945
C           -1.55645149169099       -2.55156499970476        0.02944370534983
H            3.72352829286903        1.17158569786834        0.99256938930456
H            3.90869679475499        1.03943874906526       -0.76424061576219
H            2.69407116315279        2.14864669707119       -0.07663048972908
H            3.39549333150555       -1.62924994247946        0.01758348976907
H           -1.74488226339002        3.18289073933488       -0.02204738167891
H           -2.92873965606311        2.17755831899457       -0.90991767132124
H           -2.94256393560945        2.18276367622048        0.85389768083937
H           -1.17724471962846       -3.08209425738262        0.90433001044140
H           -1.24170579694214       -3.09361824789072       -0.86284628317007
H           -2.64349945218264       -2.49028334940169        0.06464603864454
H            2.64124243499752       -4.69251528873276       -0.23831498233377

          :  Hamiltonian                  GFN2-xTB          :
         :: total energy             -42.131952214826 Eh    ::
         :: gradient norm              0.001677596600 Eh/a0 ::
         :: HOMO-LUMO gap              0.694279460873 eV    ::
         :: SCC energy               -42.643571855713 Eh    ::
         :: -> dispersion             -0.022387607125 Eh    ::
         :: repulsion energy           0.511527665323 Eh    ::

    * Orbital Energies and Occupations

         #    Occupation            Energy/Eh            Energy/eV
      -------------------------------------------------------------
         1        2.0000           -0.8923192             -24.2812
       ...           ...                  ...                  ...
        25        1.9996           -0.6668861             -18.1469
        26        1.9991           -0.6563863             -17.8612
        27        1.9982           -0.6451859             -17.5564
        28        1.9976           -0.6402814             -17.4229
        29        1.9943           -0.6265951             -17.0505
        30        1.9890           -0.6161368             -16.7659
        31        1.9869           -0.6132625             -16.6877
        32        1.9778           -0.6048890             -16.4599
        33        1.9644           -0.5973075             -16.2536
        34        1.9150           -0.5830961             -15.8669
        35        1.8841           -0.5779391             -15.7265
        36        1.8743           -0.5765649             -15.6891
        37        1.5717           -0.5543709             -15.0852 (HOMO)
        38        0.8456           -0.5288566             -14.3909 (LUMO)
        39        0.0030           -0.4306838             -11.7195
        40        0.0002           -0.3890431             -10.5864
        41        0.0001           -0.3731417             -10.1537
        42        0.0000           -0.2944023              -8.0111
        43                         -0.2051908              -5.5835
        44                         -0.1575006              -4.2858
        45                         -0.1366439              -3.7183
        46                         -0.0786998              -2.1415
        47                         -0.0580873              -1.5806
        48                         -0.0379647              -1.0331
       ...                                ...                  ...
        67                          0.5352096              14.5638
      -------------------------------------------------------------
                  HL-Gap            0.0255143 Eh            0.6943 eV

     #   Z          covCN         q      C6AA      α(0)
     1   6 C        3.689    -0.082    22.271     6.754
     2   7 N        2.829     0.052    20.338     6.698
     3   6 C        3.187     0.097    25.425     8.227
     4   7 N        1.898    -0.208    26.350     7.610
     5   6 C        3.166     0.134    24.762     8.132
     6   6 C        3.121    -0.007    28.013     8.668
     7   6 C        2.764     0.274    22.374     7.746
     8   8 O        0.858    -0.332    20.361     6.050
     9   7 N        2.746    -0.068    22.568     7.056
    10   6 C        3.708    -0.062    21.844     6.680
    11   6 C        2.728     0.317    21.614     7.611
    12   8 O        0.860    -0.330    20.328     6.045
    13   7 N        2.739    -0.018    21.590     6.901
    14   6 C        3.700    -0.073    22.059     6.717
    15   1 H        0.924     0.109     1.705     2.042
    16   1 H        0.924     0.107     1.721     2.052
    17   1 H        0.925     0.126     1.565     1.956
    18   1 H        0.926     0.107     1.719     2.050
    19   1 H        0.925     0.123     1.591     1.973
    20   1 H        0.924     0.115     1.652     2.010
    21   1 H        0.924     0.115     1.651     2.010
    22   1 H        0.924     0.113     1.671     2.021
    23   1 H        0.924     0.114     1.667     2.019
    24   1 H        0.925     0.127     1.555     1.950
    25   1 H        0.000     0.150     3.468     3.405

Wiberg/Mayer (AO) data.
largest (>0.10) Wiberg bond orders for each atom

     #   Z sym  total        # sym  WBO       # sym  WBO       # sym  WBO
 ---------------------------------------------------------------------------
     1   6 C    3.904 --     2 N    0.995    17 H    0.960    16 H    0.956
                            15 H    0.949
     2   7 N    3.637 --     3 C    1.267     6 C    1.218     1 C    0.995
     3   6 C    3.869 --     4 N    1.489     2 N    1.267    18 H    0.955
     4   7 N    2.963 --     3 C    1.489     5 C    1.268
     5   6 C    3.900 --     4 N    1.268     6 C    1.254    13 N    1.208
     6   6 C    3.796 --     5 C    1.254     2 N    1.218     7 C    1.075
     7   6 C    3.946 --     8 O    1.671     9 N    1.103     6 C    1.075
     8   8 O    1.959 --     7 C    1.671     9 N    0.127
     9   7 N    3.501 --    11 C    1.105     7 C    1.103    10 C    0.979
                             8 O    0.127    12 O    0.117
    10   6 C    3.868 --     9 N    0.979    19 H    0.959    21 H    0.943
                            20 H    0.943
    11   6 C    3.951 --    12 O    1.685     9 N    1.105    13 N    1.070
    12   8 O    1.974 --    11 C    1.685     9 N    0.117    13 N    0.101
    13   7 N    3.483 --     5 C    1.208    11 C    1.070    14 C    0.983
                            12 O    0.101
    14   6 C    3.885 --    13 N    0.983    24 H    0.962    22 H    0.948
                            23 H    0.946
    15   1 H    0.975 --     1 C    0.949
    16   1 H    0.978 --     1 C    0.956
    17   1 H    0.978 --     1 C    0.960
    18   1 H    0.986 --     3 C    0.955
    19   1 H    0.978 --    10 C    0.959
    20   1 H    0.961 --    10 C    0.943
    21   1 H    0.961 --    10 C    0.943
    22   1 H    0.964 --    14 C    0.948
    23   1 H    0.962 --    14 C    0.946
    24   1 H    0.980 --    14 C    0.962
    25   1 H    0.004
 ---------------------------------------------------------------------------

molecular dipole:
                 x           y           z       tot (Debye)
 q only:        1.747      -1.629      -0.024
   full:        2.019      -1.508      -0.018       6.405

           -------------------------------------------------
          | TOTAL ENERGY              -42.131952214826 Eh   |
          | GRADIENT NORM               0.001677596600 Eh/α |
          | HOMO-LUMO GAP               0.694279460873 eV   |
           -------------------------------------------------

 * finished run on 2024/06/05 at 20:00:19.310
