   * xtb version 6.6.1 (8d0f1dd) compiled by 'conda@1efc2f54142f' on 2023-08-01
          program call               : xtb struc.xyz --opt loose --input .xc1 --gfn2

   ID    Z sym.   atoms
    1    7 N      1, 17
    2    6 C      2-6, 8, 9, 11-16, 18-23, 25, 26, 28-33
    3    8 O      7, 10, 24, 27
    4    1 H      34-72
constraining bond 56 57 to    3.2800000 Å, actual value:    1.7803375 Å

          :  Hamiltonian                  GFN2-xTB          :
 * total energy  :   -99.0025670 Eh     change       -0.4035485E-08 Eh
 * total energy  :   -99.1626237 Eh     change       -0.1600567E+00 Eh
 * total energy  :   -99.2363411 Eh     change       -0.7371744E-01 Eh
 * total energy  :   -99.2541816 Eh     change       -0.1784043E-01 Eh
 * total energy  :   -99.2570682 Eh     change       -0.2886639E-02 Eh
 * total energy  :   -99.2578522 Eh     change       -0.7840226E-03 Eh
 * total energy  :   -99.2585929 Eh     change       -0.7407040E-03 Eh
 * total energy  :   -99.2590913 Eh     change       -0.4983347E-03 Eh
 * total energy  :   -99.2599141 Eh     change       -0.8228222E-03 Eh
 * total energy  :   -99.2616487 Eh     change       -0.1734577E-02 Eh
 * total energy  :   -99.3333808 Eh     change       -0.1156594E-02 Eh
 * total energy  :   -99.3340002 Eh     change       -0.6193681E-03 Eh
 * total energy  :   -99.3342164 Eh     change       -0.2162664E-03 Eh
 * total energy  :   -99.3343724 Eh     change       -0.1560127E-03 Eh
 * total energy  :   -99.3344974 Eh     change       -0.1249833E-03 Eh
 * total energy  :   -99.3346673 Eh     change       -0.1698947E-03 Eh
 * total energy  :   -99.3347433 Eh     change       -0.7599578E-04 Eh
 * total energy  :   -99.3348593 Eh     change       -0.1159463E-03 Eh
 * total energy  :   -99.3349091 Eh     change       -0.4988380E-04 Eh
   *** GEOMETRY OPTIMIZATION CONVERGED AFTER 48 ITERATIONS ***

 final structure:
================
72
 xtb: 6.6.1 (8d0f1dd)
N           -1.86894745694737        2.82352905836723        2.23211364885522
C           -1.81594504353800        2.11889809587762        1.20170953788340
C           -2.95642461088946        1.91093470613968        0.24491566052816
C           -3.42085013059537        0.46368230453272        0.31661507037757
C           -4.34821052091521       -0.01052985229423       -0.61354593022728
C           -4.82162766145253       -1.31045524888801       -0.56643831792225
O           -5.72728399292193       -1.84041483408208       -1.41675238696721
C           -6.34589073966234       -1.00598106365502       -2.36723319198861
C           -4.34545374999520       -2.19219308538514        0.43986408211708
O           -4.85656287864136       -3.44094641405651        0.40729847117322
C           -4.50483621712446       -4.34985511070254        1.42358082747958
C           -3.42326440747252       -1.71709642807732        1.35769068067946
C           -2.97063025861725       -0.40446031047870        1.29797972133489
C           -2.39081743726273        2.21334911753704       -1.16782998395194
C           -1.44730828295919        1.13047474133090       -1.72140380528508
C           -0.11823476335127        1.11870890820259       -1.07036651467250
N            0.55285846064203        0.02694506632501       -0.70708292697453
C            1.92172201919797        0.12766943409807       -0.26061429515959
C            2.92267936098368       -0.24014409177050       -1.37204738465059
C            4.32821490683777       -0.03204317988010       -0.87267973898609
C            4.97650207544087        1.13027288722119       -1.10233518464930
C            6.32941198348494        1.40521752986849       -0.55348005670969
C            6.94392573054949        0.21879939166326        0.10203229895923
O            8.24528380850186        0.24708277276427        0.32349093848997
C            8.96733281193507        1.31568073889370        0.14192406280291
C            6.22543724005020       -0.97243399013262        0.34377636379165
O            6.91177601259457       -1.92813499282690        1.00671999949603
C            6.30396219961326       -3.18536203781376        1.21266522761786
C            4.92674298635065       -1.07812834647777       -0.11446972714182
C           -0.02786410592421       -1.29099269850355       -0.79589028011261
C           -4.17916042186983        2.83113968645372        0.53416767184156
C           -4.82598664487777        2.49549229447925        1.87603005086936
C           -3.83787629567610        4.31790994048372        0.48453366505291
H           -4.71688328942547        0.65416800918596       -1.37680328713879
H           -6.85786290915082       -0.16516935308166       -1.88942851635732
H           -7.07795411119663       -1.63232839353481       -2.87313065856350
H           -5.62680770220683       -0.62838171520732       -3.10172189123131
H           -4.77866159005359       -3.97114204371759        2.41284102858478
H           -5.07152331695692       -5.25503891007503        1.21445261548689
H           -3.43474364261906       -4.58072258376729        1.40400097008870
H           -3.05718697779122       -2.35840602729864        2.14306978755593
H           -2.27870466975847       -0.06249674289386        2.05212415653483
H           -3.22402144618603        2.32196807571436       -1.86125265429183
H           -1.86066180565592        3.16602733379890       -1.13845396153093
H           -1.93299097012991        0.15802794829073       -1.66114921564492
H           -1.29261374852573        1.36003255428174       -2.78412896390373
H           -0.89936093834901        1.60122537825472        0.85617514769160
H            0.42121561053740        2.05277371819317       -1.02040498503747
H            2.06890497655179       -0.53445851931682        0.59694577154244
H            2.11985618649114        1.15190385447547        0.06251463831626
H            2.73602540908683        0.39507504304579       -2.23881298538327
H            2.77837766235344       -1.27978184400103       -1.66789609602790
H            4.51687625860824        1.92123938891096       -1.67405692174148
H            6.26163400147789        2.25758949020481        0.14409228049570
H            8.56774324426799        2.29907494440525       -0.00828391760712
H            7.07257247963317        1.71622442229992       -1.31649535692941
H           10.01895607299565        1.15665429237487        0.12031179670141
H            7.05729264128750       -3.79622610996974        1.70509692922969
H            5.42528598309148       -3.10211579695886        1.86041129135888
H            6.02096883671279       -3.65072524582748        0.26384859154002
H            4.36195934222515       -1.97977130197350        0.04896217704948
H           -0.19231805713225       -1.58148747778800       -1.83579639359740
H           -0.98412939435019       -1.32370279714246       -0.26744941176339
H            0.64513349729137       -2.01104655314577       -0.33773755566150
H           -4.91389555100698        2.62749264567248       -0.25311834112139
H           -4.13426351770580        2.70583679826140        2.68513054850664
H           -5.11564728495152        1.44851283457762        1.92180893141833
H           -5.71643222463744        3.10336289909857        2.01325793856281
H           -3.09042826446304        4.55846349316402        1.23403952189081
H           -3.47523961525427        4.61916712104187       -0.49472109811057
H           -4.73285093533291        4.89579965482752        0.69976853377778
H           -1.02377861826620        2.90990604890273        2.78831614395898

          :  Hamiltonian                  GFN2-xTB          :
         :: total energy             -99.334909150621 Eh    ::
         :: gradient norm              0.003081828098 Eh/a0 ::
         :: HOMO-LUMO gap              1.161445609505 eV    ::
         :: SCC energy              -100.700285530995 Eh    ::
         :: -> dispersion             -0.075174070716 Eh    ::
         :: repulsion energy           1.363741494779 Eh    ::

    * Orbital Energies and Occupations

         #    Occupation            Energy/Eh            Energy/eV
      -------------------------------------------------------------
         1        2.0000           -0.8477227             -23.0677
       ...           ...                  ...                  ...
        78        1.9992           -0.5308796             -14.4460
        79        1.9986           -0.5229448             -14.2301
        80        1.9986           -0.5223821             -14.2147
        81        1.9985           -0.5211570             -14.1814
        82        1.9979           -0.5163181             -14.0497
        83        1.9967           -0.5090477             -13.8519
        84        1.9961           -0.5063996             -13.7798
        85        1.9954           -0.5035777             -13.7030
        86        1.9839           -0.4837497             -13.1635
        87        1.9806           -0.4807522             -13.0819
        88        1.9483           -0.4649945             -12.6531
        89        1.8928           -0.4529794             -12.3262
        90        1.6114           -0.4300354             -11.7019 (HOMO)
        91        0.4374           -0.3873530             -10.5404 (LUMO)
        92        0.1415           -0.3667348              -9.9794
        93        0.0172           -0.3323156              -9.0428
        94        0.0041           -0.3097141              -8.4278
        95        0.0035           -0.3069610              -8.3528
        96        0.0034           -0.3064125              -8.3379
        97        0.0000           -0.2283502              -6.2137
        98        0.0000           -0.1837693              -5.0006
        99                         -0.1320501              -3.5933
       100                         -0.0729845              -1.9860
       101                         -0.0623151              -1.6957
       ...                                ...                  ...
       171                          0.5796961              15.7743
      -------------------------------------------------------------
                  HL-Gap            0.0426823 Eh            1.1614 eV

     #   Z          covCN         q      C6AA      α(0)
     1   7 N        1.773    -0.273    27.897     7.821
     2   6 C        2.827     0.101    25.755     8.316
     3   6 C        3.907     0.006    20.416     6.422
     4   6 C        2.974     0.002    27.985     8.677
     5   6 C        2.921    -0.080    30.004     8.983
     6   6 C        2.863     0.128    25.184     8.226
     7   8 O        1.706    -0.233    17.870     5.708
     8   6 C        3.645     0.029    20.426     6.496
     9   6 C        2.864     0.127    25.209     8.230
    10   8 O        1.706    -0.232    17.852     5.705
    11   6 C        3.645     0.028    20.432     6.496
    12   6 C        2.914    -0.075    29.879     8.963
    13   6 C        2.921    -0.054    29.340     8.883
    14   6 C        3.812    -0.064    21.724     6.634
    15   6 C        3.802    -0.068    21.805     6.648
    16   6 C        2.843     0.002    27.964     8.666
    17   7 N        2.729     0.004    21.192     6.837
    18   6 C        3.756    -0.015    20.902     6.519
    19   6 C        3.809    -0.073    21.879     6.658
    20   6 C        2.956     0.006    27.891     8.662
    21   6 C        2.907    -0.060    29.499     8.906
    22   6 C        3.807    -0.069    21.808     6.648
    23   6 C        2.888     0.085    26.099     8.376
    24   8 O        1.711    -0.077    15.510     5.317
    25   6 C        2.762     0.000    28.007     8.667
    26   6 C        2.848     0.137    25.005     8.195
    27   8 O        1.706    -0.240    17.973     5.724
    28   6 C        3.644     0.027    20.453     6.500
    29   6 C        2.917    -0.095    30.390     9.040
    30   6 C        3.699    -0.068    21.979     6.705
    31   6 C        3.853    -0.007    20.674     6.467
    32   6 C        3.756    -0.118    22.817     6.811
    33   6 C        3.755    -0.118    22.814     6.811
    34   1 H        0.926     0.051     2.312     2.378
    35   1 H        0.924     0.052     2.292     2.368
    36   1 H        0.925     0.079     1.986     2.204
    37   1 H        0.924     0.046     2.372     2.409
    38   1 H        0.924     0.053     2.280     2.361
    39   1 H        0.925     0.079     1.987     2.204
    40   1 H        0.924     0.046     2.370     2.407
    41   1 H        0.926     0.050     2.325     2.384
    42   1 H        0.926     0.037     2.495     2.470
    43   1 H        0.925     0.058     2.218     2.329
    44   1 H        0.924     0.052     2.298     2.371
    45   1 H        0.925     0.065     2.139     2.287
    46   1 H        0.923     0.076     2.020     2.223
    47   1 H        0.922     0.005     2.979     2.699
    48   1 H        0.926     0.065     2.139     2.287
    49   1 H        0.924     0.066     2.126     2.280
    50   1 H        0.924     0.065     2.143     2.290
    51   1 H        0.924     0.054     2.268     2.355
    52   1 H        0.924     0.058     2.227     2.334
    53   1 H        0.926     0.046     2.365     2.405
    54   1 H        0.923     0.072     2.064     2.247
    55   1 H        0.926     0.060     2.199     2.319
    56   1 H        0.922     0.072     2.060     2.244
    57   1 H        0.927     0.085     1.929     2.172
    58   1 H        0.925     0.081     1.968     2.194
    59   1 H        0.924     0.049     2.328     2.386
    60   1 H        0.924     0.052     2.289     2.366
    61   1 H        0.926     0.046     2.370     2.407
    62   1 H        0.924     0.074     2.040     2.234
    63   1 H        0.924     0.078     1.999     2.211
    64   1 H        0.925     0.077     2.007     2.216
    65   1 H        0.924     0.036     2.508     2.477
    66   1 H        0.925     0.068     2.110     2.271
    67   1 H        0.925     0.035     2.521     2.483
    68   1 H        0.925     0.049     2.329     2.387
    69   1 H        0.925     0.060     2.202     2.321
    70   1 H        0.925     0.033     2.543     2.494
    71   1 H        0.925     0.053     2.287     2.365
    72   1 H        0.860     0.153     1.378     1.839

Wiberg/Mayer (AO) data.
largest (>0.10) Wiberg bond orders for each atom

     #   Z sym  total        # sym  WBO       # sym  WBO       # sym  WBO
 ---------------------------------------------------------------------------
     1   7 N    3.038 --     2 C    1.953    72 H    0.943
     2   6 C    3.926 --     1 N    1.953     3 C    0.996    47 H    0.900
     3   6 C    3.978 --     2 C    0.996     4 C    0.969    14 C    0.957
                            31 C    0.944
     4   6 C    3.954 --    13 C    1.418     5 C    1.367     3 C    0.969
     5   6 C    3.965 --     6 C    1.404     4 C    1.367    34 H    0.958
     6   6 C    3.910 --     5 C    1.404     9 C    1.226     7 O    1.095
     7   8 O    2.253 --     6 C    1.095     8 C    0.979
     8   6 C    3.934 --     7 O    0.979    36 H    0.977    35 H    0.974
                            37 H    0.974
     9   6 C    3.906 --    12 C    1.396     6 C    1.226    10 O    1.096
    10   8 O    2.251 --     9 C    1.096    11 C    0.979
    11   6 C    3.934 --    10 O    0.979    39 H    0.977    40 H    0.974
                            38 H    0.974
    12   6 C    3.965 --    13 C    1.401     9 C    1.396    41 H    0.964
    13   6 C    3.959 --     4 C    1.418    12 C    1.401    42 H    0.963
    14   6 C    3.973 --    15 C    0.983    44 H    0.973    43 H    0.969
                             3 C    0.957
    15   6 C    3.987 --    16 C    1.059    14 C    0.983    45 H    0.961
                            46 H    0.929
    16   6 C    3.564 --    17 N    1.379    15 C    1.059    48 H    0.958
    17   7 N    3.457 --    16 C    1.379    30 C    0.999    18 C    0.990
    18   6 C    3.960 --    17 N    0.990    19 C    0.970    50 H    0.968
                            49 H    0.964
    19   6 C    3.977 --    20 C    1.004    51 H    0.973    52 H    0.971
                            18 C    0.970
    20   6 C    3.968 --    21 C    1.659    29 C    1.219    19 C    1.004
    21   6 C    3.840 --    20 C    1.659    22 C    1.041    53 H    0.967
    22   6 C    3.986 --    21 C    1.041    23 C    1.027    54 H    0.920
                            56 H    0.920
    23   6 C    3.772 --    26 C    1.244    24 O    1.169    22 C    1.027
                            25 C    0.212
    24   8 O    2.549 --    25 C    1.266    23 C    1.169
    25   6 C    3.574 --    24 O    1.266    57 H    0.969    55 H    0.966
                            23 C    0.212
    26   6 C    3.901 --    29 C    1.411    23 C    1.244    27 O    1.095
    27   8 O    2.258 --    26 C    1.095    28 C    0.975
    28   6 C    3.932 --    58 H    0.977    27 O    0.975    60 H    0.975
                            59 H    0.975
    29   6 C    3.808 --    26 C    1.411    20 C    1.219    61 H    0.965
    30   6 C    3.959 --    17 N    0.999    64 H    0.978    62 H    0.967
                            63 H    0.962
    31   6 C    3.975 --    33 C    1.009    32 C    1.008    65 H    0.961
                             3 C    0.944
    32   6 C    3.982 --    31 C    1.008    67 H    0.982    68 H    0.982
                            66 H    0.975
    33   6 C    3.985 --    31 C    1.009    70 H    0.983    71 H    0.981
                            69 H    0.977
    34   1 H    0.996 --     5 C    0.958
    35   1 H    0.994 --     8 C    0.974
    36   1 H    0.993 --     8 C    0.977
    37   1 H    0.995 --     8 C    0.974
    38   1 H    0.994 --    11 C    0.974
    39   1 H    0.993 --    11 C    0.977
    40   1 H    0.994 --    11 C    0.974
    41   1 H    0.996 --    12 C    0.964
    42   1 H    0.998 --    13 C    0.963
    43   1 H    0.995 --    14 C    0.969
    44   1 H    0.996 --    14 C    0.973
    45   1 H    0.995 --    15 C    0.961
    46   1 H    0.969 --    15 C    0.929
    47   1 H    0.989 --     2 C    0.900
    48   1 H    0.995 --    16 C    0.958
    49   1 H    0.991 --    18 C    0.964
    50   1 H    0.995 --    18 C    0.968
    51   1 H    0.996 --    19 C    0.973
    52   1 H    0.996 --    19 C    0.971
    53   1 H    0.997 --    21 C    0.967
    54   1 H    0.966 --    22 C    0.920
    55   1 H    0.996 --    25 C    0.966
    56   1 H    0.974 --    22 C    0.920
    57   1 H    0.992 --    25 C    0.969
    58   1 H    0.993 --    28 C    0.977
    59   1 H    0.995 --    28 C    0.975
    60   1 H    0.995 --    28 C    0.975
    61   1 H    0.997 --    29 C    0.965
    62   1 H    0.985 --    30 C    0.967
    63   1 H    0.987 --    30 C    0.962
    64   1 H    0.994 --    30 C    0.978
    65   1 H    0.994 --    31 C    0.961
    66   1 H    0.992 --    32 C    0.975
    67   1 H    0.997 --    32 C    0.982
    68   1 H    0.995 --    32 C    0.982
    69   1 H    0.994 --    33 C    0.977
    70   1 H    0.998 --    33 C    0.983
    71   1 H    0.994 --    33 C    0.981
    72   1 H    0.972 --     1 N    0.943
 ---------------------------------------------------------------------------

molecular dipole:
                 x           y           z       tot (Debye)
 q only:        2.143       0.062      -0.838
   full:        2.490       0.012      -0.959       6.782

           -------------------------------------------------
          | TOTAL ENERGY              -99.334909150621 Eh   |
          | GRADIENT NORM               0.003081828098 Eh/α |
          | HOMO-LUMO GAP               1.161445609505 eV   |
           -------------------------------------------------

 * finished run on 2024/04/06 at 11:15:16.761
