   * xtb version 6.6.1 (8d0f1dd) compiled by 'conda@1efc2f54142f' on 2023-08-01
          program call               : xtb xtbopt.xyz --opt crude --input .xc2 --gfn2

   ID    Z sym.   atoms
    1    7 N      1, 17
    2    6 C      2-6, 8, 9, 11-16, 18-23, 25, 26, 28-33
    3    8 O      7, 10, 24, 27
    4    1 H      34-72
########################################################################
[WARNING] Please study the warnings concerning your input carefully
-1- readin_getIntValue: could not parse ''
########################################################################

          :  Hamiltonian                  GFN2-xTB          :
 * total energy  :   -99.3352782 Eh     change       -0.1648459E-11 Eh
 * total energy  :   -99.3373089 Eh     change       -0.2030632E-02 Eh
 * total energy  :   -99.3384616 Eh     change       -0.1152773E-02 Eh
 * total energy  :   -99.3389343 Eh     change       -0.4726990E-03 Eh
   *** GEOMETRY OPTIMIZATION CONVERGED AFTER 4 ITERATIONS ***

 final structure:
================
72
 xtb: 6.6.1 (8d0f1dd)
N           -1.87107415991716        2.82731856943773        2.23088233579404
C           -1.81802888285980        2.12053715049906        1.20187064150855
C           -2.95853089581693        1.91225962223577        0.24482357331684
C           -3.42206349074541        0.46468218506625        0.31578234178990
C           -4.34824622783990       -0.01059555275560       -0.61504785879868
C           -4.82038966375376       -1.31101071343963       -0.56799688447862
O           -5.72500930189487       -1.84256791638835       -1.41842028770162
C           -6.34232476229868       -1.01075375461939       -2.37197685034273
C           -4.34419970557901       -2.19209244585617        0.43881072153339
O           -4.85379829564125       -3.44157400253184        0.40602247149968
C           -4.50266372603022       -4.34909662953345        1.42373510330637
C           -3.42329717594470       -1.71598240767381        1.35732970734427
C           -2.97185900990045       -0.40293187775970        1.29763388066659
C           -2.39399176208476        2.21620851257288       -1.16793254134570
C           -1.45204404018919        1.13309032632368       -1.72329085900414
C           -0.12584028156618        1.11688398637492       -1.06755247206722
N            0.53676657148137        0.02283137827350       -0.69589604115374
C            1.90427515177298        0.11895312605322       -0.24750887757260
C            2.90151855848605       -0.25063939035370       -1.35982278415705
C            4.30633612711452       -0.03364115998311       -0.86680461200211
C            4.93276631431561        1.14050570883775       -1.08461206249064
C            6.31005882403568        1.42187155257466       -0.59621312398923
C            6.96673527068901        0.23261420494293        0.03185233301543
O            8.25542994661737        0.24427880621881        0.33120330803326
C            9.05751308545342        1.26286717763819        0.20916984889409
C            6.24405947870750       -0.95703448277942        0.29498605007181
O            6.93492832937652       -1.90843552906092        0.96092502349066
C            6.32435866031966       -3.15647615342356        1.19950720645183
C            4.93549945343600       -1.07576648438321       -0.13081611604942
C           -0.04339862384186       -1.29448663830401       -0.79235275595189
C           -4.18129478273193        2.83185331626003        0.53484892154545
C           -4.82667596222517        2.49591383367467        1.87727254174488
C           -3.84020062571736        4.31865760821863        0.48441596234994
H           -4.71709851608967        0.65344753917972       -1.37884616884801
H           -6.85667652032594       -0.16965665815851       -1.89722046472852
H           -7.07231439333453       -1.63921842723616       -2.87829949882493
H           -5.62201056405121       -0.63366750150362       -3.10550024963754
H           -4.77851470304523       -3.96965380269412        2.41215738184730
H           -5.06792846547946       -5.25517601414835        1.21465002085832
H           -3.43226021960218       -4.57874009294289        1.40611507806355
H           -3.05724523450028       -2.35675535096393        2.14314205294963
H           -2.28068324275424       -0.06027995856264        2.05213735774701
H           -3.22745627396391        2.32656679700384       -1.86072800053014
H           -1.86263353694412        3.16818372826819       -1.13749969238127
H           -1.93924455203414        0.16124699499418       -1.66642423360600
H           -1.29413249966951        1.36542647477144       -2.78491260704349
H           -0.90203068986765        1.60107211670469        0.85854507698785
H            0.41751742054778        2.04855191138813       -1.01567304348906
H            2.05091704966564       -0.54317933902478        0.60994537603656
H            2.10670203220962        1.14279000468841        0.07436831726782
H            2.71201929078404        0.38413486879810       -2.22653789438524
H            2.75968018016488       -1.29038472294413       -1.65566969655588
H            4.45523613464409        1.93179752388901       -1.64175708637903
H            6.27967900234310        2.26177486166341        0.11806625351902
H            8.71539298831996        2.24527912614321       -0.09203887969163
H            6.92153736682190        1.77371682633017       -1.44522091480669
H           10.10120430480662        1.06152635583733        0.40121974751597
H            7.07894519759527       -3.76055339413683        1.69945106345090
H            5.45160665986347       -3.05870492510498        1.85236445837244
H            6.03175285434935       -3.64299094013945        0.26437763322306
H            4.38080426068605       -1.98005881761607        0.05352324869359
H           -0.20338183218801       -1.58112623021105       -1.83407035826265
H           -1.00133359504427       -1.32953156665902       -0.26732361873943
H            0.62886629750266       -2.01549227602168       -0.33451371353398
H           -4.91653849198245        2.62765053094088       -0.25181247275055
H           -4.13399319386688        2.70580099000125        2.68565060190614
H           -5.11626328175662        1.44890524044412        1.92277671436937
H           -5.71686825823407        3.10382198705822        2.01571727182798
H           -3.09163613679145        4.55935854321245        1.23276316339268
H           -3.47886753450542        4.61961164576583       -0.49541977205395
H           -4.73486060024260        4.89659371311362        0.70072921276768
H           -1.02668750226380        2.91380983401192        2.78820533279850

          :  Hamiltonian                  GFN2-xTB          :
         :: total energy             -99.338934326212 Eh    ::
         :: gradient norm              0.009258591219 Eh/a0 ::
         :: HOMO-LUMO gap              1.146269305973 eV    ::
         :: SCC energy              -100.699497047808 Eh    ::
         :: -> dispersion             -0.075172883151 Eh    ::
         :: repulsion energy           1.359295420826 Eh    ::

    * Orbital Energies and Occupations

         #    Occupation            Energy/Eh            Energy/eV
      -------------------------------------------------------------
         1        2.0000           -0.8466730             -23.0391
       ...           ...                  ...                  ...
        78        1.9992           -0.5305813             -14.4379
        79        1.9987           -0.5224928             -14.2178
        80        1.9986           -0.5219677             -14.2035
        81        1.9985           -0.5208186             -14.1722
        82        1.9980           -0.5158446             -14.0368
        83        1.9968           -0.5085766             -13.8391
        84        1.9962           -0.5059342             -13.7672
        85        1.9955           -0.5031249             -13.6907
        86        1.9842           -0.4832681             -13.1504
        87        1.9819           -0.4811557             -13.0929
        88        1.9487           -0.4643851             -12.6366
        89        1.8945           -0.4525076             -12.3134
        90        1.6022           -0.4288432             -11.6694 (HOMO)
        91        0.4395           -0.3867185             -10.5231 (LUMO)
        92        0.1442           -0.3663295              -9.9683
        93        0.0174           -0.3317812              -9.0282
        94        0.0042           -0.3092350              -8.4147
        95        0.0034           -0.3060155              -8.3271
        96        0.0034           -0.3056489              -8.3171
        97        0.0000           -0.2273727              -6.1871
        98        0.0000           -0.1832781              -4.9873
        99                         -0.1304683              -3.5502
       100                         -0.0731129              -1.9895
       101                         -0.0615785              -1.6756
       ...                                ...                  ...
       171                          0.5801880              15.7877
      -------------------------------------------------------------
                  HL-Gap            0.0421246 Eh            1.1463 eV

     #   Z          covCN         q      C6AA      α(0)
     1   7 N        1.773    -0.273    27.905     7.822
     2   6 C        2.827     0.101    25.759     8.316
     3   6 C        3.908     0.006    20.417     6.423
     4   6 C        2.974     0.002    27.987     8.678
     5   6 C        2.921    -0.080    30.004     8.983
     6   6 C        2.863     0.128    25.186     8.226
     7   8 O        1.706    -0.234    17.874     5.708
     8   6 C        3.645     0.029    20.426     6.496
     9   6 C        2.864     0.127    25.212     8.230
    10   8 O        1.706    -0.233    17.857     5.705
    11   6 C        3.645     0.028    20.430     6.496
    12   6 C        2.914    -0.075    29.882     8.964
    13   6 C        2.921    -0.054    29.342     8.883
    14   6 C        3.812    -0.064    21.722     6.634
    15   6 C        3.802    -0.068    21.804     6.648
    16   6 C        2.843     0.002    27.969     8.667
    17   7 N        2.729     0.004    21.196     6.838
    18   6 C        3.757    -0.015    20.899     6.518
    19   6 C        3.810    -0.073    21.881     6.658
    20   6 C        2.956     0.006    27.892     8.662
    21   6 C        2.908    -0.062    29.530     8.911
    22   6 C        3.807    -0.068    21.804     6.647
    23   6 C        2.866     0.084    26.118     8.377
    24   8 O        1.711    -0.074    15.463     5.309
    25   6 C        2.742     0.004    27.922     8.652
    26   6 C        2.849     0.137    25.002     8.195
    27   8 O        1.706    -0.239    17.968     5.723
    28   6 C        3.644     0.028    20.447     6.499
    29   6 C        2.916    -0.095    30.384     9.039
    30   6 C        3.699    -0.068    21.979     6.705
    31   6 C        3.853    -0.007    20.674     6.467
    32   6 C        3.756    -0.118    22.817     6.811
    33   6 C        3.755    -0.118    22.815     6.811
    34   1 H        0.926     0.050     2.314     2.379
    35   1 H        0.924     0.052     2.293     2.368
    36   1 H        0.925     0.079     1.987     2.204
    37   1 H        0.924     0.046     2.374     2.409
    38   1 H        0.924     0.053     2.282     2.362
    39   1 H        0.925     0.079     1.988     2.205
    40   1 H        0.924     0.046     2.372     2.408
    41   1 H        0.926     0.049     2.327     2.385
    42   1 H        0.926     0.036     2.496     2.470
    43   1 H        0.925     0.058     2.218     2.329
    44   1 H        0.924     0.052     2.299     2.371
    45   1 H        0.925     0.065     2.140     2.288
    46   1 H        0.923     0.076     2.024     2.225
    47   1 H        0.922     0.005     2.978     2.699
    48   1 H        0.926     0.065     2.142     2.288
    49   1 H        0.924     0.066     2.128     2.281
    50   1 H        0.924     0.065     2.143     2.290
    51   1 H        0.924     0.054     2.270     2.356
    52   1 H        0.924     0.058     2.228     2.334
    53   1 H        0.926     0.046     2.376     2.410
    54   1 H        0.923     0.072     2.062     2.245
    55   1 H        0.925     0.058     2.226     2.333
    56   1 H        0.923     0.073     2.056     2.243
    57   1 H        0.926     0.088     1.902     2.156
    58   1 H        0.925     0.081     1.973     2.197
    59   1 H        0.924     0.049     2.333     2.388
    60   1 H        0.924     0.052     2.293     2.368
    61   1 H        0.926     0.046     2.368     2.406
    62   1 H        0.924     0.074     2.042     2.235
    63   1 H        0.924     0.078     1.998     2.210
    64   1 H        0.925     0.077     2.008     2.216
    65   1 H        0.924     0.036     2.510     2.477
    66   1 H        0.925     0.068     2.111     2.272
    67   1 H        0.925     0.035     2.522     2.483
    68   1 H        0.925     0.049     2.330     2.387
    69   1 H        0.925     0.060     2.202     2.320
    70   1 H        0.925     0.033     2.544     2.494
    71   1 H        0.925     0.053     2.288     2.366
    72   1 H        0.860     0.153     1.379     1.840

Wiberg/Mayer (AO) data.
largest (>0.10) Wiberg bond orders for each atom

     #   Z sym  total        # sym  WBO       # sym  WBO       # sym  WBO
 ---------------------------------------------------------------------------
     1   7 N    3.037 --     2 C    1.953    72 H    0.943
     2   6 C    3.925 --     1 N    1.953     3 C    0.996    47 H    0.900
     3   6 C    3.978 --     2 C    0.996     4 C    0.969    14 C    0.957
                            31 C    0.944
     4   6 C    3.954 --    13 C    1.419     5 C    1.367     3 C    0.969
     5   6 C    3.965 --     6 C    1.404     4 C    1.367    34 H    0.958
     6   6 C    3.910 --     5 C    1.404     9 C    1.226     7 O    1.094
     7   8 O    2.253 --     6 C    1.094     8 C    0.979
     8   6 C    3.934 --     7 O    0.979    36 H    0.977    35 H    0.974
                            37 H    0.974
     9   6 C    3.907 --    12 C    1.396     6 C    1.226    10 O    1.096
    10   8 O    2.251 --     9 C    1.096    11 C    0.979
    11   6 C    3.934 --    10 O    0.979    39 H    0.977    40 H    0.974
                            38 H    0.974
    12   6 C    3.965 --    13 C    1.401     9 C    1.396    41 H    0.964
    13   6 C    3.959 --     4 C    1.419    12 C    1.401    42 H    0.963
    14   6 C    3.973 --    15 C    0.982    44 H    0.973    43 H    0.969
                             3 C    0.957
    15   6 C    3.987 --    16 C    1.059    14 C    0.982    45 H    0.961
                            46 H    0.929
    16   6 C    3.563 --    17 N    1.377    15 C    1.059    48 H    0.958
    17   7 N    3.457 --    16 C    1.377    30 C    0.999    18 C    0.991
    18   6 C    3.960 --    17 N    0.991    19 C    0.970    50 H    0.968
                            49 H    0.964
    19   6 C    3.977 --    20 C    1.003    51 H    0.973    52 H    0.971
                            18 C    0.970
    20   6 C    3.967 --    21 C    1.662    29 C    1.216    19 C    1.003
    21   6 C    3.838 --    20 C    1.662    22 C    1.039    53 H    0.967
    22   6 C    3.986 --    21 C    1.039    23 C    1.020    56 H    0.930
                            54 H    0.923
    23   6 C    3.766 --    26 C    1.238    24 O    1.169    22 C    1.020
                            25 C    0.218
    24   8 O    2.557 --    25 C    1.276    23 C    1.169
    25   6 C    3.573 --    24 O    1.276    55 H    0.968    57 H    0.968
                            23 C    0.218
    26   6 C    3.899 --    29 C    1.415    23 C    1.238    27 O    1.094
    27   8 O    2.258 --    26 C    1.094    28 C    0.976
    28   6 C    3.933 --    58 H    0.977    27 O    0.976    60 H    0.975
                            59 H    0.975
    29   6 C    3.805 --    26 C    1.415    20 C    1.216    61 H    0.964
    30   6 C    3.959 --    17 N    0.999    64 H    0.978    62 H    0.967
                            63 H    0.962
    31   6 C    3.975 --    33 C    1.009    32 C    1.009    65 H    0.961
                             3 C    0.944
    32   6 C    3.982 --    31 C    1.009    67 H    0.982    68 H    0.982
                            66 H    0.975
    33   6 C    3.985 --    31 C    1.009    70 H    0.983    71 H    0.981
                            69 H    0.977
    34   1 H    0.996 --     5 C    0.958
    35   1 H    0.994 --     8 C    0.974
    36   1 H    0.993 --     8 C    0.977
    37   1 H    0.995 --     8 C    0.974
    38   1 H    0.994 --    11 C    0.974
    39   1 H    0.993 --    11 C    0.977
    40   1 H    0.994 --    11 C    0.974
    41   1 H    0.996 --    12 C    0.964
    42   1 H    0.998 --    13 C    0.963
    43   1 H    0.995 --    14 C    0.969
    44   1 H    0.996 --    14 C    0.973
    45   1 H    0.995 --    15 C    0.961
    46   1 H    0.969 --    15 C    0.929
    47   1 H    0.989 --     2 C    0.900
    48   1 H    0.995 --    16 C    0.958
    49   1 H    0.991 --    18 C    0.964
    50   1 H    0.995 --    18 C    0.968
    51   1 H    0.996 --    19 C    0.973
    52   1 H    0.996 --    19 C    0.971
    53   1 H    0.998 --    21 C    0.967
    54   1 H    0.966 --    22 C    0.923
    55   1 H    0.996 --    25 C    0.968
    56   1 H    0.973 --    22 C    0.930
    57   1 H    0.992 --    25 C    0.968
    58   1 H    0.993 --    28 C    0.977
    59   1 H    0.995 --    28 C    0.975
    60   1 H    0.995 --    28 C    0.975
    61   1 H    0.997 --    29 C    0.964
    62   1 H    0.985 --    30 C    0.967
    63   1 H    0.986 --    30 C    0.962
    64   1 H    0.994 --    30 C    0.978
    65   1 H    0.994 --    31 C    0.961
    66   1 H    0.992 --    32 C    0.975
    67   1 H    0.997 --    32 C    0.982
    68   1 H    0.995 --    32 C    0.982
    69   1 H    0.994 --    33 C    0.977
    70   1 H    0.998 --    33 C    0.983
    71   1 H    0.994 --    33 C    0.981
    72   1 H    0.972 --     1 N    0.943
 ---------------------------------------------------------------------------

molecular dipole:
                 x           y           z       tot (Debye)
 q only:        2.277       0.055      -0.807
   full:        2.626       0.015      -0.951       7.099

           -------------------------------------------------
          | TOTAL ENERGY              -99.338934326212 Eh   |
          | GRADIENT NORM               0.009258591219 Eh/α |
          | HOMO-LUMO GAP               1.146269305973 eV   |
           -------------------------------------------------

 * finished run on 2024/04/06 at 11:15:17.727
