   * xtb version 6.6.1 (8d0f1dd) compiled by 'conda@1efc2f54142f' on 2023-08-01
          program call               : xtb xtbopt.xyz --opt crude --input .xc2 --gfn2

   ID    Z sym.   atoms
    1    7 N      1, 17
    2    6 C      2-6, 8, 9, 11-16, 18-23, 25, 26, 28-33
    3    8 O      7, 10, 24, 27
    4    1 H      34-72

          :  Hamiltonian                  GFN2-xTB          :
 * total energy  :   -99.3276237 Eh     change       -0.2927436E-11 Eh
   *** GEOMETRY OPTIMIZATION CONVERGED AFTER 1 ITERATIONS ***

 final structure:
================
72
 xtb: 6.6.1 (8d0f1dd)
N           -2.13737395019954        2.97570655675188        2.40903302206967
C           -1.98522236680573        2.17857137519139        1.45903226993326
C           -3.00723305160151        1.93949657561432        0.38029706083792
C           -3.48283682723614        0.49712747645904        0.44141906577323
C           -4.31593652627323        0.00001537543638       -0.56310831734907
C           -4.79050009403836       -1.30093663451401       -0.53391988557181
O           -5.61650038319814       -1.84955723897329       -1.44777376076204
C           -6.18102730452368       -1.03111990367189       -2.44597833895013
C           -4.40132653899835       -2.16466794744781        0.52670167639824
O           -4.88863130890333       -3.41899779374597        0.46066965076020
C           -4.60621974068932       -4.32194026703845        1.50417198154327
C           -3.57985043845537       -1.66335788137613        1.52429085846550
C           -3.13487356350942       -0.34767937959520        1.48509127595703
C           -2.27962032928590        2.20807204001998       -0.96609815075158
C           -1.33575657902520        1.08795131491733       -1.43998823878715
C           -0.09982770317249        0.97161830632195       -0.62457834288938
N            0.44096219945395       -0.15961623247032       -0.18607451257816
C            1.58279160210818       -0.20491854686121        0.48759044159164
C            3.50141952972550       -0.43829102919963       -2.55637908368744
C            4.59449346186636       -0.18067884436489       -1.76336447461675
C            5.31051019192116        1.04503016254687       -1.86656428905192
C            6.42586684579386        1.28453303202732       -1.10696174245482
C            6.89768509753685        0.33050824889082       -0.19899496200447
O            7.98468637783549        0.45563908793435        0.57103704685064
C            8.76463184890247        1.62773420061911        0.49866549975415
C            6.18593224172069       -0.90500937722747       -0.05699114700461
O            6.71658762079211       -1.75129539972023        0.85029704104636
C            6.13654476394670       -3.02214014230099        1.02399035868618
C            5.06859584347535       -1.13773698331595       -0.81734495180884
C           -0.24905962028934       -1.41672433606625       -0.42552024749051
C           -4.25193361012510        2.86844544413641        0.50020966558649
C           -5.03087888477616        2.59656182041858        1.78480387646417
C           -3.90830292640996        4.35250878309915        0.40873430292028
H           -4.60720920851541        0.64632752106019       -1.37452592779081
H           -6.72830372829887       -0.18987506355746       -2.00992413512470
H           -6.87507326081229       -1.66987634204551       -2.98901711582461
H           -5.42037368917014       -0.65570466878913       -3.13838434649819
H           -4.97854623957282       -3.95409275883398        2.46489615680470
H           -5.12721643956110       -5.24104567817932        1.24327759479018
H           -3.53284874802530       -4.52382928174669        1.58113130012875
H           -3.28899175768625       -2.28699755119334        2.35411262299186
H           -2.52588728098989        0.01370822620997        2.29901823344156
H           -3.03156383476777        2.35994115657051       -1.74035122576016
H           -1.71023031504529        3.13380324409563       -0.87446862690751
H           -1.88541747242882        0.14966539748378       -1.47872816246808
H           -1.04468110254550        1.34359637410794       -2.46732866534123
H           -1.06062806540261        1.60308632955796        1.28506564276697
H            0.48318737294069        1.86757503815043       -0.47475046892880
H            1.96691573062750       -1.13964485948725        0.83624675984598
H            2.13380446611972        0.69864541002433        0.66280074538278
H            3.17584505843310        0.26750652295818       -3.29961175514061
H            2.96986277036553       -1.37040197117951       -2.48947383472410
H            4.96454109594943        1.78981330428927       -2.56725041933526
H            6.95111888002827        2.21892259780217       -1.22169398970799
H            8.18432938974827        2.51180835785426        0.77587172223830
H            9.18559020212447        1.76613265840407       -0.50136573257467
H            9.57236348221446        1.48590157029620        1.21339737280724
H            6.73947419995716       -3.51796139774265        1.78397712999461
H            5.10159936680571       -2.94637436312684        1.37568574798158
H            6.16791761026213       -3.60490389044750        0.09790269054883
H            4.53107874996215       -2.06858967580926       -0.73269023468985
H           -0.34779687649383       -1.58990441046011       -1.49644379867332
H           -1.24170249216192       -1.39849017954501        0.02819863441129
H            0.31980074953423       -2.23421057594702        0.01034759202241
H           -4.90494856319896        2.62295191525219       -0.34535152148646
H           -4.43077530991227        2.86664841198683        2.64809538635087
H           -5.30917808500365        1.54800838253040        1.86213237244073
H           -5.93901369010945        3.19383369518735        1.79430218332766
H           -3.23767116209457        4.63449771909580        1.21455630154734
H           -3.45048620894074        4.60497449257679       -0.54386191900715
H           -4.82051312867098        4.93577517988659        0.50545347995996
H           -1.36965274623333        3.08806682273139        3.06362240391837

          :  Hamiltonian                  GFN2-xTB          :
         :: total energy             -99.327623651883 Eh    ::
         :: gradient norm              0.003290795351 Eh/a0 ::
         :: HOMO-LUMO gap              0.727394159576 eV    ::
         :: SCC energy              -100.729793061745 Eh    ::
         :: -> dispersion             -0.073459263811 Eh    ::
         :: repulsion energy           1.400382587352 Eh    ::

    * Orbital Energies and Occupations

         #    Occupation            Energy/Eh            Energy/eV
      -------------------------------------------------------------
         1        2.0000           -0.8162502             -22.2113
       ...           ...                  ...                  ...
        78        1.9977           -0.5278497             -14.3635
        79        1.9976           -0.5271552             -14.3446
        80        1.9968           -0.5225274             -14.2187
        81        1.9963           -0.5204852             -14.1631
        82        1.9944           -0.5138670             -13.9830
        83        1.9936           -0.5116865             -13.9237
        84        1.9921           -0.5084053             -13.8344
        85        1.9884           -0.5022593             -13.6672
        86        1.9767           -0.4911489             -13.3648
        87        1.9297           -0.4732785             -12.8786
        88        1.9183           -0.4707978             -12.8111
        89        1.8498           -0.4605861             -12.5332
        90        1.5589           -0.4408181             -11.9953 (HOMO)
        91        0.7903           -0.4140868             -11.2679 (LUMO)
        92        0.0138           -0.3421004              -9.3090
        93        0.0090           -0.3352659              -9.1230
        94        0.0030           -0.3176531              -8.6438
        95        0.0024           -0.3145769              -8.5601
        96        0.0020           -0.3112815              -8.4704
        97        0.0004           -0.2874817              -7.8228
        98        0.0000           -0.1922412              -5.2311
        99        0.0000           -0.1803350              -4.9072
       100                         -0.1037547              -2.8233
       101                         -0.0668462              -1.8190
       ...                                ...                  ...
       171                          0.5879229              15.9982
      -------------------------------------------------------------
                  HL-Gap            0.0267312 Eh            0.7274 eV

     #   Z          covCN         q      C6AA      α(0)
     1   7 N        1.774    -0.264    27.684     7.791
     2   6 C        2.827     0.101    25.754     8.316
     3   6 C        3.907     0.007    20.404     6.421
     4   6 C        2.974     0.005    27.903     8.665
     5   6 C        2.920    -0.078    29.960     8.976
     6   6 C        2.862     0.130    25.155     8.221
     7   8 O        1.706    -0.229    17.790     5.695
     8   6 C        3.644     0.027    20.460     6.501
     9   6 C        2.864     0.129    25.180     8.225
    10   8 O        1.706    -0.227    17.759     5.690
    11   6 C        3.645     0.026    20.467     6.502
    12   6 C        2.913    -0.075    29.859     8.960
    13   6 C        2.921    -0.052    29.296     8.876
    14   6 C        3.811    -0.064    21.725     6.634
    15   6 C        3.801    -0.067    21.776     6.644
    16   6 C        2.869    -0.041    29.004     8.828
    17   7 N        2.729     0.101    19.504     6.559
    18   6 C        2.822    -0.106    30.662     9.073
    19   6 C        2.852    -0.095    30.379     9.034
    20   6 C        2.959     0.023    27.498     8.601
    21   6 C        2.921    -0.037    28.931     8.820
    22   6 C        2.907    -0.062    29.552     8.914
    23   6 C        2.864     0.141    24.934     8.185
    24   8 O        1.706    -0.204    17.390     5.630
    25   6 C        3.645     0.022    20.546     6.515
    26   6 C        2.856     0.135    25.048     8.203
    27   8 O        1.706    -0.231    17.825     5.700
    28   6 C        3.645     0.028    20.446     6.499
    29   6 C        2.918    -0.079    29.975     8.978
    30   6 C        3.719    -0.077    22.098     6.714
    31   6 C        3.853    -0.008    20.676     6.467
    32   6 C        3.756    -0.118    22.811     6.810
    33   6 C        3.755    -0.119    22.837     6.814
    34   1 H        0.926     0.054     2.269     2.355
    35   1 H        0.924     0.055     2.261     2.351
    36   1 H        0.925     0.082     1.960     2.189
    37   1 H        0.924     0.049     2.329     2.386
    38   1 H        0.924     0.056     2.243     2.342
    39   1 H        0.925     0.082     1.959     2.189
    40   1 H        0.924     0.049     2.335     2.389
    41   1 H        0.926     0.053     2.281     2.362
    42   1 H        0.926     0.041     2.431     2.438
    43   1 H        0.925     0.057     2.236     2.338
    44   1 H        0.924     0.053     2.286     2.364
    45   1 H        0.925     0.057     2.236     2.338
    46   1 H        0.923     0.066     2.128     2.281
    47   1 H        0.923     0.016     2.789     2.612
    48   1 H        0.926     0.057     2.234     2.338
    49   1 H        0.927     0.060     2.199     2.319
    50   1 H        0.926     0.058     2.227     2.333
    51   1 H        0.926     0.052     2.296     2.370
    52   1 H        0.926     0.046     2.375     2.410
    53   1 H        0.926     0.058     2.221     2.331
    54   1 H        0.926     0.060     2.195     2.317
    55   1 H        0.924     0.059     2.205     2.322
    56   1 H        0.924     0.062     2.173     2.305
    57   1 H        0.925     0.086     1.915     2.164
    58   1 H        0.925     0.081     1.964     2.191
    59   1 H        0.924     0.046     2.371     2.408
    60   1 H        0.924     0.054     2.267     2.354
    61   1 H        0.926     0.052     2.294     2.369
    62   1 H        0.925     0.082     1.954     2.186
    63   1 H        0.924     0.083     1.945     2.181
    64   1 H        0.925     0.084     1.942     2.179
    65   1 H        0.924     0.038     2.477     2.461
    66   1 H        0.925     0.069     2.096     2.264
    67   1 H        0.925     0.035     2.520     2.483
    68   1 H        0.925     0.051     2.304     2.374
    69   1 H        0.925     0.063     2.159     2.298
    70   1 H        0.925     0.037     2.494     2.469
    71   1 H        0.925     0.054     2.267     2.354
    72   1 H        0.860     0.159     1.340     1.814

Wiberg/Mayer (AO) data.
largest (>0.10) Wiberg bond orders for each atom

     #   Z sym  total        # sym  WBO       # sym  WBO       # sym  WBO
 ---------------------------------------------------------------------------
     1   7 N    3.021 --     2 C    1.957    72 H    0.940
     2   6 C    3.932 --     1 N    1.957     3 C    0.993    47 H    0.909
     3   6 C    3.970 --     2 C    0.993     4 C    0.973    14 C    0.953
                            31 C    0.943
     4   6 C    3.944 --    13 C    1.410     5 C    1.369     3 C    0.973
     5   6 C    3.959 --     6 C    1.400     4 C    1.369    34 H    0.957
     6   6 C    3.901 --     5 C    1.400     9 C    1.219     7 O    1.101
     7   8 O    2.252 --     6 C    1.101     8 C    0.977
     8   6 C    3.930 --     7 O    0.977    36 H    0.976    35 H    0.974
                            37 H    0.973
     9   6 C    3.896 --    12 C    1.389     6 C    1.219    10 O    1.104
    10   8 O    2.251 --     9 C    1.104    11 C    0.977
    11   6 C    3.930 --    10 O    0.977    39 H    0.977    40 H    0.973
                            38 H    0.973
    12   6 C    3.960 --    13 C    1.404     9 C    1.389    41 H    0.963
    13   6 C    3.949 --     4 C    1.410    12 C    1.404    42 H    0.962
    14   6 C    3.974 --    15 C    0.985    44 H    0.972    43 H    0.969
                             3 C    0.953
    15   6 C    3.986 --    16 C    1.051    14 C    0.985    45 H    0.963
                            46 H    0.938
    16   6 C    3.671 --    17 N    1.349    15 C    1.051    48 H    0.960
                            18 C    0.214
    17   7 N    3.745 --    18 C    1.366    16 C    1.349    30 C    0.984
    18   6 C    3.595 --    17 N    1.366    49 H    0.975    50 H    0.974
                            16 C    0.214
    19   6 C    3.540 --    20 C    1.497    52 H    0.979    51 H    0.979
    20   6 C    3.979 --    19 C    1.497    21 C    1.208    29 C    1.200
    21   6 C    3.808 --    22 C    1.522    20 C    1.208    53 H    0.967
    22   6 C    3.969 --    21 C    1.522    23 C    1.316    54 H    0.961
    23   6 C    3.768 --    22 C    1.316    26 C    1.173    24 O    1.142
    24   8 O    2.257 --    23 C    1.142    25 C    0.972
    25   6 C    3.924 --    57 H    0.976    24 O    0.972    55 H    0.971
                            56 H    0.971
    26   6 C    3.914 --    29 C    1.483    23 C    1.173    27 O    1.097
    27   8 O    2.254 --    26 C    1.097    28 C    0.978
    28   6 C    3.932 --    27 O    0.978    58 H    0.977    59 H    0.974
                            60 H    0.973
    29   6 C    3.854 --    26 C    1.483    20 C    1.200    61 H    0.962
    30   6 C    3.955 --    17 N    0.984    64 H    0.977    62 H    0.970
                            63 H    0.962
    31   6 C    3.969 --    33 C    1.009    32 C    1.008    65 H    0.958
                             3 C    0.943
    32   6 C    3.975 --    31 C    1.008    67 H    0.981    68 H    0.981
                            66 H    0.972
    33   6 C    3.978 --    31 C    1.009    70 H    0.982    71 H    0.979
                            69 H    0.974
    34   1 H    0.996 --     5 C    0.957
    35   1 H    0.993 --     8 C    0.974
    36   1 H    0.992 --     8 C    0.976
    37   1 H    0.993 --     8 C    0.973
    38   1 H    0.992 --    11 C    0.973
    39   1 H    0.993 --    11 C    0.977
    40   1 H    0.993 --    11 C    0.973
    41   1 H    0.995 --    12 C    0.963
    42   1 H    0.997 --    13 C    0.962
    43   1 H    0.995 --    14 C    0.969
    44   1 H    0.996 --    14 C    0.972
    45   1 H    0.996 --    15 C    0.963
    46   1 H    0.975 --    15 C    0.938
    47   1 H    0.978 --     2 C    0.909
    48   1 H    0.996 --    16 C    0.960
    49   1 H    0.996 --    18 C    0.975
    50   1 H    0.997 --    18 C    0.974
    51   1 H    0.996 --    19 C    0.979
    52   1 H    0.997 --    19 C    0.979
    53   1 H    0.996 --    21 C    0.967
    54   1 H    0.994 --    22 C    0.961
    55   1 H    0.989 --    25 C    0.971
    56   1 H    0.989 --    25 C    0.971
    57   1 H    0.992 --    25 C    0.976
    58   1 H    0.993 --    28 C    0.977
    59   1 H    0.994 --    28 C    0.974
    60   1 H    0.993 --    28 C    0.973
    61   1 H    0.996 --    29 C    0.962
    62   1 H    0.993 --    30 C    0.970
    63   1 H    0.993 --    30 C    0.962
    64   1 H    0.993 --    30 C    0.977
    65   1 H    0.990 --    31 C    0.958
    66   1 H    0.990 --    32 C    0.972
    67   1 H    0.996 --    32 C    0.981
    68   1 H    0.993 --    32 C    0.981
    69   1 H    0.991 --    33 C    0.974
    70   1 H    0.996 --    33 C    0.982
    71   1 H    0.993 --    33 C    0.979
    72   1 H    0.967 --     1 N    0.940
 ---------------------------------------------------------------------------

molecular dipole:
                 x           y           z       tot (Debye)
 q only:        1.056      -0.133      -0.458
   full:        1.447      -0.240      -0.580       4.010

           -------------------------------------------------
          | TOTAL ENERGY              -99.327623651883 Eh   |
          | GRADIENT NORM               0.003290795351 Eh/α |
          | HOMO-LUMO GAP               0.727394159576 eV   |
           -------------------------------------------------

 * finished run on 2024/04/06 at 11:13:44.482
