   * xtb version 6.6.1 (8d0f1dd) compiled by 'conda@1efc2f54142f' on 2023-08-01
          program call               : xtb struc.xyz --opt loose --input .xc1 --gfn2

   ID    Z sym.   atoms
    1    6 C      1, 3, 5-7, 10, 11, 14
    2    7 N      2, 4, 9, 13
    3    8 O      8, 12
    4    1 H      15-25
constraining bond 23 24 to    3.2800000 Å, actual value:    1.7744882 Å

          :  Hamiltonian                  GFN2-xTB          :
 * total energy  :   -38.2130242 Eh     change       -0.2401990E-09 Eh
 * total energy  :   -40.3040424 Eh     change       -0.2091018E+01 Eh
 * total energy  :   -41.6519594 Eh     change       -0.1347917E+01 Eh
 * total energy  :   -42.0567502 Eh     change       -0.4047908E+00 Eh
 * total energy  :   -42.0877274 Eh     change       -0.3097723E-01 Eh
 * total energy  :   -42.0888612 Eh     change       -0.1133754E-02 Eh
 * total energy  :   -42.0898910 Eh     change       -0.1029845E-02 Eh
 * total energy  :   -42.0921055 Eh     change       -0.2214495E-02 Eh
 * total energy  :   -42.0933310 Eh     change       -0.1225452E-02 Eh
 * total energy  :   -42.0943738 Eh     change       -0.1042789E-02 Eh
 * total energy  :   -42.1974724 Eh     change       -0.4836900E-03 Eh
 * total energy  :   -42.1982112 Eh     change       -0.7388689E-03 Eh
 * total energy  :   -42.1985438 Eh     change       -0.3325290E-03 Eh
 * total energy  :   -42.1989130 Eh     change       -0.3692176E-03 Eh
 * total energy  :   -42.1990855 Eh     change       -0.1725467E-03 Eh
 * total energy  :   -42.1992636 Eh     change       -0.1780647E-03 Eh
 * total energy  :   -42.1993405 Eh     change       -0.7690306E-04 Eh
 * total energy  :   -42.1993680 Eh     change       -0.2751765E-04 Eh
 * total energy  :   -42.1993873 Eh     change       -0.1928277E-04 Eh
   *** GEOMETRY OPTIMIZATION CONVERGED AFTER 36 ITERATIONS ***

 final structure:
================
25
 xtb: 6.6.1 (8d0f1dd)
C            3.23948201946585        1.20716176361060       -0.03590560006037
N            2.33248509687221        0.09309536160117       -0.05421519504189
C            2.66782856062330       -1.20914754818110       -0.07597206141451
N            1.54198697052306       -1.97161319412218       -0.05311981881471
C            0.46540498072620       -1.12699283948303       -0.01602390987400
C            0.95811591008023        0.17833578243446       -0.01482691523085
C            0.10860218236613        1.32893868089882        0.03008225124406
O            0.43755789458885        2.50031301850401        0.04400612619565
N           -1.25841508951274        0.94376441424384        0.05171822886173
C           -2.25385499302011        1.99974118848135        0.07764954652542
C           -1.70140381936161       -0.33315291778497        0.02699073064111
O           -3.01621424044950       -0.51493937650172       -0.02077386489519
N           -0.87196798047697       -1.42570519445266        0.02867135572333
C           -1.35624870489772       -2.70312107267489        0.03002722779440
H            3.77795990790285        1.24420051535211        0.91300857540383
H            3.96265996708589        1.11995895578100       -0.84674337792088
H            2.66488012210093        2.12544824808908       -0.15172676978398
H            3.66558031327274       -1.59300337284336       -0.10792747421444
H           -1.71877262426231        2.94756000126195        0.08516689405452
H           -2.89184359334404        1.93732671523105       -0.80303077064335
H           -2.87292752267587        1.91146037252864        0.96938911114878
H           -2.33199220406009       -2.91881345486872        0.41109103186474
H           -0.68359498616698       -3.50763919085471       -0.15430028687118
H           -3.22642035851605       -1.43597522198159       -0.25312877581192
H            1.52154370523580       -2.97896309266907       -0.04893464098033

          :  Hamiltonian                  GFN2-xTB          :
         :: total energy             -42.199387302398 Eh    ::
         :: gradient norm              0.001579665686 Eh/a0 ::
         :: HOMO-LUMO gap              1.616071665128 eV    ::
         :: SCC energy               -42.711811103247 Eh    ::
         :: -> dispersion             -0.022977719395 Eh    ::
         :: repulsion energy           0.512315999852 Eh    ::

    * Orbital Energies and Occupations

         #    Occupation            Energy/Eh            Energy/eV
      -------------------------------------------------------------
         1        2.0000           -0.9007982             -24.5120
       ...           ...                  ...                  ...
        25        1.9998           -0.6675352             -18.1646
        26        1.9997           -0.6635765             -18.0568
        27        1.9996           -0.6559004             -17.8480
        28        1.9993           -0.6431775             -17.5017
        29        1.9991           -0.6353366             -17.2884
        30        1.9986           -0.6250954             -17.0097
        31        1.9980           -0.6168780             -16.7861
        32        1.9960           -0.6008904             -16.3511
        33        1.9956           -0.5983929             -16.2831
        34        1.9896           -0.5780761             -15.7303
        35        1.9824           -0.5655320             -15.3889
        36        1.9693           -0.5521944             -15.0260
        37        1.4229           -0.4747624             -12.9189 (HOMO)
        38        0.3365           -0.4153729             -11.3029 (LUMO)
        39        0.2497           -0.4070845             -11.0773
        40        0.0635           -0.3721468             -10.1266
        41        0.0013           -0.2792382              -7.5985
        42        0.0000           -0.1958125              -5.3283
        43        0.0000           -0.1830105              -4.9800
        44        0.0000           -0.1404076              -3.8207
        45        0.0000           -0.1273270              -3.4647
        46        0.0000           -0.0919278              -2.5015
        47                         -0.0507676              -1.3815
        48                         -0.0317149              -0.8630
       ...                                ...                  ...
        67                          0.5321426              14.4803
      -------------------------------------------------------------
                  HL-Gap            0.0593895 Eh            1.6161 eV

     #   Z          covCN         q      C6AA      α(0)
     1   6 C        3.690    -0.089    22.402     6.773
     2   7 N        2.820     0.061    20.185     6.673
     3   6 C        3.026     0.033    27.235     8.560
     4   7 N        2.774    -0.065    22.506     7.046
     5   6 C        3.061     0.078    26.208     8.395
     6   6 C        3.087    -0.019    28.380     8.733
     7   6 C        2.765     0.245    22.890     7.835
     8   8 O        0.857    -0.381    21.312     6.189
     9   7 N        2.744    -0.048    22.176     6.994
    10   6 C        3.706    -0.070    21.989     6.703
    11   6 C        2.767     0.225    23.271     7.900
    12   8 O        1.660    -0.329    19.527     5.965
    13   7 N        2.736     0.016    20.966     6.801
    14   6 C        2.796    -0.133    31.379     9.176
    15   1 H        0.924     0.101     1.777     2.085
    16   1 H        0.925     0.099     1.796     2.096
    17   1 H        0.925     0.131     1.530     1.934
    18   1 H        0.927     0.113     1.669     2.020
    19   1 H        0.925     0.125     1.574     1.962
    20   1 H        0.925     0.098     1.803     2.100
    21   1 H        0.925     0.099     1.796     2.095
    22   1 H        0.927     0.071     2.075     2.252
    23   1 H        0.927     0.066     2.127     2.281
    24   1 H        0.804     0.355     0.576     1.192
    25   1 H        0.860     0.220     1.010     1.574

Wiberg/Mayer (AO) data.
largest (>0.10) Wiberg bond orders for each atom

     #   Z sym  total        # sym  WBO       # sym  WBO       # sym  WBO
 ---------------------------------------------------------------------------
     1   6 C    3.918 --     2 N    0.991    16 H    0.964    17 H    0.961
                            15 H    0.957
     2   7 N    3.566 --     3 C    1.306     6 C    1.148     1 C    0.991
     3   6 C    3.675 --     2 N    1.306     4 N    1.239    18 H    0.957
     4   7 N    3.493 --     3 C    1.239     5 C    1.174    25 H    0.922
     5   6 C    3.803 --     6 C    1.313     4 N    1.174    13 N    1.110
     6   6 C    3.835 --     5 C    1.313     2 N    1.148     7 C    1.116
     7   6 C    3.852 --     8 O    1.623     6 C    1.116     9 N    1.021
     8   8 O    1.898 --     7 C    1.623     9 N    0.118
     9   7 N    3.493 --    11 C    1.236     7 C    1.021    10 C    0.973
                             8 O    0.118
    10   6 C    3.908 --     9 N    0.973    21 H    0.962    19 H    0.962
                            20 H    0.961
    11   6 C    3.695 --     9 N    1.236    12 O    1.145    13 N    1.143
    12   8 O    2.145 --    11 C    1.145    24 H    0.829
    13   7 N    3.613 --    14 C    1.173    11 C    1.143     5 C    1.110
    14   6 C    3.301 --    13 N    1.173    23 H    0.973    22 H    0.961
    15   1 H    0.980 --     1 C    0.957
    16   1 H    0.983 --     1 C    0.964
    17   1 H    0.981 --     1 C    0.961
    18   1 H    0.986 --     3 C    0.957
    19   1 H    0.982 --    10 C    0.962
    20   1 H    0.981 --    10 C    0.961
    21   1 H    0.981 --    10 C    0.962
    22   1 H    0.992 --    14 C    0.961
    23   1 H    0.994 --    14 C    0.973
    24   1 H    0.871 --    12 O    0.829
    25   1 H    0.951 --     4 N    0.922
 ---------------------------------------------------------------------------

molecular dipole:
                 x           y           z       tot (Debye)
 q only:        0.838      -1.910      -0.162
   full:        0.892      -2.657      -0.147       7.134

           -------------------------------------------------
          | TOTAL ENERGY              -42.199387302398 Eh   |
          | GRADIENT NORM               0.001579665686 Eh/α |
          | HOMO-LUMO GAP               1.616071665128 eV   |
           -------------------------------------------------

 * finished run on 2024/06/05 at 19:58:56.167
