   * xtb version 6.6.1 (8d0f1dd) compiled by 'conda@1efc2f54142f' on 2023-08-01
          program call               : xtb xtbopt.xyz --opt crude --input .xc2 --gfn2

   ID    Z sym.   atoms
    1    7 N      1, 17
    2    6 C      2-6, 8, 9, 11-16, 18-23, 25, 26, 28-33
    3    8 O      7, 10, 24, 27
    4    1 H      34-72

          :  Hamiltonian                  GFN2-xTB          :
 * total energy  :   -99.3268776 Eh     change       -0.6792789E-11 Eh
   *** GEOMETRY OPTIMIZATION CONVERGED AFTER 1 ITERATIONS ***

 final structure:
================
72
 xtb: 6.6.1 (8d0f1dd)
N           -2.52080231340068        3.58127970042571        1.97003889560815
C           -2.56501608449035        2.48592992784264        1.36606566030270
C           -3.64108683674596        2.14210692954473        0.36913696994582
C           -3.98160507099444        0.66347862656728        0.42845827469357
C           -4.69732527933824        0.07729114151193       -0.61830799918988
C           -5.04684738050340       -1.26259796897415       -0.60279150986893
O           -5.73990257385875       -1.89819064966023       -1.57125901131971
C           -6.27431384820531       -1.15114275994950       -2.63848781202271
C           -4.66273634046228       -2.07289579988097        0.49958421444300
O           -5.01577525666512       -3.37119495523895        0.41860370180525
C           -4.72608186483537       -4.22948920505618        1.49704917697238
C           -3.98168205910434       -1.48009376746813        1.55089473379560
C           -3.65573768208744       -0.12997645741016        1.51881148398973
C           -3.04773779743387        2.51713916540725       -1.01645045164178
C           -1.99489656903708        1.53451446036466       -1.55982330496447
C           -0.75713751650826        1.51025775897799       -0.74320216568704
N           -0.13677743808984        0.42508213491940       -0.29759759182395
C            0.96604578553131        0.47083442638637        0.43818211271808
C            4.31553614569147       -1.41619459730625       -1.86422969323700
C            5.49823278521094       -0.98856221257143       -1.31059251958240
C            5.89679295992248        0.37567114089843       -1.38771799572077
C            7.07291780653527        0.80643944071944       -0.83201011090640
C            7.92321947453082       -0.08404530093140       -0.16756821079613
O            9.08672630595508        0.23256904248973        0.40738247409425
C            9.55148536661016        1.56357964383457        0.36519479908390
C            7.55055675247061       -1.46575805395281       -0.07636436996338
O            8.43879133497295       -2.23888311954232        0.57991193327817
C            8.17060769322431       -3.61592762042694        0.71526023292761
C            6.37276095101464       -1.89091268009220       -0.63509433059835
C           -0.68228401905319       -0.88539119413637       -0.61020979148636
C           -4.96524876855294        2.93277961467455        0.60352344098932
C           -5.49824865058460        2.69961374973915        2.01523950819055
C           -4.84786582250786        4.43109219864970        0.34075347776585
H           -4.99677183677287        0.68485856010883       -1.45606980329751
H           -6.93928642297876       -0.35983174430114       -2.28033492718616
H           -6.84666594179538       -1.86052351699899       -3.23268330219716
H           -5.48619051971177       -0.71439123521818       -3.26034249884834
H           -5.21260757703768       -3.89505483124758        2.41768022145495
H           -5.12382714277010       -5.20124197692866        1.21145165705091
H           -3.64757876594725       -4.31464444475673        1.66382074207476
H           -3.70849288933120       -2.05997058305216        2.41738098433188
H           -3.15859416786391        0.29282890421805        2.37773291517306
H           -3.85904705628430        2.57647448272416       -1.74217104233837
H           -2.60126771298280        3.50829122775720       -0.93867938560150
H           -2.43760305841555        0.54498871804798       -1.65166626693100
H           -1.74033001075052        1.87993916553746       -2.57033209301821
H           -1.78593495772927        1.71551391664899        1.45929228002239
H           -0.29273859718000        2.45734096660894       -0.51597696291795
H            1.43339060629262       -0.43129316485245        0.77173099997291
H            1.39557394712626        1.41984697482012        0.69361330528053
H            3.66940802050146       -0.73217435259682       -2.38253255595330
H            4.01275727422610       -2.44655331343279       -1.81590091497672
H            5.25602494991623        1.07447913359969       -1.90146081332631
H            7.34546936311432        1.84689750800070       -0.91172452687872
H            8.85729113994635        2.24588828466037        0.86503985150944
H            9.71567124676279        1.89649349173752       -0.66394267513327
H           10.50021199794006        1.55861141502514        0.89874401563187
H            9.01402348218542       -4.02540481721352        1.26698445815168
H            7.24768769186561       -3.78890186083373        1.27881378032310
H            8.10128718342838       -4.10636590458310       -0.26039722719381
H            6.07738045873630       -2.92625125476090       -0.58026669245008
H           -0.73980336831082       -1.02075723333469       -1.68945336916919
H           -1.68004775918664       -0.99113243034398       -0.18234401871648
H           -0.04055591672758       -1.65785367739848       -0.19628231300178
H           -5.69525851473143        2.51951562892563       -0.10242032277651
H           -4.84134288788518        3.16193075856005        2.74638246772878
H           -5.58120146227707        1.63750511009559        2.23462944669026
H           -6.48466592773106        3.14518702653715        2.11326534378939
H           -4.06949086545180        4.85933489064910        0.96374390340362
H           -4.63216851896017        4.64534985953639       -0.70188112923137
H           -5.79204805757110        4.90920079572516        0.59030229455418
H           -1.73070601788808        3.74760628448861        2.58513479479179

          :  Hamiltonian                  GFN2-xTB          :
         :: total energy             -99.326877572936 Eh    ::
         :: gradient norm              0.002861069201 Eh/a0 ::
         :: HOMO-LUMO gap              0.775150636116 eV    ::
         :: SCC energy              -100.730455461754 Eh    ::
         :: -> dispersion             -0.071133702532 Eh    ::
         :: repulsion energy           1.401945204888 Eh    ::

    * Orbital Energies and Occupations

         #    Occupation            Energy/Eh            Energy/eV
      -------------------------------------------------------------
         1        2.0000           -0.8131542             -22.1271
       ...           ...                  ...                  ...
        78        1.9980           -0.5263430             -14.3225
        79        1.9979           -0.5258950             -14.3103
        80        1.9968           -0.5191090             -14.1257
        81        1.9962           -0.5163936             -14.0518
        82        1.9944           -0.5103452             -13.8872
        83        1.9937           -0.5083871             -13.8339
        84        1.9926           -0.5059111             -13.7665
        85        1.9883           -0.4985499             -13.5662
        86        1.9763           -0.4873343             -13.2610
        87        1.9230           -0.4682341             -12.7413
        88        1.9097           -0.4656023             -12.6697
        89        1.8542           -0.4575564             -12.4507
        90        1.5850           -0.4385069             -11.9324 (HOMO)
        91        0.7744           -0.4100207             -11.1572 (LUMO)
        92        0.0161           -0.3410232              -9.2797
        93        0.0071           -0.3281174              -8.9285
        94        0.0030           -0.3142793              -8.5520
        95        0.0024           -0.3110359              -8.4637
        96        0.0019           -0.3068265              -8.3492
        97        0.0004           -0.2831392              -7.7046
        98        0.0000           -0.1888856              -5.1398
        99        0.0000           -0.1757344              -4.7820
       100                         -0.0996207              -2.7108
       101                         -0.0644998              -1.7551
       ...                                ...                  ...
       171                          0.5935449              16.1512
      -------------------------------------------------------------
                  HL-Gap            0.0284863 Eh            0.7752 eV

     #   Z          covCN         q      C6AA      α(0)
     1   7 N        1.774    -0.272    27.871     7.818
     2   6 C        2.827     0.102    25.740     8.313
     3   6 C        3.908     0.007    20.399     6.420
     4   6 C        2.972     0.001    28.013     8.682
     5   6 C        2.921    -0.080    30.000     8.982
     6   6 C        2.862     0.128    25.189     8.226
     7   8 O        1.706    -0.231    17.832     5.701
     8   6 C        3.644     0.028    20.441     6.498
     9   6 C        2.864     0.128    25.193     8.227
    10   8 O        1.706    -0.229    17.791     5.695
    11   6 C        3.645     0.027    20.454     6.500
    12   6 C        2.914    -0.074    29.856     8.960
    13   6 C        2.922    -0.052    29.303     8.877
    14   6 C        3.813    -0.063    21.706     6.631
    15   6 C        3.802    -0.067    21.792     6.646
    16   6 C        2.871    -0.041    29.009     8.829
    17   7 N        2.729     0.102    19.482     6.555
    18   6 C        2.823    -0.108    30.726     9.083
    19   6 C        2.852    -0.092    30.304     9.023
    20   6 C        2.960     0.024    27.466     8.596
    21   6 C        2.921    -0.037    28.919     8.819
    22   6 C        2.906    -0.063    29.558     8.915
    23   6 C        2.864     0.142    24.912     8.181
    24   8 O        1.706    -0.202    17.367     5.627
    25   6 C        3.645     0.022    20.546     6.515
    26   6 C        2.857     0.136    25.021     8.199
    27   8 O        1.706    -0.229    17.794     5.695
    28   6 C        3.646     0.026    20.472     6.502
    29   6 C        2.917    -0.076    29.908     8.968
    30   6 C        3.720    -0.077    22.086     6.712
    31   6 C        3.854    -0.007    20.661     6.465
    32   6 C        3.756    -0.114    22.731     6.798
    33   6 C        3.755    -0.123    22.917     6.826
    34   1 H        0.926     0.053     2.285     2.364
    35   1 H        0.924     0.054     2.274     2.358
    36   1 H        0.925     0.081     1.972     2.196
    37   1 H        0.924     0.047     2.352     2.398
    38   1 H        0.924     0.056     2.252     2.347
    39   1 H        0.925     0.081     1.972     2.196
    40   1 H        0.924     0.049     2.339     2.392
    41   1 H        0.926     0.052     2.290     2.366
    42   1 H        0.926     0.043     2.406     2.426
    43   1 H        0.925     0.058     2.227     2.333
    44   1 H        0.925     0.060     2.203     2.321
    45   1 H        0.925     0.057     2.237     2.339
    46   1 H        0.924     0.066     2.127     2.281
    47   1 H        0.923     0.012     2.854     2.642
    48   1 H        0.926     0.057     2.234     2.337
    49   1 H        0.927     0.061     2.189     2.314
    50   1 H        0.926     0.059     2.210     2.325
    51   1 H        0.926     0.049     2.326     2.385
    52   1 H        0.926     0.052     2.292     2.367
    53   1 H        0.926     0.056     2.252     2.346
    54   1 H        0.926     0.059     2.213     2.327
    55   1 H        0.924     0.059     2.207     2.323
    56   1 H        0.924     0.062     2.179     2.308
    57   1 H        0.925     0.086     1.915     2.164
    58   1 H        0.925     0.082     1.960     2.190
    59   1 H        0.924     0.052     2.297     2.370
    60   1 H        0.924     0.055     2.259     2.351
    61   1 H        0.926     0.058     2.219     2.329
    62   1 H        0.925     0.083     1.953     2.186
    63   1 H        0.924     0.082     1.957     2.188
    64   1 H        0.925     0.085     1.931     2.173
    65   1 H        0.924     0.038     2.480     2.463
    66   1 H        0.925     0.056     2.244     2.342
    67   1 H        0.925     0.034     2.528     2.487
    68   1 H        0.925     0.050     2.315     2.379
    69   1 H        0.925     0.074     2.044     2.236
    70   1 H        0.925     0.039     2.466     2.456
    71   1 H        0.925     0.054     2.274     2.358
    72   1 H        0.860     0.156     1.358     1.825

Wiberg/Mayer (AO) data.
largest (>0.10) Wiberg bond orders for each atom

     #   Z sym  total        # sym  WBO       # sym  WBO       # sym  WBO
 ---------------------------------------------------------------------------
     1   7 N    3.010 --     2 C    1.949    72 H    0.942
     2   6 C    3.937 --     1 N    1.949     3 C    0.994    47 H    0.923
     3   6 C    3.972 --     2 C    0.994     4 C    0.985    14 C    0.946
                            31 C    0.939
     4   6 C    3.945 --    13 C    1.411     5 C    1.369     3 C    0.985
     5   6 C    3.960 --     6 C    1.401     4 C    1.369    34 H    0.957
     6   6 C    3.901 --     5 C    1.401     9 C    1.221     7 O    1.097
     7   8 O    2.249 --     6 C    1.097     8 C    0.978
     8   6 C    3.932 --     7 O    0.978    36 H    0.977    35 H    0.974
                            37 H    0.973
     9   6 C    3.896 --    12 C    1.390     6 C    1.221    10 O    1.101
    10   8 O    2.249 --     9 C    1.101    11 C    0.978
    11   6 C    3.931 --    10 O    0.978    39 H    0.977    40 H    0.973
                            38 H    0.973
    12   6 C    3.960 --    13 C    1.405     9 C    1.390    41 H    0.964
    13   6 C    3.949 --     4 C    1.411    12 C    1.405    42 H    0.963
    14   6 C    3.971 --    15 C    0.982    44 H    0.972    43 H    0.965
                             3 C    0.946
    15   6 C    3.986 --    16 C    1.052    14 C    0.982    45 H    0.962
                            46 H    0.940
    16   6 C    3.668 --    17 N    1.356    15 C    1.052    48 H    0.961
                            18 C    0.219
    17   7 N    3.747 --    18 C    1.364    16 C    1.356    30 C    0.984
    18   6 C    3.598 --    17 N    1.364    49 H    0.975    50 H    0.974
                            16 C    0.219
    19   6 C    3.542 --    20 C    1.499    51 H    0.979    52 H    0.979
    20   6 C    3.979 --    19 C    1.499    21 C    1.206    29 C    1.200
    21   6 C    3.808 --    22 C    1.523    20 C    1.206    53 H    0.967
    22   6 C    3.968 --    21 C    1.523    23 C    1.315    54 H    0.961
    23   6 C    3.768 --    22 C    1.315    26 C    1.171    24 O    1.144
    24   8 O    2.259 --    23 C    1.144    25 C    0.971
    25   6 C    3.924 --    57 H    0.976    55 H    0.971    24 O    0.971
                            56 H    0.971
    26   6 C    3.914 --    29 C    1.481    23 C    1.171    27 O    1.101
    27   8 O    2.255 --    26 C    1.101    28 C    0.977
    28   6 C    3.930 --    58 H    0.977    27 O    0.977    59 H    0.973
                            60 H    0.973
    29   6 C    3.852 --    26 C    1.481    20 C    1.200    61 H    0.961
    30   6 C    3.955 --    17 N    0.984    64 H    0.977    62 H    0.971
                            63 H    0.964
    31   6 C    3.971 --    32 C    1.008    33 C    1.008    65 H    0.960
                             3 C    0.939
    32   6 C    3.982 --    31 C    1.008    68 H    0.982    67 H    0.981
                            66 H    0.979
    33   6 C    3.972 --    31 C    1.008    70 H    0.982    71 H    0.979
                            69 H    0.969
    34   1 H    0.996 --     5 C    0.957
    35   1 H    0.993 --     8 C    0.974
    36   1 H    0.993 --     8 C    0.977
    37   1 H    0.993 --     8 C    0.973
    38   1 H    0.992 --    11 C    0.973
    39   1 H    0.993 --    11 C    0.977
    40   1 H    0.993 --    11 C    0.973
    41   1 H    0.995 --    12 C    0.964
    42   1 H    0.997 --    13 C    0.963
    43   1 H    0.993 --    14 C    0.965
    44   1 H    0.995 --    14 C    0.972
    45   1 H    0.996 --    15 C    0.962
    46   1 H    0.976 --    15 C    0.940
    47   1 H    0.978 --     2 C    0.923
    48   1 H    0.996 --    16 C    0.961
    49   1 H    0.996 --    18 C    0.975
    50   1 H    0.996 --    18 C    0.974
    51   1 H    0.997 --    19 C    0.979
    52   1 H    0.996 --    19 C    0.979
    53   1 H    0.996 --    21 C    0.967
    54   1 H    0.995 --    22 C    0.961
    55   1 H    0.989 --    25 C    0.971
    56   1 H    0.989 --    25 C    0.971
    57   1 H    0.992 --    25 C    0.976
    58   1 H    0.993 --    28 C    0.977
    59   1 H    0.993 --    28 C    0.973
    60   1 H    0.993 --    28 C    0.973
    61   1 H    0.995 --    29 C    0.961
    62   1 H    0.993 --    30 C    0.971
    63   1 H    0.993 --    30 C    0.964
    64   1 H    0.993 --    30 C    0.977
    65   1 H    0.991 --    31 C    0.960
    66   1 H    0.993 --    32 C    0.979
    67   1 H    0.997 --    32 C    0.981
    68   1 H    0.995 --    32 C    0.982
    69   1 H    0.988 --    33 C    0.969
    70   1 H    0.996 --    33 C    0.982
    71   1 H    0.993 --    33 C    0.979
    72   1 H    0.968 --     1 N    0.942
 ---------------------------------------------------------------------------

molecular dipole:
                 x           y           z       tot (Debye)
 q only:        1.424      -0.098      -0.552
   full:        1.673      -0.287      -0.523       4.515

           -------------------------------------------------
          | TOTAL ENERGY              -99.326877572936 Eh   |
          | GRADIENT NORM               0.002861069201 Eh/α |
          | HOMO-LUMO GAP               0.775150636116 eV   |
           -------------------------------------------------

 * finished run on 2024/04/06 at 11:13:42.206
