   * xtb version 6.6.1 (8d0f1dd) compiled by 'conda@1efc2f54142f' on 2023-08-01
          program call               : xtb xtbopt.xyz --opt crude --input .xc2 --gfn2

   ID    Z sym.   atoms
    1    7 N      1, 17
    2    6 C      2-6, 8, 9, 11-16, 18-23, 25, 26, 28-33
    3    8 O      7, 10, 24, 27
    4    1 H      34-72

          :  Hamiltonian                  GFN2-xTB          :
 * total energy  :   -99.2965394 Eh     change       -0.4035883E-11 Eh
   *** GEOMETRY OPTIMIZATION CONVERGED AFTER 1 ITERATIONS ***

 final structure:
================
72
 xtb: 6.6.1 (8d0f1dd)
N           -1.88158750481743        2.84952634147582        2.24067438514350
C           -1.83470745696493        2.11666438252148        1.23118300267708
C           -2.97260886999297        1.91587025535473        0.26962846251627
C           -3.47712127489026        0.48482978943715        0.37366327181642
C           -4.42442150823226        0.02012282449094       -0.53397593503650
C           -4.89160162847463       -1.28962648421555       -0.49052501990967
O           -5.80914788392815       -1.81318969758838       -1.30840776532035
C           -6.27667846140626       -1.06231268240620       -2.40552826164847
C           -4.40003085755377       -2.17523175159952        0.51675598367247
O           -4.90615934112671       -3.41349678264287        0.48851569483603
C           -4.43481275849287       -4.37812472544845        1.40100815034333
C           -3.46552716726799       -1.69493064019817        1.42433085931596
C           -3.01716578821543       -0.38620234683676        1.35500172642395
C           -2.39229306901997        2.16187006910446       -1.14907637868630
C           -1.48589897965734        1.04100511768086       -1.68718564557449
C           -0.14599880445910        1.00356593043973       -1.05138311597037
N            0.49659427540145       -0.08650090933474       -0.63233727905119
C            1.88160851936350        0.08934601947624       -0.19812358340553
C            2.85367856292727       -0.23662505475370       -1.34338879401789
C            4.27671605977722       -0.05031504554036       -0.89378066800164
C            4.93259990815482        1.15534902016931       -1.09357486392554
C            6.24268295928272        1.33035136353708       -0.67664221685319
C            6.92476652579723        0.30154705907925       -0.04059978159733
O            8.19334603354137        0.35055193582258        0.39536556205540
C            8.95127825349153        1.52281756974097        0.19897516478791
C            6.25474245741186       -0.93632435646409        0.18299541973173
O            6.98648105938304       -1.87338929810078        0.81089144492284
C            6.43075916520967       -3.14480838106286        1.05196216947166
C            4.94496032277874       -1.08739094492927       -0.24772139196241
C            0.02039715433503       -1.32068718739360       -0.59593784430865
C           -4.16658781595331        2.88260817980135        0.53005506955138
C           -4.83286810476263        2.59940135189743        1.87379212487162
C           -3.77811738647779        4.35593096743088        0.44898385391808
H           -4.79063943965822        0.67810311569870       -1.30441838141783
H           -6.81846981335223       -0.16870578584902       -2.07897900612119
H           -6.95907958438560       -1.71982230385191       -2.94149707159136
H           -5.45228486210219       -0.77658751047897       -3.06535730333159
H           -4.65323236828530       -4.09234587701013        2.43440585879655
H           -4.96948955134457       -5.29499624777218        1.15968503733637
H           -3.35944217711883       -4.54274044205840        1.28548114275543
H           -3.07559375520923       -2.34096973216639        2.19418142060034
H           -2.30231885631092       -0.04844259490623        2.08924172829426
H           -3.22277185808261        2.28291738329073       -1.84379155211601
H           -1.83109788705059        3.09811663613940       -1.14070142287851
H           -1.99849387031405        0.07805115331374       -1.61540696273360
H           -1.33824346621246        1.24644373017774       -2.75598712611227
H           -0.92997950812025        1.56853775403870        0.91174834137746
H            0.42186647401025        1.92212633470973       -1.04846262410276
H            2.07734522357309       -0.57193852171797        0.64907793100696
H            2.03777369821508        1.12064983387873        0.12698689964973
H            2.64265938835910        0.42091473943857       -2.18904113202978
H            2.69356965797811       -1.26806087339428       -1.66396192106452
H            4.42756130642292        1.96785093432398       -1.59323516499026
H            6.72991191967965        2.27417290290662       -0.85835746756700
H            8.50046071020375        2.38138326346500        0.70536172041655
H            9.07143710817561        1.74666360356854       -0.86526379279084
H            9.92608367104717        1.31612576538960        0.63682057392405
H            7.21811130865291       -3.71991052798510        1.53546847735957
H            5.56580133781865       -3.08356708576340        1.72001030768284
H            6.14116218692008       -3.63947172562294        0.12008445227870
H            4.43499590575693       -2.02601328861732       -0.09724848506971
H           -2.71343771357441       -1.73385931078908       -1.61299526761482
H           -0.97443973723856       -1.55598071597040       -0.94031456068554
H            0.64321399777072       -2.10324473399623       -0.21000802829099
H           -4.90211939895857        2.68529685087676       -0.25787682235491
H           -4.14093718218557        2.80917724296205        2.68373457904478
H           -5.15431235289386        1.56296652725252        1.94379316340493
H           -5.70456553135981        3.23816308662472        1.99040361156257
H           -3.04780364209885        4.59631719270434        1.21568476090443
H           -3.37415859939338        4.61693689232605       -0.52509557894570
H           -4.66068337056114        4.96729885016449        0.61796726392618
H           -1.04912036692457        2.94038111825367        2.81353344330074

          :  Hamiltonian                  GFN2-xTB          :
         :: total energy             -99.296539370464 Eh    ::
         :: gradient norm              0.001926797671 Eh/a0 ::
         :: HOMO-LUMO gap              0.229066959268 eV    ::
         :: SCC energy              -100.676275366338 Eh    ::
         :: -> dispersion             -0.081219780626 Eh    ::
         :: repulsion energy           1.378406736777 Eh    ::

    * Orbital Energies and Occupations

         #    Occupation            Energy/Eh            Energy/eV
      -------------------------------------------------------------
         1        2.0000           -0.8164064             -22.2155
       ...           ...                  ...                  ...
        78        1.9967           -0.5328911             -14.5007
        79        1.9965           -0.5318332             -14.4719
        80        1.9955           -0.5278703             -14.3641
        81        1.9949           -0.5260325             -14.3141
        82        1.9917           -0.5183797             -14.1058
        83        1.9913           -0.5175375             -14.0829
        84        1.9884           -0.5130045             -13.9596
        85        1.9685           -0.4970221             -13.5247
        86        1.9608           -0.4934822             -13.4283
        87        1.9049           -0.4789893             -13.0340
        88        1.7997           -0.4663002             -12.6887
        89        1.7773           -0.4644162             -12.6374
        90        1.4331           -0.4462175             -12.1422 (HOMO)
        91        1.1954           -0.4377994             -11.9131 (LUMO)
        92        0.0104           -0.3483517              -9.4791
        93        0.0074           -0.3430229              -9.3341
        94        0.0018           -0.3207055              -8.7268
        95        0.0016           -0.3184752              -8.6662
        96        0.0015           -0.3179783              -8.6526
        97        0.0013           -0.3159221              -8.5967
        98        0.0000           -0.1964755              -5.3464
        99        0.0000           -0.1937008              -5.2709
       100                         -0.1233541              -3.3566
       101                         -0.0684542              -1.8627
       ...                                ...                  ...
       171                          0.5672611              15.4360
      -------------------------------------------------------------
                  HL-Gap            0.0084181 Eh            0.2291 eV

     #   Z          covCN         q      C6AA      α(0)
     1   7 N        1.774    -0.258    27.535     7.770
     2   6 C        2.827     0.104    25.699     8.307
     3   6 C        3.907     0.008    20.383     6.417
     4   6 C        2.974     0.016    27.645     8.625
     5   6 C        2.919    -0.059    29.478     8.903
     6   6 C        2.863     0.159    24.560     8.123
     7   8 O        1.706    -0.201    17.351     5.624
     8   6 C        3.646     0.024    20.505     6.508
     9   6 C        2.864     0.149    24.754     8.155
    10   8 O        1.706    -0.203    17.387     5.630
    11   6 C        3.646     0.023    20.520     6.510
    12   6 C        2.912    -0.062    29.549     8.914
    13   6 C        2.921    -0.039    28.972     8.827
    14   6 C        3.811    -0.063    21.696     6.630
    15   6 C        3.801    -0.069    21.829     6.652
    16   6 C        2.860    -0.027    28.662     8.775
    17   7 N        2.730     0.092    19.655     6.585
    18   6 C        3.779    -0.020    20.963     6.523
    19   6 C        3.808    -0.069    21.817     6.649
    20   6 C        2.968     0.005    27.914     8.666
    21   6 C        2.921    -0.045    29.125     8.850
    22   6 C        2.913    -0.065    29.627     8.926
    23   6 C        2.864     0.136    25.020     8.199
    24   8 O        1.706    -0.213    17.541     5.655
    25   6 C        3.645     0.022    20.535     6.513
    26   6 C        2.862     0.136    25.027     8.200
    27   8 O        1.706    -0.216    17.594     5.663
    28   6 C        3.644     0.024    20.501     6.508
    29   6 C        2.919    -0.077    29.935     8.972
    30   6 C        2.810    -0.087    30.160     8.998
    31   6 C        3.853    -0.008    20.685     6.469
    32   6 C        3.756    -0.119    22.838     6.814
    33   6 C        3.755    -0.119    22.834     6.813
    34   1 H        0.926     0.062     2.181     2.309
    35   1 H        0.924     0.058     2.221     2.331
    36   1 H        0.925     0.087     1.907     2.160
    37   1 H        0.924     0.063     2.166     2.302
    38   1 H        0.924     0.060     2.198     2.318
    39   1 H        0.925     0.087     1.906     2.159
    40   1 H        0.924     0.059     2.209     2.324
    41   1 H        0.926     0.059     2.207     2.323
    42   1 H        0.926     0.044     2.394     2.420
    43   1 H        0.925     0.060     2.203     2.321
    44   1 H        0.924     0.052     2.300     2.372
    45   1 H        0.924     0.087     1.909     2.161
    46   1 H        0.923     0.075     2.034     2.230
    47   1 H        0.922     0.019     2.755     2.596
    48   1 H        0.926     0.056     2.248     2.344
    49   1 H        0.924     0.073     2.052     2.240
    50   1 H        0.924     0.068     2.105     2.269
    51   1 H        0.924     0.060     2.203     2.321
    52   1 H        0.924     0.063     2.170     2.304
    53   1 H        0.926     0.052     2.298     2.371
    54   1 H        0.926     0.063     2.165     2.301
    55   1 H        0.924     0.058     2.219     2.329
    56   1 H        0.924     0.060     2.196     2.317
    57   1 H        0.925     0.086     1.918     2.166
    58   1 H        0.925     0.085     1.924     2.169
    59   1 H        0.924     0.053     2.282     2.363
    60   1 H        0.924     0.057     2.234     2.337
    61   1 H        0.926     0.053     2.285     2.364
    62   1 H        0.000    -0.327    69.536    15.248
    63   1 H        0.926     0.100     1.787     2.090
    64   1 H        0.926     0.067     2.117     2.275
    65   1 H        0.924     0.042     2.420     2.433
    66   1 H        0.925     0.071     2.071     2.250
    67   1 H        0.925     0.037     2.493     2.469
    68   1 H        0.925     0.055     2.258     2.350
    69   1 H        0.925     0.063     2.162     2.299
    70   1 H        0.925     0.039     2.460     2.453
    71   1 H        0.925     0.057     2.234     2.338
    72   1 H        0.860     0.161     1.326     1.804

Wiberg/Mayer (AO) data.
largest (>0.10) Wiberg bond orders for each atom

     #   Z sym  total        # sym  WBO       # sym  WBO       # sym  WBO
 ---------------------------------------------------------------------------
     1   7 N    3.022 --     2 C    1.957    72 H    0.938
     2   6 C    3.926 --     1 N    1.957     3 C    0.994    47 H    0.901
     3   6 C    3.964 --     2 C    0.994     4 C    0.969    14 C    0.952
                            31 C    0.940
     4   6 C    3.923 --     5 C    1.390    13 C    1.384     3 C    0.969
     5   6 C    3.923 --     4 C    1.390     6 C    1.352    34 H    0.956
     6   6 C    3.867 --     5 C    1.352     9 C    1.181     7 O    1.140
     7   8 O    2.270 --     6 C    1.140     8 C    0.972
     8   6 C    3.921 --    36 H    0.976     7 O    0.972    37 H    0.970
                            35 H    0.970
     9   6 C    3.858 --    12 C    1.369     6 C    1.181    10 O    1.134
    10   8 O    2.261 --     9 C    1.134    11 C    0.973
    11   6 C    3.922 --    39 H    0.976    10 O    0.973    40 H    0.971
                            38 H    0.970
    12   6 C    3.944 --    13 C    1.425     9 C    1.369    41 H    0.962
    13   6 C    3.918 --    12 C    1.425     4 C    1.384    42 H    0.961
    14   6 C    3.968 --    15 C    0.983    44 H    0.970    43 H    0.968
                             3 C    0.952
    15   6 C    3.952 --    16 C    1.055    14 C    0.983    45 H    0.930
                            46 H    0.928
    16   6 C    3.631 --    17 N    1.328    15 C    1.055    48 H    0.960
                            30 C    0.173
    17   7 N    3.740 --    30 C    1.385    16 C    1.328    18 C    0.963
    18   6 C    3.950 --    19 C    0.976    50 H    0.969    49 H    0.968
                            17 N    0.963
    19   6 C    3.985 --    20 C    1.008    18 C    0.976    51 H    0.971
                            52 H    0.968
    20   6 C    3.931 --    21 C    1.400    29 C    1.384    19 C    1.008
    21   6 C    3.936 --    22 C    1.421    20 C    1.400    53 H    0.967
    22   6 C    3.950 --    21 C    1.421    23 C    1.376    54 H    0.962
    23   6 C    3.881 --    22 C    1.376    26 C    1.208    24 O    1.121
    24   8 O    2.254 --    23 C    1.121    25 C    0.974
    25   6 C    3.923 --    57 H    0.976    24 O    0.974    55 H    0.971
                            56 H    0.971
    26   6 C    3.884 --    29 C    1.388    23 C    1.208    27 O    1.114
    27   8 O    2.254 --    26 C    1.114    28 C    0.976
    28   6 C    3.927 --    58 H    0.976    27 O    0.976    59 H    0.972
                            60 H    0.972
    29   6 C    3.952 --    26 C    1.388    20 C    1.384    61 H    0.962
    30   6 C    3.530 --    17 N    1.385    64 H    0.972    63 H    0.930
                            16 C    0.173
    31   6 C    3.962 --    33 C    1.009    32 C    1.007    65 H    0.955
                             3 C    0.940
    32   6 C    3.969 --    31 C    1.007    67 H    0.980    68 H    0.979
                            66 H    0.970
    33   6 C    3.974 --    31 C    1.009    70 H    0.981    71 H    0.978
                            69 H    0.973
    34   1 H    0.994 --     5 C    0.956
    35   1 H    0.989 --     8 C    0.970
    36   1 H    0.991 --     8 C    0.976
    37   1 H    0.989 --     8 C    0.970
    38   1 H    0.988 --    11 C    0.970
    39   1 H    0.991 --    11 C    0.976
    40   1 H    0.989 --    11 C    0.971
    41   1 H    0.994 --    12 C    0.962
    42   1 H    0.997 --    13 C    0.961
    43   1 H    0.994 --    14 C    0.968
    44   1 H    0.994 --    14 C    0.970
    45   1 H    0.991 --    15 C    0.930
    46   1 H    0.968 --    15 C    0.928
    47   1 H    0.974 --     2 C    0.901
    48   1 H    0.995 --    16 C    0.960
    49   1 H    0.994 --    18 C    0.968
    50   1 H    0.995 --    18 C    0.969
    51   1 H    0.995 --    19 C    0.971
    52   1 H    0.994 --    19 C    0.968
    53   1 H    0.996 --    21 C    0.967
    54   1 H    0.994 --    22 C    0.962
    55   1 H    0.989 --    25 C    0.971
    56   1 H    0.989 --    25 C    0.971
    57   1 H    0.992 --    25 C    0.976
    58   1 H    0.992 --    28 C    0.976
    59   1 H    0.991 --    28 C    0.972
    60   1 H    0.990 --    28 C    0.972
    61   1 H    0.996 --    29 C    0.962
    62   1 H    0.143
    63   1 H    0.990 --    30 C    0.930
    64   1 H    0.994 --    30 C    0.972
    65   1 H    0.987 --    31 C    0.955
    66   1 H    0.987 --    32 C    0.970
    67   1 H    0.995 --    32 C    0.980
    68   1 H    0.991 --    32 C    0.979
    69   1 H    0.990 --    33 C    0.973
    70   1 H    0.995 --    33 C    0.981
    71   1 H    0.991 --    33 C    0.978
    72   1 H    0.965 --     1 N    0.938
 ---------------------------------------------------------------------------

molecular dipole:
                 x           y           z       tot (Debye)
 q only:        1.241       0.559       0.244
   full:        1.600       0.441       0.068       4.221

           -------------------------------------------------
          | TOTAL ENERGY              -99.296539370464 Eh   |
          | GRADIENT NORM               0.001926797671 Eh/α |
          | HOMO-LUMO GAP               0.229066959268 eV   |
           -------------------------------------------------

 * finished run on 2024/04/06 at 11:13:44.289
