   * xtb version 6.6.1 (8d0f1dd) compiled by 'conda@1efc2f54142f' on 2023-08-01
          program call               : xtb struc.xyz --opt loose --input .xc1 --gfn2

   ID    Z sym.   atoms
    1    6 C      1, 3, 5-7, 10, 11, 14
    2    7 N      2, 4, 9, 13
    3    8 O      8, 12
    4    1 H      15-25
constraining bond 4 13 to    4.8400000 Å, actual value:    2.4476530 Å

          :  Hamiltonian                  GFN2-xTB          :
 * total energy  :   -32.0261043 Eh     change       -0.6633627E-10 Eh
 * total energy  :   -35.8470632 Eh     change       -0.3820959E+01 Eh
 * total energy  :   -38.7832338 Eh     change       -0.2936171E+01 Eh
 * total energy  :   -40.6033570 Eh     change       -0.1820123E+01 Eh
 * total energy  :   -41.4912967 Eh     change       -0.8879397E+00 Eh
 * total energy  :   -41.6471323 Eh     change       -0.1558356E+00 Eh
 * total energy  :   -41.6735890 Eh     change       -0.2645671E-01 Eh
 * total energy  :   -41.7490082 Eh     change       -0.7541924E-01 Eh
 * total energy  :   -41.7893751 Eh     change       -0.4036684E-01 Eh
 * total energy  :   -41.8059997 Eh     change       -0.1662466E-01 Eh
 * total energy  :   -42.0662106 Eh     change        0.1498525E-02 Eh
 * total energy  :   -42.0681045 Eh     change       -0.1893857E-02 Eh
 * total energy  :   -42.0682816 Eh     change       -0.1771873E-03 Eh
 * total energy  :   -42.0684723 Eh     change       -0.1906908E-03 Eh
 * total energy  :   -42.0686803 Eh     change       -0.2080012E-03 Eh
 * total energy  :   -42.0687855 Eh     change       -0.1052054E-03 Eh
 * total energy  :   -42.0688485 Eh     change       -0.6292087E-04 Eh
 * total energy  :   -42.0688837 Eh     change       -0.3523519E-04 Eh
 * total energy  :   -42.0689108 Eh     change       -0.2712410E-04 Eh
   *** GEOMETRY OPTIMIZATION CONVERGED AFTER 68 ITERATIONS ***

 final structure:
================
25
 xtb: 6.6.1 (8d0f1dd)
C            3.12891283670376        0.93048768515580        0.81081281350190
N            2.40367927711633        0.05222345910376       -0.06134821978509
C            2.90081027887479       -0.94174185519084       -0.79954202878163
N            1.97311233919251       -1.56498422160858       -1.50574076441751
C            0.82260562920211       -0.97022506363985       -1.21833403068675
C            1.03679858153387        0.06751612861650       -0.29692672329162
C            0.17828625804907        1.04141478893042        0.26521031089365
O            0.41022568208829        2.00440652435512        0.92516792037903
N           -1.29109848425116        0.82726583849043       -0.10749662272403
C           -1.92934930809978        1.93914983539439       -0.79600315442119
C           -1.96790565787784       -0.14549144605743        0.34164866156310
O           -3.20664044466039       -0.54820499994165        0.38601801650827
N           -2.05974083531123       -1.20586841894617        1.14448533781088
C           -1.76666918629361       -2.57112680235789        0.84380203585457
H            2.72294576341374        0.88576282499551        1.82182982096126
H            4.17545236450556        0.63243385805826        0.82775747549570
H            3.05343984094178        1.96192217335271        0.46172485087742
H            3.94018275315566       -1.20505127006866       -0.82464537125400
H           -1.62010150898869        2.86342371123314       -0.30683238498450
H           -1.59719566058293        1.95605627410655       -1.83406218292919
H           -3.01195571674955        1.84005774328134       -0.75268228432118
H           -0.74097829414341       -2.74539012351613        1.17058096501539
H           -1.86788663353318       -2.82307445368570       -0.21347276879219
H           -2.43552886635874       -3.18923846844599        1.44125168026811
H           -0.09096949382485       -1.27348518002209       -1.69203173484037

          :  Hamiltonian                  GFN2-xTB          :
         :: total energy             -42.068910820184 Eh    ::
         :: gradient norm              0.001884352865 Eh/a0 ::
         :: HOMO-LUMO gap              2.139055335347 eV    ::
         :: SCC energy               -42.594833881282 Eh    ::
         :: -> dispersion             -0.021353382827 Eh    ::
         :: repulsion energy           0.525669781447 Eh    ::

    * Orbital Energies and Occupations

         #    Occupation            Energy/Eh            Energy/eV
      -------------------------------------------------------------
         1        2.0000           -0.9779725             -26.6120
       ...           ...                  ...                  ...
        25        2.0000           -0.6669106             -18.1476
        26        2.0000           -0.6614176             -17.9981
        27        2.0000           -0.6525415             -17.7566
        28        2.0000           -0.6479189             -17.6308
        29        2.0000           -0.6424646             -17.4824
        30        2.0000           -0.6352848             -17.2870
        31        2.0000           -0.6298511             -17.1391
        32        2.0000           -0.6261111             -17.0373
        33        2.0000           -0.6038927             -16.4328
        34        2.0000           -0.6002696             -16.3342
        35        2.0000           -0.5840789             -15.8936
        36        1.9997           -0.5688318             -15.4787
        37        1.9856           -0.5385510             -14.6547 (HOMO)
        38        0.0133           -0.4599421             -12.5157 (LUMO)
        39        0.0014           -0.4421427             -12.0313
        40        0.0000           -0.4126149             -11.2278
        41                         -0.3528942              -9.6027
        42                         -0.3171744              -8.6308
        43                         -0.2640043              -7.1839
        44                         -0.2324667              -6.3257
        45                         -0.1354310              -3.6853
        46                         -0.0902947              -2.4570
        47                         -0.0361834              -0.9846
        48                         -0.0312943              -0.8516
       ...                                ...                  ...
        67                          0.5927363              16.1292
      -------------------------------------------------------------
                  HL-Gap            0.0786088 Eh            2.1391 eV

     #   Z          covCN         q      C6AA      α(0)
     1   6 C        3.690    -0.076    22.149     6.735
     2   7 N        2.836     0.041    20.524     6.729
     3   6 C        3.178     0.099    25.420     8.232
     4   7 N        1.909    -0.199    26.133     7.579
     5   6 C        3.143     0.036    26.942     8.493
     6   6 C        3.096    -0.022    28.423     8.737
     7   6 C        2.749     0.271    22.425     7.754
     8   8 O        0.857    -0.288    19.558     5.929
     9   7 N        2.721    -0.035    21.917     6.953
    10   6 C        3.706    -0.068    21.963     6.699
    11   6 C        2.711     0.326    21.456     7.582
    12   8 O        1.723    -0.167    16.825     5.538
    13   7 N        2.687     0.005    21.176     6.834
    14   6 C        3.687    -0.065    21.961     6.708
    15   1 H        0.924     0.096     1.819     2.109
    16   1 H        0.925     0.095     1.829     2.115
    17   1 H        0.924     0.102     1.765     2.077
    18   1 H        0.926     0.097     1.813     2.106
    19   1 H        0.924     0.129     1.542     1.942
    20   1 H        0.925     0.111     1.685     2.030
    21   1 H        0.925     0.111     1.690     2.033
    22   1 H        0.924     0.119     1.622     1.991
    23   1 H        0.924     0.091     1.874     2.141
    24   1 H        0.925     0.130     1.537     1.938
    25   1 H        0.926     0.060     2.198     2.318

Wiberg/Mayer (AO) data.
largest (>0.10) Wiberg bond orders for each atom

     #   Z sym  total        # sym  WBO       # sym  WBO       # sym  WBO
 ---------------------------------------------------------------------------
     1   6 C    3.942 --     2 N    0.997    16 H    0.975    15 H    0.963
                            17 H    0.960
     2   7 N    3.694 --     3 C    1.363     6 C    1.139     1 C    0.997
     3   6 C    3.952 --     4 N    1.417     2 N    1.363    18 H    0.956
     4   7 N    3.049 --     5 C    1.448     3 C    1.417
     5   6 C    3.976 --     4 N    1.448     6 C    1.343    25 H    0.967
     6   6 C    3.935 --     5 C    1.343     7 C    1.179     2 N    1.139
     7   6 C    3.927 --     8 O    1.824     6 C    1.179     9 N    0.793
     8   8 O    2.192 --     7 C    1.824
     9   7 N    3.623 --    11 C    1.553    10 C    0.949     7 C    0.793
                            12 O    0.108
    10   6 C    3.903 --    21 H    0.972    20 H    0.960    19 H    0.955
                             9 N    0.949
    11   6 C    3.925 --     9 N    1.553    13 N    1.140    12 O    1.115
    12   8 O    2.190 --    11 C    1.115    13 N    0.850     9 N    0.108
    13   7 N    3.146 --    11 C    1.140    14 C    1.002    12 O    0.850
    14   6 C    3.925 --    13 N    1.002    23 H    0.967    24 H    0.961
                            22 H    0.936
    15   1 H    0.991 --     1 C    0.963
    16   1 H    0.990 --     1 C    0.975
    17   1 H    0.989 --     1 C    0.960
    18   1 H    0.990 --     3 C    0.956
    19   1 H    0.983 --    10 C    0.955
    20   1 H    0.987 --    10 C    0.960
    21   1 H    0.987 --    10 C    0.972
    22   1 H    0.986 --    14 C    0.936
    23   1 H    0.991 --    14 C    0.967
    24   1 H    0.982 --    14 C    0.961
    25   1 H    0.996 --     5 C    0.967
 ---------------------------------------------------------------------------

molecular dipole:
                 x           y           z       tot (Debye)
 q only:       -0.139      -0.357       0.149
   full:       -0.253      -0.210       0.099       0.873

           -------------------------------------------------
          | TOTAL ENERGY              -42.068910820184 Eh   |
          | GRADIENT NORM               0.001884352865 Eh/α |
          | HOMO-LUMO GAP               2.139055335347 eV   |
           -------------------------------------------------

 * finished run on 2024/06/05 at 19:57:57.472
