   * xtb version 6.6.1 (8d0f1dd) compiled by 'conda@1efc2f54142f' on 2023-08-01
          program call               : xtb xtbopt.xyz --opt crude --input .xc2 --gfn2

   ID    Z sym.   atoms
    1    6 C      1, 3, 5-7, 10, 11, 14
    2    7 N      2, 4, 9, 13
    3    8 O      8, 12
    4    1 H      15-25
########################################################################
[WARNING] Please study the warnings concerning your input carefully
-1- readin_getIntValue: could not parse ''
########################################################################

          :  Hamiltonian                  GFN2-xTB          :
 * total energy  :   -42.0689124 Eh     change        0.7105427E-13 Eh
 * total energy  :   -42.0690000 Eh     change       -0.8765990E-04 Eh
   *** GEOMETRY OPTIMIZATION CONVERGED AFTER 2 ITERATIONS ***

 final structure:
================
25
 xtb: 6.6.1 (8d0f1dd)
C            3.12935340373620        0.93069083019359        0.80982231293688
N            2.40073122243044        0.05047560834372       -0.05828188637210
C            2.89341019973200       -0.94639773039853       -0.79510944789297
N            1.96128968763038       -1.57104296592045       -1.49485136002092
C            0.81427429889755       -0.96943187831378       -1.21101470238812
C            1.03360806319520        0.06930998184473       -0.29259397274316
C            0.17831316568756        1.04684533287186        0.26626964157611
O            0.41110983385716        2.01052044091632        0.92492158591029
N           -1.29002357393266        0.83118159806584       -0.10769623222283
C           -1.92988714142755        1.94090990845066       -0.79734612425890
C           -1.96320588615130       -0.14410145480251        0.34057944146104
O           -3.20043501179348       -0.55014145577656        0.38855270820337
N           -2.04804201272803       -1.20734752253699        1.14014958384497
C           -1.75896117232546       -2.57263042245191        0.83741391491997
H            2.72490057754711        0.88856404338947        1.82176764558353
H            4.17532726247023        0.63204755220598        0.82533338316056
H            3.05297059262212        1.96091549834558        0.45833952937958
H            3.93234545105051       -1.21198814090300       -0.82223255961121
H           -1.62470884229042        2.86624758786449       -0.30728161292006
H           -1.59449130808018        1.95854336534962       -1.83444761249333
H           -3.01234825234127        1.83826435569990       -0.75724892785008
H           -0.73338498998913       -2.74875313947892        1.16329247042529
H           -1.86299650851581       -2.82332203638836       -0.21995225963711
H           -2.42856777851251       -3.18952025750804        1.43577668308078
H           -0.10014976666657       -1.27160055746976       -1.68299058417159

          :  Hamiltonian                  GFN2-xTB          :
         :: total energy             -42.069000033926 Eh    ::
         :: gradient norm              0.002123376130 Eh/a0 ::
         :: HOMO-LUMO gap              2.143186481323 eV    ::
         :: SCC energy               -42.595468743139 Eh    ::
         :: -> dispersion             -0.021387131793 Eh    ::
         :: repulsion energy           0.526217207647 Eh    ::

    * Orbital Energies and Occupations

         #    Occupation            Energy/Eh            Energy/eV
      -------------------------------------------------------------
         1        2.0000           -0.9779669             -26.6118
       ...           ...                  ...                  ...
        25        2.0000           -0.6669809             -18.1495
        26        2.0000           -0.6615508             -18.0017
        27        2.0000           -0.6526307             -17.7590
        28        2.0000           -0.6479381             -17.6313
        29        2.0000           -0.6425814             -17.4855
        30        2.0000           -0.6354071             -17.2903
        31        2.0000           -0.6298951             -17.1403
        32        2.0000           -0.6262427             -17.0409
        33        2.0000           -0.6038410             -16.4313
        34        2.0000           -0.6001426             -16.3307
        35        2.0000           -0.5841859             -15.8965
        36        1.9997           -0.5689958             -15.4832
        37        1.9857           -0.5385812             -14.6555 (HOMO)
        38        0.0132           -0.4598206             -12.5124 (LUMO)
        39        0.0014           -0.4419573             -12.0263
        40        0.0000           -0.4129326             -11.2365
        41                         -0.3529720              -9.6049
        42                         -0.3169837              -8.6256
        43                         -0.2633998              -7.1675
        44                         -0.2324753              -6.3260
        45                         -0.1358871              -3.6977
        46                         -0.0901579              -2.4533
        47                         -0.0360838              -0.9819
        48                         -0.0312897              -0.8514
       ...                                ...                  ...
        67                          0.5939431              16.1620
      -------------------------------------------------------------
                  HL-Gap            0.0787607 Eh            2.1432 eV

     #   Z          covCN         q      C6AA      α(0)
     1   6 C        3.690    -0.076    22.150     6.735
     2   7 N        2.836     0.041    20.524     6.729
     3   6 C        3.178     0.099    25.419     8.232
     4   7 N        1.910    -0.199    26.140     7.580
     5   6 C        3.143     0.036    26.945     8.494
     6   6 C        3.098    -0.022    28.423     8.737
     7   6 C        2.750     0.271    22.425     7.754
     8   8 O        0.857    -0.288    19.558     5.929
     9   7 N        2.721    -0.035    21.916     6.953
    10   6 C        3.706    -0.068    21.963     6.699
    11   6 C        2.711     0.326    21.454     7.582
    12   8 O        1.723    -0.168    16.828     5.539
    13   7 N        2.687     0.005    21.182     6.835
    14   6 C        3.687    -0.065    21.960     6.708
    15   1 H        0.924     0.096     1.818     2.108
    16   1 H        0.925     0.095     1.828     2.114
    17   1 H        0.924     0.102     1.764     2.077
    18   1 H        0.926     0.097     1.813     2.106
    19   1 H        0.924     0.129     1.542     1.942
    20   1 H        0.925     0.111     1.684     2.030
    21   1 H        0.925     0.111     1.691     2.033
    22   1 H        0.924     0.119     1.619     1.990
    23   1 H        0.924     0.091     1.873     2.140
    24   1 H        0.925     0.130     1.536     1.938
    25   1 H        0.926     0.060     2.199     2.319

Wiberg/Mayer (AO) data.
largest (>0.10) Wiberg bond orders for each atom

     #   Z sym  total        # sym  WBO       # sym  WBO       # sym  WBO
 ---------------------------------------------------------------------------
     1   6 C    3.942 --     2 N    0.997    16 H    0.975    15 H    0.963
                            17 H    0.960
     2   7 N    3.694 --     3 C    1.364     6 C    1.139     1 C    0.997
     3   6 C    3.952 --     4 N    1.416     2 N    1.364    18 H    0.956
     4   7 N    3.050 --     5 C    1.449     3 C    1.416
     5   6 C    3.977 --     4 N    1.449     6 C    1.343    25 H    0.967
     6   6 C    3.935 --     5 C    1.343     7 C    1.179     2 N    1.139
     7   6 C    3.927 --     8 O    1.824     6 C    1.179     9 N    0.793
     8   8 O    2.192 --     7 C    1.824
     9   7 N    3.624 --    11 C    1.552    10 C    0.950     7 C    0.793
                            12 O    0.108
    10   6 C    3.904 --    21 H    0.972    20 H    0.960    19 H    0.955
                             9 N    0.950
    11   6 C    3.926 --     9 N    1.552    13 N    1.140    12 O    1.115
    12   8 O    2.189 --    11 C    1.115    13 N    0.849     9 N    0.108
    13   7 N    3.147 --    11 C    1.140    14 C    1.002    12 O    0.849
    14   6 C    3.925 --    13 N    1.002    23 H    0.967    24 H    0.961
                            22 H    0.935
    15   1 H    0.991 --     1 C    0.963
    16   1 H    0.990 --     1 C    0.975
    17   1 H    0.989 --     1 C    0.960
    18   1 H    0.990 --     3 C    0.956
    19   1 H    0.983 --    10 C    0.955
    20   1 H    0.987 --    10 C    0.960
    21   1 H    0.987 --    10 C    0.972
    22   1 H    0.986 --    14 C    0.935
    23   1 H    0.991 --    14 C    0.967
    24   1 H    0.982 --    14 C    0.961
    25   1 H    0.996 --     5 C    0.967
 ---------------------------------------------------------------------------

molecular dipole:
                 x           y           z       tot (Debye)
 q only:       -0.135      -0.357       0.144
   full:       -0.248      -0.207       0.093       0.855

           -------------------------------------------------
          | TOTAL ENERGY              -42.069000033926 Eh   |
          | GRADIENT NORM               0.002123376130 Eh/α |
          | HOMO-LUMO GAP               2.143186481323 eV   |
           -------------------------------------------------

 * finished run on 2024/06/05 at 19:57:57.643
