   * xtb version 6.6.1 (8d0f1dd) compiled by 'conda@1efc2f54142f' on 2023-08-01
          program call               : xtb struc.xyz --opt loose --input .xc1 --gfn2

   ID    Z sym.   atoms
    1    6 C      1, 3, 5-7, 10, 11, 14
    2    7 N      2, 4, 9, 13
    3    8 O      8, 12
    4    1 H      15-25
constraining bond 7 20 to    5.1400000 Å, actual value:    3.1456537 Å

          :  Hamiltonian                  GFN2-xTB          :
 * total energy  :   -35.1434773 Eh     change       -0.6633627E-10 Eh
 * total energy  :   -38.3815588 Eh     change       -0.3238081E+01 Eh
 * total energy  :   -40.5895064 Eh     change       -0.2207948E+01 Eh
 * total energy  :   -41.6320414 Eh     change       -0.1042535E+01 Eh
 * total energy  :   -41.9161228 Eh     change       -0.2840814E+00 Eh
 * total energy  :   -41.9465481 Eh     change       -0.3042534E-01 Eh
 * total energy  :   -41.9589126 Eh     change       -0.1236451E-01 Eh
 * total energy  :   -41.9834149 Eh     change       -0.2450226E-01 Eh
 * total energy  :   -41.9937633 Eh     change       -0.1034840E-01 Eh
 * total energy  :   -42.0013380 Eh     change       -0.7574740E-02 Eh
 * total energy  :   -42.0803245 Eh     change       -0.2258325E-03 Eh
 * total energy  :   -42.0804211 Eh     change       -0.9663887E-04 Eh
 * total energy  :   -42.0805621 Eh     change       -0.1409933E-03 Eh
 * total energy  :   -42.0806707 Eh     change       -0.1086043E-03 Eh
 * total energy  :   -42.0807829 Eh     change       -0.1121966E-03 Eh
 * total energy  :   -42.0808831 Eh     change       -0.1002345E-03 Eh
 * total energy  :   -42.0809452 Eh     change       -0.6204485E-04 Eh
 * total energy  :   -42.0810043 Eh     change       -0.5914838E-04 Eh
 * total energy  :   -42.0810412 Eh     change       -0.3689569E-04 Eh
   *** GEOMETRY OPTIMIZATION CONVERGED AFTER 38 ITERATIONS ***

 final structure:
================
25
 xtb: 6.6.1 (8d0f1dd)
C            3.36120566925711        1.04338638725138        0.04387810440289
N            2.37283667062887       -0.00082017929874        0.01962423305391
C            2.59493569957770       -1.30704152775808       -0.02625308351554
N            1.42346210935611       -1.97431720196712       -0.02375046358060
C            0.41529481688956       -1.05795113896735        0.02364047466475
C            1.00897837664124        0.19838336335971        0.05486521570964
C            0.24717554380122        1.41154970101289        0.08164249592170
O            0.66740677377111        2.54708517211802        0.10331180756739
N           -1.16484086504685        1.14067494363903        0.07085788577252
C           -1.99592398802266        2.19263975585843        0.09751345560653
C           -1.77218785858428       -0.14959404775745        0.05318208533703
O           -2.96466840639842       -0.27518946274778        0.05434945361006
N           -0.91796863034569       -1.24933761585641        0.03018334195840
C           -1.49152461125214       -2.58383612197685        0.00903212104721
H            3.82310755178410        1.10520415869662        1.03076169244974
H            4.13522264734369        0.84763076413246       -0.69636128209103
H            2.87376758068150        1.99383538407079       -0.16922837305851
H            3.56341035029021       -1.76709659177857       -0.06413952612948
H           -1.55268738502263        3.17174969862793        0.10022399636357
H           -4.76824660595416        2.20702592293106       -0.70964969754139
H           -3.06825738591785        2.03703729528145       -0.00888425231848
H           -1.18551878791162       -3.14225388044069        0.89361617220005
H           -1.19038464334875       -3.11219809202731       -0.89556053846656
H           -2.57545310580593       -2.47885328699094        0.01381398979650
H            1.32128999768856       -2.97947485781239       -0.05549769086043

          :  Hamiltonian                  GFN2-xTB          :
         :: total energy             -42.081041218653 Eh    ::
         :: gradient norm              0.003048409154 Eh/a0 ::
         :: HOMO-LUMO gap              0.157062671823 eV    ::
         :: SCC energy               -42.601138988438 Eh    ::
         :: -> dispersion             -0.022878573307 Eh    ::
         :: repulsion energy           0.520013868216 Eh    ::

    * Orbital Energies and Occupations

         #    Occupation            Energy/Eh            Energy/eV
      -------------------------------------------------------------
         1        2.0000           -0.9164369             -24.9375
       ...           ...                  ...                  ...
        25        2.0000           -0.6703631             -18.2415
        26        2.0000           -0.6679969             -18.1771
        27        2.0000           -0.6619154             -18.0116
        28        2.0000           -0.6356909             -17.2980
        29        2.0000           -0.6304552             -17.1556
        30        2.0000           -0.6285714             -17.1043
        31        2.0000           -0.6209797             -16.8977
        32        2.0000           -0.6150409             -16.7361
        33        2.0000           -0.6094532             -16.5841
        34        2.0000           -0.5843685             -15.9015
        35        2.0000           -0.5650865             -15.3768
        36        2.0000           -0.5600405             -15.2395
        37        1.1692           -0.4713486             -12.8260 (HOMO)
        38        0.8087           -0.4655767             -12.6690 (LUMO)
        39        0.0218           -0.4329693             -11.7817
        40        0.0004           -0.4001827             -10.8895
        41        0.0000           -0.3718755             -10.1192
        42                         -0.2876935              -7.8285
        43                         -0.2086821              -5.6785
        44                         -0.1997471              -5.4354
        45                         -0.1523372              -4.1453
        46                         -0.1455955              -3.9619
        47                         -0.0824229              -2.2428
        48                         -0.0565685              -1.5393
       ...                                ...                  ...
        67                          0.5491590              14.9434
      -------------------------------------------------------------
                  HL-Gap            0.0057719 Eh            0.1571 eV

     #   Z          covCN         q      C6AA      α(0)
     1   6 C        3.692    -0.095    22.504     6.788
     2   7 N        2.834     0.083    19.795     6.608
     3   6 C        3.057     0.053    26.751     8.482
     4   7 N        2.795    -0.053    22.265     7.008
     5   6 C        3.047     0.105    25.638     8.304
     6   6 C        3.112    -0.024    28.451     8.738
     7   6 C        2.774     0.253    22.750     7.812
     8   8 O        0.857    -0.367    21.031     6.149
     9   7 N        2.740    -0.031    21.852     6.943
    10   6 C        2.814    -0.026    28.627     8.766
    11   6 C        2.738     0.309    21.744     7.635
    12   8 O        0.859    -0.350    20.700     6.100
    13   7 N        2.737    -0.050    22.199     6.998
    14   6 C        3.699    -0.074    22.085     6.721
    15   1 H        0.924     0.111     1.688     2.032
    16   1 H        0.925     0.105     1.741     2.063
    17   1 H        0.925     0.136     1.487     1.907
    18   1 H        0.926     0.127     1.561     1.954
    19   1 H        0.926     0.130     1.533     1.936
    20   1 H        0.000    -0.003     7.756     5.092
    21   1 H        0.925     0.133     1.511     1.922
    22   1 H        0.925     0.084     1.941     2.179
    23   1 H        0.925     0.083     1.948     2.183
    24   1 H        0.925     0.128     1.551     1.948
    25   1 H        0.860     0.231     0.960     1.534

Wiberg/Mayer (AO) data.
largest (>0.10) Wiberg bond orders for each atom

     #   Z sym  total        # sym  WBO       # sym  WBO       # sym  WBO
 ---------------------------------------------------------------------------
     1   6 C    3.916 --     2 N    0.986    16 H    0.965    17 H    0.961
                            15 H    0.954
     2   7 N    3.687 --     3 C    1.403     6 C    1.148     1 C    0.986
     3   6 C    3.885 --     2 N    1.403     4 N    1.287    18 H    0.952
     4   7 N    3.608 --     3 C    1.287     5 C    1.192    25 H    0.918
     5   6 C    3.907 --     6 C    1.324    13 N    1.195     4 N    1.192
     6   6 C    3.916 --     5 C    1.324     2 N    1.148     7 C    1.114
     7   6 C    3.878 --     8 O    1.672     6 C    1.114     9 N    0.991
     8   8 O    1.963 --     7 C    1.672     9 N    0.113
     9   7 N    3.630 --    10 C    1.343    11 C    1.015     7 C    0.991
                             8 O    0.113
    10   6 C    3.346 --     9 N    1.343    19 H    0.958    21 H    0.915
    11   6 C    3.915 --    12 O    1.713    13 N    1.086     9 N    1.015
    12   8 O    2.032 --    11 C    1.713    13 N    0.136
    13   7 N    3.575 --     5 C    1.195    11 C    1.086    14 C    0.970
                            12 O    0.136
    14   6 C    3.924 --    23 H    0.972    22 H    0.972    13 N    0.970
                            24 H    0.965
    15   1 H    0.984 --     1 C    0.954
    16   1 H    0.987 --     1 C    0.965
    17   1 H    0.981 --     1 C    0.961
    18   1 H    0.983 --     3 C    0.952
    19   1 H    0.980 --    10 C    0.958
    20   1 H    0.077
    21   1 H    0.981 --    10 C    0.915
    22   1 H    0.992 --    14 C    0.972
    23   1 H    0.992 --    14 C    0.972
    24   1 H    0.983 --    14 C    0.965
    25   1 H    0.946 --     4 N    0.918
 ---------------------------------------------------------------------------

molecular dipole:
                 x           y           z       tot (Debye)
 q only:        2.633      -2.147      -0.027
   full:        2.870      -2.622      -0.060       9.882

           -------------------------------------------------
          | TOTAL ENERGY              -42.081041218653 Eh   |
          | GRADIENT NORM               0.003048409154 Eh/α |
          | HOMO-LUMO GAP               0.157062671823 eV   |
           -------------------------------------------------

 * finished run on 2024/06/05 at 19:58:02.603
