   * xtb version 6.6.1 (8d0f1dd) compiled by 'conda@1efc2f54142f' on 2023-08-01
          program call               : xtb struc.xyz --opt loose --input .xc1 --gfn2

   ID    Z sym.   atoms
    1    7 N      1, 17
    2    6 C      2-6, 8, 9, 11-16, 18-23, 25, 26, 28-33
    3    8 O      7, 10, 24, 27
    4    1 H      34-72
constraining bond 2 65 to    3.7133300 Å, actual value:    3.4434098 Å

          :  Hamiltonian                  GFN2-xTB          :
 * total energy  :   -99.4171398 Eh     change       -0.4035485E-08 Eh
 * total energy  :   -99.4678294 Eh     change       -0.5068962E-01 Eh
 * total energy  :   -99.5286144 Eh     change       -0.6078500E-01 Eh
 * total energy  :   -99.6518850 Eh     change       -0.1232707E+00 Eh
 * total energy  :   -99.8022149 Eh     change       -0.1503299E+00 Eh
 * total energy  :  -100.1684901 Eh     change       -0.3662752E+00 Eh
 * total energy  :   -99.7599063 Eh     change        0.4085838E+00 Eh
 * total energy  :  -100.3559516 Eh     change       -0.5960453E+00 Eh
 * total energy  :  -100.4288464 Eh     change       -0.7289477E-01 Eh
 * total energy  :  -100.5029138 Eh     change       -0.7406742E-01 Eh
 * total energy  :  -100.8085305 Eh     change       -0.4875794E-04 Eh
 * total energy  :  -100.8086755 Eh     change       -0.1450235E-03 Eh
 * total energy  :  -100.8087488 Eh     change       -0.7322772E-04 Eh
 * total energy  :  -100.8088851 Eh     change       -0.1363078E-03 Eh
 * total energy  :  -100.8089803 Eh     change       -0.9520253E-04 Eh
 * total energy  :  -100.8090740 Eh     change       -0.9368472E-04 Eh
 * total energy  :  -100.8091681 Eh     change       -0.9409692E-04 Eh
 * total energy  :  -100.8092356 Eh     change       -0.6755046E-04 Eh
 * total energy  :  -100.8092670 Eh     change       -0.3137053E-04 Eh
   *** GEOMETRY OPTIMIZATION CONVERGED AFTER 68 ITERATIONS ***

 final structure:
================
72
 xtb: 6.6.1 (8d0f1dd)
N           -2.38043793373389        1.99255894562788        2.56767764329386
C           -2.31764096451874        2.37848090503670        1.35695923021128
C           -3.17788739616390        1.82075211562665        0.17234694731138
C           -3.74995053395402        0.43798041043380        0.34896735964241
C           -4.95651823469558        0.13341065249949       -0.28382997981114
C           -5.49593276359008       -1.14093363133577       -0.22456923768105
O           -6.64638082850649       -1.53113158425665       -0.80647212792127
C           -7.39958239530840       -0.59921411785507       -1.54498460616216
C           -4.80751343495837       -2.15755224055012        0.49513997387469
O           -5.40134794241150       -3.36515738424855        0.49926785892713
C           -4.77801791088569       -4.43503533006823        1.17031771996821
C           -3.60842798921049       -1.84357215627676        1.11587427264092
C           -3.08324099616646       -0.56139732523492        1.03965905763616
C           -2.42573578113332        1.93005475633772       -1.16554202753404
C           -1.40949600270112        0.81390169626158       -1.41257540294462
C           -0.17177839081146        0.93024323537648       -0.51870204957435
N            0.83457649261183       -0.05546041168476       -0.84694740888488
C            2.18789171961777        0.25435584782814       -0.43651258724327
C            3.19882587955161       -0.11113378664542       -1.54103915485993
C            4.60325807106160        0.05440397861154       -1.04139553584780
C            5.29209582164223        1.24758060081068       -1.21191483723313
C            6.57858131708474        1.40423847930429       -0.72161401160943
C            7.20863411952639        0.36876129592871       -0.04315010293872
O            8.44933514419260        0.40567652844685        0.47345456595554
C            9.22686928342742        1.57142871972081        0.32584066643452
C            6.51075869676225       -0.85934481262865        0.13996327185268
O            7.19359424832361       -1.81278833412040        0.80103219878309
C            6.59329053698855       -3.06741669231005        1.01925046484512
C            5.22333929428555       -0.98915655269868       -0.35869575171072
C            0.45542664188974       -1.41935077671779       -0.57140328108413
C           -4.08220943526478        2.94304298290247        0.48921642606417
C           -5.18166212516749        2.78664139659126        1.47523583583639
C           -3.95925423997160        4.27458936884101       -0.15767785073257
H           -5.46646515837573        0.91183499856074       -0.82853209386479
H           -7.74956191829869        0.22413274572371       -0.91425032800896
H           -8.25755439704611       -1.15225169580998       -1.92254084789515
H           -6.82872121881296       -0.19815027705744       -2.38829992784109
H           -4.66791433998618       -4.22984370091974        2.23948680992082
H           -5.43755780299903       -5.28977797719431        1.03393231916316
H           -3.79783604090204       -4.66136867145575        0.73878687747242
H           -3.06643879372849       -2.59590676931161        1.66512975087590
H           -2.14315790101420       -0.35891761289347        1.52801200629000
H           -3.17119521679928        1.89489380913381       -1.96336602943901
H           -1.91431219627678        2.89093390980427       -1.23207058877744
H           -1.89800531692898       -0.14831884070928       -1.26472245980219
H           -1.08175836631530        0.86794715818054       -2.45202710421632
H           -0.46844226539394        0.84985232551747        0.53968510140113
H            0.27069838753062        1.91821107187003       -0.66910471127864
H            2.45280943789200       -0.28720530488893        0.48303936895454
H            2.27465950897257        1.32216484996239       -0.22832671376864
H            3.02215786041547        0.53274713313141       -2.40248386184185
H            3.03535849946178       -1.14400463744832       -1.84958120096556
H            4.82706390273654        2.06531763521145       -1.74060339133306
H            7.08917398793143        2.34101932054368       -0.87504921321628
H            8.76007050002068        2.42913526839029        0.81940384177756
H            9.40038692685635        1.80590028936212       -0.72852763786167
H           10.17734912802059        1.35079336338522        0.80805525587138
H            7.33408564262160       -3.65650093789192        1.55646759254316
H            5.68950211997055       -2.97826264032435        1.63013129404760
H            6.35011437676206       -3.56497132334308        0.07538376478984
H            4.68853638577522       -1.91709182639126       -0.22932659774419
H           -0.44194005838721       -1.67978029558397       -1.12672439285212
H            0.26597806829492       -1.58404416639432        0.49956139731797
H            1.25378721728575       -2.08761814058258       -0.88595058022190
H           -1.78515752587874        2.91538802387492        1.14928226672802
H           -5.02982431036935        3.45105160168851        2.32907071096587
H           -5.27574953169869        1.76655403417595        1.83707777163558
H           -6.12606432153023        3.08334080634616        1.01643369433982
H           -4.44302447454010        5.03819932957678        0.44665861477450
H           -2.92702244686877        4.57152629246319       -0.33230037305851
H           -4.45382114120342        4.25759056505201       -1.13339754362287
H           -3.07715357797508        1.31016302912486        2.83967446185012

          :  Hamiltonian                  GFN2-xTB          :
         :: total energy            -100.809266982354 Eh    ::
         :: gradient norm              0.002264823471 Eh/a0 ::
         :: HOMO-LUMO gap              1.037282583875 eV    ::
         :: SCC energy              -100.779333175432 Eh    ::
         :: -> dispersion             -0.073406210629 Eh    ::
         :: repulsion energy           1.501076631848 Eh    ::

    * Orbital Energies and Occupations

         #    Occupation            Energy/Eh            Energy/eV
      -------------------------------------------------------------
         1        2.0000           -0.8111474             -22.0724
       ...           ...                  ...                  ...
        78        1.9983           -0.5335959             -14.5199
        79        1.9979           -0.5305314             -14.4365
        80        1.9976           -0.5279560             -14.3664
        81        1.9974           -0.5268820             -14.3372
        82        1.9967           -0.5231265             -14.2350
        83        1.9964           -0.5220322             -14.2052
        84        1.9946           -0.5153707             -14.0239
        85        1.9789           -0.4937131             -13.4346
        86        1.9636           -0.4849149             -13.1952
        87        1.9422           -0.4774245             -12.9914
        88        1.8514           -0.4617262             -12.5642
        89        1.8220           -0.4586078             -12.4794
        90        1.7306           -0.4512337             -12.2787 (HOMO)
        91        0.7329           -0.4131142             -11.2414 (LUMO)
        92        0.0031           -0.3191854              -8.6855
        93        0.0025           -0.3157377              -8.5917
        94        0.0016           -0.3088031              -8.4030
        95        0.0014           -0.3064500              -8.3389
        96        0.0011           -0.3033705              -8.2551
        97        0.0000           -0.1927913              -5.2461
        98        0.0000           -0.1841194              -5.0101
        99                         -0.1013867              -2.7589
       100                         -0.0867480              -2.3605
       101                         -0.0635807              -1.7301
       ...                                ...                  ...
       171                          1.1458912              31.1813
      -------------------------------------------------------------
                  HL-Gap            0.0381194 Eh            1.0373 eV

     #   Z          covCN         q      C6AA      α(0)
     1   7 N        1.772    -0.307    28.761     7.941
     2   6 C        3.209     0.066    25.930     8.290
     3   6 C        3.909     0.009    20.372     6.415
     4   6 C        2.970     0.001    28.001     8.680
     5   6 C        2.920    -0.078    29.937     8.973
     6   6 C        2.862     0.133    25.097     8.212
     7   8 O        1.706    -0.225    17.728     5.685
     8   6 C        3.645     0.027    20.460     6.501
     9   6 C        2.864     0.133    25.095     8.211
    10   8 O        1.706    -0.223    17.697     5.680
    11   6 C        3.646     0.026    20.472     6.503
    12   6 C        2.914    -0.071    29.779     8.948
    13   6 C        2.920    -0.049    29.206     8.862
    14   6 C        3.806    -0.067    21.771     6.642
    15   6 C        3.801    -0.069    21.824     6.651
    16   6 C        3.749    -0.002    20.671     6.484
    17   7 N        2.727    -0.113    23.473     7.196
    18   6 C        3.754     0.001    20.619     6.475
    19   6 C        3.808    -0.072    21.875     6.658
    20   6 C        2.968     0.011    27.774     8.644
    21   6 C        2.921    -0.043    29.078     8.843
    22   6 C        2.913    -0.065    29.618     8.924
    23   6 C        2.864     0.135    25.046     8.203
    24   8 O        1.706    -0.216    17.584     5.662
    25   6 C        3.645     0.024    20.513     6.510
    26   6 C        2.862     0.135    25.042     8.203
    27   8 O        1.706    -0.219    17.633     5.670
    28   6 C        3.645     0.026    20.477     6.504
    29   6 C        2.920    -0.076    29.894     8.966
    30   6 C        3.705    -0.047    21.569     6.639
    31   6 C        3.334     0.027    25.015     7.926
    32   6 C        3.755    -0.115    22.753     6.801
    33   6 C        3.755    -0.119    22.832     6.813
    34   1 H        0.926     0.051     2.312     2.378
    35   1 H        0.924     0.052     2.298     2.371
    36   1 H        0.925     0.083     1.951     2.184
    37   1 H        0.924     0.051     2.304     2.374
    38   1 H        0.924     0.055     2.257     2.349
    39   1 H        0.925     0.083     1.952     2.185
    40   1 H        0.924     0.052     2.291     2.367
    41   1 H        0.926     0.055     2.263     2.353
    42   1 H        0.926     0.050     2.320     2.382
    43   1 H        0.924     0.055     2.253     2.347
    44   1 H        0.924     0.050     2.324     2.384
    45   1 H        0.925     0.049     2.332     2.388
    46   1 H        0.924     0.058     2.220     2.330
    47   1 H        0.923     0.035     2.517     2.481
    48   1 H        0.924     0.048     2.347     2.396
    49   1 H        0.923     0.040     2.455     2.450
    50   1 H        0.924     0.048     2.346     2.395
    51   1 H        0.925     0.060     2.196     2.318
    52   1 H        0.924     0.057     2.237     2.339
    53   1 H        0.926     0.053     2.277     2.360
    54   1 H        0.926     0.061     2.192     2.315
    55   1 H        0.924     0.057     2.230     2.335
    56   1 H        0.924     0.059     2.216     2.328
    57   1 H        0.925     0.084     1.940     2.178
    58   1 H        0.925     0.083     1.949     2.183
    59   1 H        0.924     0.053     2.287     2.365
    60   1 H        0.924     0.056     2.252     2.347
    61   1 H        0.926     0.052     2.289     2.366
    62   1 H        0.925     0.057     2.240     2.341
    63   1 H        0.923     0.036     2.504     2.475
    64   1 H        0.925     0.059     2.216     2.328
    65   1 H        0.931     0.097     1.815     2.107
    66   1 H        0.924     0.078     1.999     2.211
    67   1 H        0.925     0.058     2.219     2.330
    68   1 H        0.924     0.077     2.006     2.215
    69   1 H        0.925     0.070     2.082     2.256
    70   1 H        0.925     0.064     2.148     2.292
    71   1 H        0.924     0.079     1.992     2.207
    72   1 H        0.860     0.159     1.342     1.814

Wiberg/Mayer (AO) data.
largest (>0.10) Wiberg bond orders for each atom

     #   Z sym  total        # sym  WBO       # sym  WBO       # sym  WBO
 ---------------------------------------------------------------------------
     1   7 N    2.848 --     2 C    1.781    72 H    0.939
     2   6 C    3.860 --     1 N    1.781    65 H    0.969     3 C    0.818
                            31 C    0.235
     3   6 C    3.929 --    31 C    1.038     4 C    0.984    14 C    0.964
                             2 C    0.818
     4   6 C    3.937 --    13 C    1.411     5 C    1.367     3 C    0.984
     5   6 C    3.956 --     6 C    1.399     4 C    1.367    34 H    0.962
     6   6 C    3.901 --     5 C    1.399     9 C    1.216     7 O    1.105
     7   8 O    2.256 --     6 C    1.105     8 C    0.978
     8   6 C    3.931 --     7 O    0.978    36 H    0.976    37 H    0.973
                            35 H    0.973
     9   6 C    3.898 --    12 C    1.388     6 C    1.216    10 O    1.109
    10   8 O    2.257 --     9 C    1.109    11 C    0.977
    11   6 C    3.929 --    39 H    0.977    10 O    0.977    40 H    0.973
                            38 H    0.973
    12   6 C    3.959 --    13 C    1.407     9 C    1.388    41 H    0.963
    13   6 C    3.950 --     4 C    1.411    12 C    1.407    42 H    0.961
    14   6 C    3.978 --    15 C    1.007    44 H    0.968    43 H    0.967
                             3 C    0.964
    15   6 C    3.984 --    14 C    1.007    16 C    0.998    46 H    0.972
                            45 H    0.967
    16   6 C    3.970 --    17 N    1.005    15 C    0.998    48 H    0.969
                            47 H    0.946
    17   7 N    3.096 --    30 C    1.018    18 C    1.006    16 C    1.005
    18   6 C    3.964 --    17 N    1.006    50 H    0.971    19 C    0.969
                            49 H    0.959
    19   6 C    3.975 --    20 C    1.015    51 H    0.971    18 C    0.969
                            52 H    0.965
    20   6 C    3.924 --    21 C    1.391    29 C    1.383    19 C    1.015
    21   6 C    3.926 --    22 C    1.424    20 C    1.391    53 H    0.967
    22   6 C    3.948 --    21 C    1.424    23 C    1.374    54 H    0.962
    23   6 C    3.871 --    22 C    1.374    26 C    1.209    24 O    1.116
    24   8 O    2.246 --    23 C    1.116    25 C    0.975
    25   6 C    3.925 --    57 H    0.976    24 O    0.975    56 H    0.971
                            55 H    0.971
    26   6 C    3.878 --    29 C    1.389    23 C    1.209    27 O    1.110
    27   8 O    2.247 --    26 C    1.110    28 C    0.977
    28   6 C    3.929 --    27 O    0.977    58 H    0.976    59 H    0.972
                            60 H    0.972
    29   6 C    3.950 --    26 C    1.389    20 C    1.383    61 H    0.961
    30   6 C    3.970 --    17 N    1.018    64 H    0.977    62 H    0.974
                            63 H    0.963
    31   6 C    3.526 --    32 C    1.066    33 C    1.064     3 C    1.038
                             2 C    0.235
    32   6 C    3.983 --    31 C    1.066    67 H    0.977    66 H    0.948
                            68 H    0.947
    33   6 C    3.981 --    31 C    1.064    69 H    0.976    70 H    0.962
                            71 H    0.937
    34   1 H    0.996 --     5 C    0.962
    35   1 H    0.993 --     8 C    0.973
    36   1 H    0.992 --     8 C    0.976
    37   1 H    0.993 --     8 C    0.973
    38   1 H    0.992 --    11 C    0.973
    39   1 H    0.992 --    11 C    0.977
    40   1 H    0.992 --    11 C    0.973
    41   1 H    0.995 --    12 C    0.963
    42   1 H    0.996 --    13 C    0.961
    43   1 H    0.991 --    14 C    0.967
    44   1 H    0.995 --    14 C    0.968
    45   1 H    0.997 --    15 C    0.967
    46   1 H    0.993 --    15 C    0.972
    47   1 H    0.976 --    16 C    0.946
    48   1 H    0.996 --    16 C    0.969
    49   1 H    0.981 --    18 C    0.959
    50   1 H    0.996 --    18 C    0.971
    51   1 H    0.994 --    19 C    0.971
    52   1 H    0.994 --    19 C    0.965
    53   1 H    0.996 --    21 C    0.967
    54   1 H    0.994 --    22 C    0.962
    55   1 H    0.989 --    25 C    0.971
    56   1 H    0.989 --    25 C    0.971
    57   1 H    0.992 --    25 C    0.976
    58   1 H    0.992 --    28 C    0.976
    59   1 H    0.991 --    28 C    0.972
    60   1 H    0.990 --    28 C    0.972
    61   1 H    0.996 --    29 C    0.961
    62   1 H    0.993 --    30 C    0.974
    63   1 H    0.977 --    30 C    0.963
    64   1 H    0.995 --    30 C    0.977
    65   1 H    0.988 --     2 C    0.969
    66   1 H    0.971 --    32 C    0.948
    67   1 H    0.996 --    32 C    0.977
    68   1 H    0.973 --    32 C    0.947
    69   1 H    0.991 --    33 C    0.976
    70   1 H    0.985 --    33 C    0.962
    71   1 H    0.963 --    33 C    0.937
    72   1 H    0.969 --     1 N    0.939
 ---------------------------------------------------------------------------

molecular dipole:
                 x           y           z       tot (Debye)
 q only:       -0.442       0.923      -0.475
   full:       -0.706       1.006      -0.490       3.362

           -------------------------------------------------
          | TOTAL ENERGY             -100.809266982354 Eh   |
          | GRADIENT NORM               0.002264823471 Eh/α |
          | HOMO-LUMO GAP               1.037282583875 eV   |
           -------------------------------------------------

 * finished run on 2024/04/06 at 11:15:42.300
