   * xtb version 6.6.1 (8d0f1dd) compiled by 'conda@1efc2f54142f' on 2023-08-01
          program call               : xtb xtbopt.xyz --opt crude --input .xc2 --gfn2

   ID    Z sym.   atoms
    1    7 N      1, 17
    2    6 C      2-6, 8, 9, 11-16, 18-23, 25, 26, 28-33
    3    8 O      7, 10, 24, 27
    4    1 H      34-72
########################################################################
[WARNING] Please study the warnings concerning your input carefully
-1- readin_getIntValue: could not parse ''
########################################################################

          :  Hamiltonian                  GFN2-xTB          :
 * total energy  :   -99.2772944 Eh     change       -0.6224354E-11 Eh
 * total energy  :   -99.3848425 Eh     change       -0.1075481E+00 Eh
 * total energy  :   -99.3862614 Eh     change       -0.1418916E-02 Eh
 * total energy  :   -99.3869105 Eh     change       -0.6490488E-03 Eh
 * total energy  :   -99.3870165 Eh     change       -0.1060218E-03 Eh
   *** GEOMETRY OPTIMIZATION CONVERGED AFTER 5 ITERATIONS ***

 final structure:
================
72
 xtb: 6.6.1 (8d0f1dd)
N           -2.36825935181038        1.99590046656910        2.58237644988050
C           -2.34015519467252        2.34036685916315        1.36682913207175
C           -3.17180122372936        1.81695280988412        0.18077752823537
C           -3.75106297427113        0.43192267233110        0.34670705683644
C           -4.95649374285636        0.12952000196525       -0.28916071812318
C           -5.49864372752720       -1.14416200304899       -0.23020770523181
O           -6.65139842900147       -1.53127326506471       -0.80971638653152
C           -7.40255266655117       -0.59616692851036       -1.54688769607468
C           -4.81263190199116       -2.16284766013084        0.48878283415304
O           -5.40891382440277       -3.36926843022991        0.49262040614462
C           -4.78995868826968       -4.43851270326271        1.17004698734585
C           -3.61298037666357       -1.85183036664898        1.10986891434068
C           -3.08687879009053       -0.56997517877753        1.03664652705664
C           -2.42639544119552        1.92605595737781       -1.16054620745689
C           -1.40776985138846        0.81285942905382       -1.40892503637205
C           -0.17137896353180        0.93007834700414       -0.51356421263305
N            0.83549791231804       -0.05492018768573       -0.84032835195082
C            2.18908914480985        0.25522874519492       -0.43321022608436
C            3.19762636862805       -0.11328173452854       -1.53941740630708
C            4.60236834605051        0.05220609672781       -1.04170401238774
C            5.28949051332353        1.24634042191648       -1.21201221083577
C            6.57606724019933        1.40425088196006       -0.72256895390483
C            7.20719338516536        0.36910144172024       -0.04459192720037
O            8.44848857405789        0.40712488120655        0.47039656778784
C            9.22340129805899        1.57458113706867        0.32268258694327
C            6.51033550527475       -0.85948167535173        0.13975792950992
O            7.19363334624695       -1.81091743160274        0.80322442105917
C            6.59606674329081       -3.06728187220404        1.01929981974469
C            5.22331835024969       -0.99106137308189       -0.35930305381514
C            0.45754984899486       -1.41972031379358       -0.56913906003093
C           -4.09189445576903        2.93658910419265        0.49070515464521
C           -5.19456918113640        2.77656926123395        1.47206390776852
C           -3.96361636921687        4.26794939370966       -0.15214813603198
H           -5.46418625672243        0.90924614776329       -0.83428693837225
H           -7.74388616748960        0.23035698005982       -0.91583624106754
H           -8.26583125413414       -1.14405739038887       -1.91943964303770
H           -6.83251205682358       -0.20088171311219       -2.39336451833352
H           -4.68542941096227       -4.22992199554879        2.23907149484432
H           -5.44970156714729       -5.29281874555473        1.03260204735990
H           -3.80796320046850       -4.66664337563955        0.74399372934030
H           -3.07177978937172       -2.60568539018479        1.65779312225119
H           -2.14694686767710       -0.36822015991016        1.52561252173490
H           -3.17486727620777        1.88752179696331       -1.95531291588982
H           -1.91833311536923        2.88816897964002       -1.22875796612715
H           -1.89389688014252       -0.15106281570621       -1.26315838694810
H           -1.07916137828397        0.86918073895351       -2.44802384000567
H           -0.47087865183443        0.85257339563613        0.54424840848300
H            0.27069226743689        1.91810350615839       -0.66372888636882
H            2.45608933861856       -0.28437621345305        0.48677333784965
H            2.27670143994535        1.32333146984400       -0.22768373371231
H            3.01982514050223        0.52921675852001       -2.40159198855552
H            3.03250759968021       -1.14653561191226       -1.84561737560466
H            4.82260803399328        2.06354341364065       -1.73988285463611
H            7.08549746443332        2.34152866642003       -0.87634479969528
H            8.75421174279293        2.43135971696117        0.81562427335587
H            9.39666168100839        1.80897797255563       -0.73178119045741
H           10.17423355690692        1.35652192833242        0.80532459881364
H            7.33771102079260       -3.65533796036608        1.55648940550846
H            5.69148908984695       -2.98110745605972        1.62948409914593
H            6.35490197523825       -3.56412338850798        0.07456771450845
H            4.68897599984274       -1.91927529487278       -0.23009902890461
H           -0.43522005529696       -1.68144744904714       -1.13182704715219
H            0.25991925448757       -1.58611239292074        0.49994719425968
H            1.25939681673963       -2.08557630403863       -0.87881961994582
H           -1.62006285226835        3.09932658838298        1.08818764063478
H           -5.04902415656643        3.44658123279199        2.32326284720288
H           -5.28419569659524        1.75752861454128        1.83849910166289
H           -6.14020769136965        3.06648549718301        1.01011849536807
H           -4.46606632010546        5.02931787823953        0.44046836909538
H           -2.92849478255121        4.56914588380565       -0.29925679713595
H           -4.43160055975411        4.25084786044325       -1.14123000287598
H           -3.05743226068572        1.30556136846410        2.86588529346909

          :  Hamiltonian                  GFN2-xTB          :
         :: total energy             -99.387016509524 Eh    ::
         :: gradient norm              0.003949160602 Eh/a0 ::
         :: HOMO-LUMO gap              1.029338788390 eV    ::
         :: SCC energy              -100.752449452406 Eh    ::
         :: -> dispersion             -0.073402135742 Eh    ::
         :: repulsion energy           1.364471763449 Eh    ::

    * Orbital Energies and Occupations

         #    Occupation            Energy/Eh            Energy/eV
      -------------------------------------------------------------
         1        2.0000           -0.8112960             -22.0765
       ...           ...                  ...                  ...
        78        1.9982           -0.5332836             -14.5114
        79        1.9979           -0.5306099             -14.4386
        80        1.9975           -0.5277672             -14.3613
        81        1.9974           -0.5269453             -14.3389
        82        1.9966           -0.5229688             -14.2307
        83        1.9964           -0.5220871             -14.2067
        84        1.9946           -0.5154786             -14.0269
        85        1.9790           -0.4938979             -13.4396
        86        1.9635           -0.4850284             -13.1983
        87        1.9422           -0.4775793             -12.9956
        88        1.8515           -0.4618747             -12.5683
        89        1.8196           -0.4585257             -12.4771
        90        1.7287           -0.4512514             -12.2792 (HOMO)
        91        0.7378           -0.4134239             -11.2498 (LUMO)
        92        0.0031           -0.3192736              -8.6879
        93        0.0025           -0.3159456              -8.5973
        94        0.0016           -0.3089001              -8.4056
        95        0.0014           -0.3065414              -8.3414
        96        0.0009           -0.2991730              -8.1409
        97        0.0000           -0.1929463              -5.2503
        98        0.0000           -0.1842198              -5.0129
        99                         -0.1001816              -2.7261
       100                         -0.0797521              -2.1702
       101                         -0.0638640              -1.7378
       ...                                ...                  ...
       171                          0.5778229              15.7234
      -------------------------------------------------------------
                  HL-Gap            0.0378275 Eh            1.0293 eV

     #   Z          covCN         q      C6AA      α(0)
     1   7 N        1.771    -0.299    28.566     7.914
     2   6 C        3.205     0.084    25.568     8.236
     3   6 C        3.911     0.012    20.311     6.406
     4   6 C        2.970     0.001    27.991     8.678
     5   6 C        2.920    -0.078    29.937     8.973
     6   6 C        2.862     0.133    25.098     8.212
     7   8 O        1.706    -0.225    17.730     5.685
     8   6 C        3.645     0.027    20.459     6.501
     9   6 C        2.864     0.133    25.095     8.211
    10   8 O        1.706    -0.223    17.700     5.680
    11   6 C        3.646     0.026    20.473     6.503
    12   6 C        2.914    -0.071    29.781     8.949
    13   6 C        2.920    -0.048    29.203     8.862
    14   6 C        3.806    -0.066    21.757     6.640
    15   6 C        3.801    -0.069    21.818     6.650
    16   6 C        3.749    -0.002    20.674     6.485
    17   7 N        2.727    -0.112    23.446     7.192
    18   6 C        3.754     0.001    20.622     6.475
    19   6 C        3.808    -0.072    21.876     6.658
    20   6 C        2.968     0.011    27.772     8.644
    21   6 C        2.922    -0.043    29.078     8.843
    22   6 C        2.913    -0.065    29.618     8.924
    23   6 C        2.864     0.135    25.045     8.203
    24   8 O        1.706    -0.216    17.582     5.661
    25   6 C        3.645     0.024    20.513     6.509
    26   6 C        2.862     0.135    25.041     8.202
    27   8 O        1.706    -0.219    17.632     5.669
    28   6 C        3.645     0.026    20.478     6.504
    29   6 C        2.920    -0.076    29.894     8.966
    30   6 C        3.705    -0.047    21.573     6.640
    31   6 C        3.331     0.028    25.057     7.942
    32   6 C        3.755    -0.114    22.736     6.799
    33   6 C        3.755    -0.119    22.829     6.813
    34   1 H        0.926     0.050     2.314     2.379
    35   1 H        0.924     0.052     2.300     2.372
    36   1 H        0.925     0.083     1.951     2.184
    37   1 H        0.924     0.051     2.302     2.373
    38   1 H        0.924     0.055     2.256     2.349
    39   1 H        0.925     0.083     1.951     2.185
    40   1 H        0.924     0.052     2.290     2.366
    41   1 H        0.926     0.054     2.265     2.353
    42   1 H        0.926     0.049     2.329     2.387
    43   1 H        0.924     0.055     2.258     2.350
    44   1 H        0.925     0.050     2.315     2.379
    45   1 H        0.925     0.049     2.336     2.390
    46   1 H        0.924     0.058     2.218     2.329
    47   1 H        0.923     0.036     2.505     2.475
    48   1 H        0.924     0.048     2.341     2.393
    49   1 H        0.923     0.040     2.451     2.448
    50   1 H        0.924     0.048     2.340     2.392
    51   1 H        0.925     0.060     2.195     2.317
    52   1 H        0.924     0.057     2.238     2.339
    53   1 H        0.926     0.054     2.276     2.359
    54   1 H        0.926     0.061     2.190     2.314
    55   1 H        0.924     0.057     2.229     2.335
    56   1 H        0.924     0.059     2.215     2.327
    57   1 H        0.925     0.084     1.939     2.178
    58   1 H        0.925     0.083     1.948     2.183
    59   1 H        0.924     0.053     2.286     2.364
    60   1 H        0.924     0.056     2.251     2.346
    61   1 H        0.926     0.053     2.289     2.366
    62   1 H        0.925     0.057     2.240     2.340
    63   1 H        0.923     0.036     2.499     2.472
    64   1 H        0.925     0.059     2.213     2.326
    65   1 H        0.925     0.055     2.262     2.352
    66   1 H        0.924     0.079     1.994     2.208
    67   1 H        0.925     0.058     2.222     2.331
    68   1 H        0.924     0.078     2.003     2.213
    69   1 H        0.925     0.071     2.079     2.255
    70   1 H        0.925     0.066     2.130     2.282
    71   1 H        0.924     0.080     1.984     2.203
    72   1 H        0.860     0.161     1.329     1.806

Wiberg/Mayer (AO) data.
largest (>0.10) Wiberg bond orders for each atom

     #   Z sym  total        # sym  WBO       # sym  WBO       # sym  WBO
 ---------------------------------------------------------------------------
     1   7 N    2.854 --     2 C    1.792    72 H    0.934
     2   6 C    3.865 --     1 N    1.792    65 H    0.949     3 C    0.849
                            31 C    0.222
     3   6 C    3.936 --    31 C    1.021     4 C    0.979    14 C    0.963
                             2 C    0.849
     4   6 C    3.937 --    13 C    1.411     5 C    1.368     3 C    0.979
     5   6 C    3.956 --     6 C    1.398     4 C    1.368    34 H    0.962
     6   6 C    3.900 --     5 C    1.398     9 C    1.217     7 O    1.105
     7   8 O    2.256 --     6 C    1.105     8 C    0.978
     8   6 C    3.931 --     7 O    0.978    36 H    0.977    37 H    0.973
                            35 H    0.973
     9   6 C    3.898 --    12 C    1.388     6 C    1.217    10 O    1.109
    10   8 O    2.257 --     9 C    1.109    11 C    0.976
    11   6 C    3.929 --    39 H    0.977    10 O    0.976    40 H    0.973
                            38 H    0.973
    12   6 C    3.959 --    13 C    1.408     9 C    1.388    41 H    0.963
    13   6 C    3.950 --     4 C    1.411    12 C    1.408    42 H    0.961
    14   6 C    3.978 --    15 C    1.007    43 H    0.968    44 H    0.967
                             3 C    0.963
    15   6 C    3.984 --    14 C    1.007    16 C    0.998    46 H    0.972
                            45 H    0.967
    16   6 C    3.970 --    17 N    1.006    15 C    0.998    48 H    0.969
                            47 H    0.946
    17   7 N    3.096 --    30 C    1.018    18 C    1.006    16 C    1.006
    18   6 C    3.963 --    17 N    1.006    50 H    0.971    19 C    0.969
                            49 H    0.959
    19   6 C    3.975 --    20 C    1.016    51 H    0.971    18 C    0.969
                            52 H    0.965
    20   6 C    3.924 --    21 C    1.391    29 C    1.383    19 C    1.016
    21   6 C    3.926 --    22 C    1.425    20 C    1.391    53 H    0.967
    22   6 C    3.948 --    21 C    1.425    23 C    1.373    54 H    0.962
    23   6 C    3.870 --    22 C    1.373    26 C    1.209    24 O    1.116
    24   8 O    2.246 --    23 C    1.116    25 C    0.975
    25   6 C    3.925 --    57 H    0.976    24 O    0.975    56 H    0.971
                            55 H    0.971
    26   6 C    3.878 --    29 C    1.389    23 C    1.209    27 O    1.110
    27   8 O    2.247 --    26 C    1.110    28 C    0.977
    28   6 C    3.928 --    27 O    0.977    58 H    0.976    59 H    0.972
                            60 H    0.972
    29   6 C    3.950 --    26 C    1.389    20 C    1.383    61 H    0.961
    30   6 C    3.970 --    17 N    1.018    64 H    0.977    62 H    0.974
                            63 H    0.963
    31   6 C    3.496 --    32 C    1.068    33 C    1.067     3 C    1.021
                             2 C    0.222
    32   6 C    3.982 --    31 C    1.068    67 H    0.977    66 H    0.947
                            68 H    0.946
    33   6 C    3.981 --    31 C    1.067    69 H    0.976    70 H    0.959
                            71 H    0.936
    34   1 H    0.996 --     5 C    0.962
    35   1 H    0.993 --     8 C    0.973
    36   1 H    0.992 --     8 C    0.977
    37   1 H    0.993 --     8 C    0.973
    38   1 H    0.992 --    11 C    0.973
    39   1 H    0.992 --    11 C    0.977
    40   1 H    0.992 --    11 C    0.973
    41   1 H    0.995 --    12 C    0.963
    42   1 H    0.996 --    13 C    0.961
    43   1 H    0.992 --    14 C    0.968
    44   1 H    0.995 --    14 C    0.967
    45   1 H    0.997 --    15 C    0.967
    46   1 H    0.993 --    15 C    0.972
    47   1 H    0.976 --    16 C    0.946
    48   1 H    0.996 --    16 C    0.969
    49   1 H    0.981 --    18 C    0.959
    50   1 H    0.996 --    18 C    0.971
    51   1 H    0.993 --    19 C    0.971
    52   1 H    0.994 --    19 C    0.965
    53   1 H    0.996 --    21 C    0.967
    54   1 H    0.994 --    22 C    0.962
    55   1 H    0.989 --    25 C    0.971
    56   1 H    0.989 --    25 C    0.971
    57   1 H    0.992 --    25 C    0.976
    58   1 H    0.992 --    28 C    0.976
    59   1 H    0.991 --    28 C    0.972
    60   1 H    0.990 --    28 C    0.972
    61   1 H    0.996 --    29 C    0.961
    62   1 H    0.993 --    30 C    0.974
    63   1 H    0.977 --    30 C    0.963
    64   1 H    0.995 --    30 C    0.977
    65   1 H    0.991 --     2 C    0.949
    66   1 H    0.969 --    32 C    0.947
    67   1 H    0.996 --    32 C    0.977
    68   1 H    0.971 --    32 C    0.946
    69   1 H    0.991 --    33 C    0.976
    70   1 H    0.983 --    33 C    0.959
    71   1 H    0.962 --    33 C    0.936
    72   1 H    0.969 --     1 N    0.934
 ---------------------------------------------------------------------------

molecular dipole:
                 x           y           z       tot (Debye)
 q only:       -0.467       0.876      -0.479
   full:       -0.729       0.961      -0.498       3.317

           -------------------------------------------------
          | TOTAL ENERGY              -99.387016509524 Eh   |
          | GRADIENT NORM               0.003949160602 Eh/α |
          | HOMO-LUMO GAP               1.029338788390 eV   |
           -------------------------------------------------

 * finished run on 2024/04/06 at 11:15:43.390
