   * xtb version 6.6.1 (8d0f1dd) compiled by 'conda@1efc2f54142f' on 2023-08-01
          program call               : xtb struc.xyz --opt loose --input .xc1 --gfn2

   ID    Z sym.   atoms
    1    6 C      1, 3, 5-7, 10, 11, 14
    2    7 N      2, 4, 9, 13
    3    8 O      8, 12
    4    1 H      15-25
constraining bond 5 7 to    5.0000000 Å, actual value:    2.4816200 Å

          :  Hamiltonian                  GFN2-xTB          :
 * total energy  :   -30.9235895 Eh     change       -0.6650680E-10 Eh
 * total energy  :   -35.0067690 Eh     change       -0.4083179E+01 Eh
 * total energy  :   -38.0466907 Eh     change       -0.3039922E+01 Eh
 * total energy  :   -40.1577964 Eh     change       -0.2111106E+01 Eh
 * total energy  :   -41.3252018 Eh     change       -0.1167405E+01 Eh
 * total energy  :   -41.5912444 Eh     change       -0.2660426E+00 Eh
 * total energy  :   -41.6097871 Eh     change       -0.1854267E-01 Eh
 * total energy  :   -41.6353882 Eh     change       -0.2560111E-01 Eh
 * total energy  :   -41.6638309 Eh     change       -0.2844271E-01 Eh
 * total energy  :   -41.6953982 Eh     change       -0.3156730E-01 Eh
 * total energy  :   -42.0345730 Eh     change       -0.8174303E-04 Eh
 * total energy  :   -42.0345800 Eh     change       -0.6986327E-05 Eh
 * total energy  :   -42.0346941 Eh     change       -0.1140982E-03 Eh
 * total energy  :   -42.0347498 Eh     change       -0.5569657E-04 Eh
 * total energy  :   -42.0348042 Eh     change       -0.5446839E-04 Eh
 * total energy  :   -42.0348975 Eh     change       -0.9325586E-04 Eh
 * total energy  :   -42.0349566 Eh     change       -0.5915578E-04 Eh
 * total energy  :   -42.0349964 Eh     change       -0.3971462E-04 Eh
 * total energy  :   -42.0350353 Eh     change       -0.3894891E-04 Eh
   *** GEOMETRY OPTIMIZATION CONVERGED AFTER 82 ITERATIONS ***

 final structure:
================
25
 xtb: 6.6.1 (8d0f1dd)
C            2.54627046722121        1.00835101840493        0.52925073764602
N            1.68870596996752       -0.04706750574551        0.00897889990119
C            2.31739014068042       -1.18165065102321       -0.30088616088888
N            1.87288133086714       -2.43792814678756       -0.60551193864775
C            0.70265955261048       -3.04999102165835       -0.29034679945410
C            0.35510334390258        0.26999582191594       -0.12672139502778
C           -0.15336113132604        1.85224578032557       -0.19019687014510
O            0.65215934434154        2.72113816581567       -0.45379403579456
N           -1.43075899635420        1.89377509859419        0.03096463763296
C           -2.28571628672977        2.98644073560362       -0.10399168382550
C           -0.61361988393141       -0.75125883761592       -0.36797798661279
O           -1.74202281349378       -0.57756905398510       -0.73261671043303
N           -0.32209141229658       -2.29358395845013       -0.02949177120733
C           -1.53552556221244       -2.90486044738317        0.46466307449552
H            2.27758945439910        1.20827192530450        1.56708919232311
H            3.59426894602610        0.73111358632635        0.48006577865225
H            2.38547784038155        1.93124443361167       -0.03428463875826
H            3.39709858205077       -1.11676423483433       -0.25796356938729
H           -1.76263113691239        3.89966686968340       -0.42196683258243
H           -3.05486668163598        2.73878064382110       -0.84546932644574
H           -2.79701762709919        3.16465625961269        0.84804228219215
H           -1.36228092347205       -3.96502452027228        0.62446170896645
H           -2.34549144448099       -2.76183418108892       -0.25304129022917
H           -1.82978929367399       -2.42826129722737        1.40123662089662
H            2.60599973526984       -3.07164794134858       -0.90932030536676

          :  Hamiltonian                  GFN2-xTB          :
         :: total energy             -42.035035318766 Eh    ::
         :: gradient norm              0.002710489374 Eh/a0 ::
         :: HOMO-LUMO gap              0.453246054354 eV    ::
         :: SCC energy               -42.530106519454 Eh    ::
         :: -> dispersion             -0.021300961607 Eh    ::
         :: repulsion energy           0.494026741655 Eh    ::

    * Orbital Energies and Occupations

         #    Occupation            Energy/Eh            Energy/eV
      -------------------------------------------------------------
         1        2.0000           -0.8764285             -23.8488
       ...           ...                  ...                  ...
        25        1.9999           -0.6607533             -17.9800
        26        1.9998           -0.6532424             -17.7756
        27        1.9995           -0.6412531             -17.4494
        28        1.9991           -0.6316520             -17.1881
        29        1.9986           -0.6253233             -17.0159
        30        1.9978           -0.6179696             -16.8158
        31        1.9977           -0.6168793             -16.7861
        32        1.9929           -0.5992958             -16.3077
        33        1.9845           -0.5868627             -15.9693
        34        1.9217           -0.5606817             -15.2569
        35        1.7939           -0.5442655             -14.8102
        36        1.6551           -0.5348395             -14.5537
        37        1.5204           -0.5282740             -14.3751 (HOMO)
        38        1.0509           -0.5116176             -13.9218 (LUMO)
        39        0.0875           -0.4611659             -12.5490
        40        0.0007           -0.3844768             -10.4621
        41        0.0003           -0.3694813             -10.0541
        42        0.0000           -0.3141441              -8.5483
        43        0.0000           -0.2757206              -7.5027
        44                         -0.2042324              -5.5574
        45                         -0.1809052              -4.9227
        46                         -0.1311129              -3.5678
        47                         -0.0832106              -2.2643
        48                         -0.0554153              -1.5079
       ...                                ...                  ...
        67                          0.5669335              15.4270
      -------------------------------------------------------------
                  HL-Gap            0.0166565 Eh            0.4532 eV

     #   Z          covCN         q      C6AA      α(0)
     1   6 C        3.727    -0.098    22.477     6.769
     2   7 N        2.731     0.088    19.717     6.595
     3   6 C        2.790     0.060    26.636     8.454
     4   7 N        2.696    -0.049    22.193     6.997
     5   6 C        1.852    -0.007    31.328     9.041
     6   6 C        2.865    -0.033    28.820     8.800
     7   6 C        2.724     0.293    22.024     7.683
     8   8 O        0.857    -0.352    20.745     6.107
     9   7 N        1.825    -0.147    24.966     7.404
    10   6 C        3.693    -0.035    21.383     6.616
    11   6 C        2.726     0.250    22.801     7.817
    12   8 O        0.858    -0.274    19.324     5.894
    13   7 N        2.716    -0.009    21.429     6.875
    14   6 C        3.712    -0.068    21.949     6.695
    15   1 H        0.924     0.109     1.704     2.041
    16   1 H        0.925     0.094     1.842     2.122
    17   1 H        0.924     0.153     1.373     1.832
    18   1 H        0.925     0.107     1.724     2.053
    19   1 H        0.923     0.115     1.654     2.011
    20   1 H        0.924     0.128     1.547     1.945
    21   1 H        0.924     0.120     1.614     1.987
    22   1 H        0.925     0.104     1.750     2.069
    23   1 H        0.924     0.120     1.615     1.987
    24   1 H        0.924     0.096     1.825     2.113
    25   1 H        0.860     0.236     0.942     1.520

Wiberg/Mayer (AO) data.
largest (>0.10) Wiberg bond orders for each atom

     #   Z sym  total        # sym  WBO       # sym  WBO       # sym  WBO
 ---------------------------------------------------------------------------
     1   6 C    3.898 --     2 N    0.976    16 H    0.972    15 H    0.955
                            17 H    0.923
     2   7 N    3.678 --     3 C    1.372     6 C    1.188     1 C    0.976
     3   6 C    3.781 --     2 N    1.372     4 N    1.227    18 H    0.943
     4   7 N    3.508 --     3 C    1.227     5 C    1.219    25 H    0.914
     5   6 C    3.024 --    13 N    1.591     4 N    1.219
     6   6 C    3.538 --    11 C    1.211     2 N    1.188     7 C    0.824
     7   6 C    3.908 --     8 O    1.605     9 N    1.399     6 C    0.824
     8   8 O    1.879 --     7 C    1.605     9 N    0.123
     9   7 N    2.667 --     7 C    1.399    10 C    1.098     8 O    0.123
    10   6 C    3.850 --     9 N    1.098    21 H    0.913    19 H    0.903
                            20 H    0.901
    11   6 C    3.864 --    12 O    1.794     6 C    1.211    13 N    0.743
    12   8 O    2.071 --    11 C    1.794
    13   7 N    3.514 --     5 C    1.591    14 C    0.996    11 C    0.743
    14   6 C    3.914 --    13 N    0.996    22 H    0.969    24 H    0.955
                            23 H    0.942
    15   1 H    0.983 --     1 C    0.955
    16   1 H    0.989 --     1 C    0.972
    17   1 H    0.971 --     1 C    0.923
    18   1 H    0.985 --     3 C    0.943
    19   1 H    0.905 --    10 C    0.903
    20   1 H    0.921 --    10 C    0.901
    21   1 H    0.932 --    10 C    0.913
    22   1 H    0.985 --    14 C    0.969
    23   1 H    0.972 --    14 C    0.942
    24   1 H    0.980 --    14 C    0.955
    25   1 H    0.942 --     4 N    0.914
 ---------------------------------------------------------------------------

molecular dipole:
                 x           y           z       tot (Debye)
 q only:        1.470      -1.498       0.434
   full:        1.788      -1.418       0.373       5.877

           -------------------------------------------------
          | TOTAL ENERGY              -42.035035318766 Eh   |
          | GRADIENT NORM               0.002710489374 Eh/α |
          | HOMO-LUMO GAP               0.453246054354 eV   |
           -------------------------------------------------

 * finished run on 2024/06/05 at 19:57:58.880
