   * xtb version 6.6.1 (8d0f1dd) compiled by 'conda@1efc2f54142f' on 2023-08-01
          program call               : xtb xtbopt.xyz --opt crude --input .xc2 --gfn2

   ID    Z sym.   atoms
    1    7 N      1, 17
    2    6 C      2-6, 8, 9, 11-16, 18-23, 25, 26, 28-33
    3    8 O      7, 10, 24, 27
    4    1 H      34-72

          :  Hamiltonian                  GFN2-xTB          :
 * total energy  :   -99.3063201 Eh     change       -0.2387424E-11 Eh
   *** GEOMETRY OPTIMIZATION CONVERGED AFTER 1 ITERATIONS ***

 final structure:
================
72
 xtb: 6.6.1 (8d0f1dd)
N           -2.32140975850817        3.27168985685882        2.20366097537028
C           -2.01617911365851        2.48486028206236        1.28276706437522
C           -2.93509136847590        2.10111385735384        0.15376780194167
C           -3.34419908640289        0.64545738146817        0.30371063045916
C           -4.07597910695058        0.02814601081606       -0.71258105052509
C           -4.48660083556180       -1.29102850094738       -0.61052530519595
O           -5.20834014914717       -1.95579917387436       -1.53454456408300
C           -5.71167528412251       -1.25953182868992       -2.65096328763347
C           -4.13914145454040       -2.04478750805835        0.54547987130397
O           -4.55786562398534       -3.32418476264886        0.54829396126732
C           -4.28687310292707       -4.13441080390314        1.66835096269264
C           -3.42195075094016       -1.42119196789660        1.55514973695429
C           -3.03503527995043       -0.09349217420756        1.43626123037885
C           -2.12081556662185        2.30257929103173       -1.15414096870502
C           -1.13422161264888        1.17187687830809       -1.51316835569397
C            0.00652444967889        1.04280632547138       -0.56967959636464
N            0.31582246378287       -0.04067848554916        0.13260796435292
C            1.49871088653664        0.03743215605473        1.01229076841110
C            2.61203990293569       -0.81507522338052        0.50788843284368
C            3.92053424982712       -0.43337560847972        0.27029886601234
C            4.41122156500995        0.89485410154699        0.38765989856464
C            5.73041216019063        1.19237769814297        0.14768106279848
C            6.64637882332451        0.19846117480350       -0.20881226780435
O            7.94792736894724        0.37962198225934       -0.45006157242195
C            8.50774141369182        1.67142738341936       -0.37137862954856
C            6.18443727787126       -1.15228805245439       -0.33033594497906
O            7.13770092258242       -2.04248069104086       -0.66531517483068
C            6.80525576669971       -3.40914482085876       -0.74304169870733
C            4.86157340561355       -1.43829728735024       -0.10568057909753
C           -0.32506563870071       -1.20013357269892        0.13237921018360
C           -4.22968648954472        2.96822586383809        0.10775912933983
C           -5.11507664865569        2.72227244929644        1.32710310239943
C           -3.94690750313733        4.46114539660942       -0.03239754174637
H           -4.33631882607005        0.59263587019505       -1.59298661829963
H           -6.33803351869814       -0.41553645243252       -2.34635754249075
H           -6.31852598777705       -1.98056132191626       -3.19521627268074
H           -4.90626078419451       -0.90345030993998       -3.30152614863580
H           -4.74257367904806       -3.72912882530364        2.57676799328791
H           -4.73081559544184       -5.10206794364393        1.44278977974473
H           -3.20988714315169       -4.25674126379246        1.82260253560791
H           -3.16568610648184       -1.96061698723203        2.45250760918016
H           -2.50362210664632        0.36367455287750        2.25626018350475
H           -2.81750134216057        2.40350414765382       -1.98653084927603
H           -1.56715668074455        3.23957545225136       -1.07551045027846
H           -1.67869776167738        0.23503288088266       -1.60529245985780
H           -0.72852444291061        1.41978382612352       -2.50076705165693
H           -1.02198775829256        2.01715662416935        1.18213847186195
H            0.69115075542687        1.87372160316118       -0.50985819300304
H            1.18584082636035       -0.32160630272215        2.00210349060072
H            1.80367886812850        1.07893984234224        1.10749765407290
H            1.43163031092029       -1.82044137397104       -2.80115549321771
H            2.35980832132393       -1.85312348742938        0.35087981650533
H            3.74528697985680        1.69644780675333        0.66317407260648
H            6.06251322624958        2.21426474941523        0.24231070622523
H            8.40368192257351        2.09316339617735        0.63225921590025
H            8.05443777130199        2.34686004384677       -1.10233546574304
H            9.56393824590572        1.54515986552199       -0.60145545574501
H            7.72787739225107       -3.91909479782026       -1.01480476340702
H            6.45050982340306       -3.78693026285961        0.22165026900871
H            6.04764344164984       -3.59596863632680       -1.50984810867935
H            4.50288283445667       -2.45091618883126       -0.19662884866591
H            1.03313392391563       -1.78328593401682       -2.13345546222578
H           -1.17347826817113       -1.36984882144564       -0.49758863711397
H           -0.00571944258169       -1.97217885315233        0.80205069699462
H           -4.78631887156598        2.64765987085063       -0.78037658285310
H           -4.60303493229529        3.04197803989559        2.22941744447632
H           -5.37242919543747        1.66984589205339        1.42162069355310
H           -6.03510389061932        3.29307744887748        1.23057394661868
H           -3.39226927387296        4.82297001686372        0.82828231564802
H           -3.38878487932020        4.68506515160716       -0.93779410833500
H           -4.88997791590981        5.00001551207823       -0.07889801073683
H           -1.61895692580641        3.48665706455815        2.90428033771490

          :  Hamiltonian                  GFN2-xTB          :
         :: total energy             -99.306320074308 Eh    ::
         :: gradient norm              0.001955840139 Eh/a0 ::
         :: HOMO-LUMO gap              0.625854223712 eV    ::
         :: SCC energy              -100.717366454466 Eh    ::
         :: -> dispersion             -0.077025477189 Eh    ::
         :: repulsion energy           1.409603241923 Eh    ::

    * Orbital Energies and Occupations

         #    Occupation            Energy/Eh            Energy/eV
      -------------------------------------------------------------
         1        2.0000           -0.8189669             -22.2852
       ...           ...                  ...                  ...
        78        1.9973           -0.5297514             -14.4153
        79        1.9973           -0.5294445             -14.4069
        80        1.9966           -0.5258680             -14.3096
        81        1.9962           -0.5243950             -14.2695
        82        1.9935           -0.5158266             -14.0364
        83        1.9928           -0.5141314             -13.9902
        84        1.9909           -0.5104341             -13.8896
        85        1.9882           -0.5062741             -13.7764
        86        1.9726           -0.4928149             -13.4102
        87        1.9201           -0.4754559             -12.9378
        88        1.9144           -0.4743214             -12.9069
        89        1.8208           -0.4618295             -12.5670
        90        1.5346           -0.4440107             -12.0821 (HOMO)
        91        0.8710           -0.4210110             -11.4563 (LUMO)
        92        0.0110           -0.3428266              -9.3288
        93        0.0087           -0.3390541              -9.2261
        94        0.0024           -0.3188328              -8.6759
        95        0.0020           -0.3158682              -8.5952
        96        0.0020           -0.3156060              -8.5881
        97        0.0006           -0.2956165              -8.0441
        98        0.0000           -0.1934648              -5.2644
        99        0.0000           -0.1880476              -5.1170
       100                         -0.1214878              -3.3059
       101                         -0.0685316              -1.8648
       ...                                ...                  ...
       171                          0.5875220              15.9873
      -------------------------------------------------------------
                  HL-Gap            0.0229997 Eh            0.6259 eV

     #   Z          covCN         q      C6AA      α(0)
     1   7 N        1.774    -0.263    27.654     7.787
     2   6 C        2.826     0.102    25.723     8.311
     3   6 C        3.907     0.007    20.397     6.420
     4   6 C        2.974     0.009    27.815     8.651
     5   6 C        2.920    -0.077    29.920     8.970
     6   6 C        2.862     0.131    25.127     8.216
     7   8 O        1.706    -0.226    17.743     5.687
     8   6 C        3.644     0.027    20.467     6.503
     9   6 C        2.864     0.131    25.127     8.217
    10   8 O        1.706    -0.223    17.695     5.679
    11   6 C        3.645     0.026    20.478     6.504
    12   6 C        2.913    -0.070    29.747     8.944
    13   6 C        2.921    -0.047    29.161     8.856
    14   6 C        3.810    -0.063    21.707     6.632
    15   6 C        3.801    -0.064    21.731     6.637
    16   6 C        2.857    -0.033    28.820     8.799
    17   7 N        2.730     0.090    19.693     6.591
    18   6 C        3.773    -0.016    20.895     6.513
    19   6 C        2.905    -0.065    29.622     8.924
    20   6 C        2.959     0.016    27.641     8.623
    21   6 C        2.916    -0.042    29.033     8.836
    22   6 C        2.907    -0.062    29.541     8.912
    23   6 C        2.863     0.141    24.925     8.183
    24   8 O        1.706    -0.201    17.344     5.623
    25   6 C        3.645     0.021    20.562     6.518
    26   6 C        2.856     0.138    24.985     8.193
    27   8 O        1.706    -0.225    17.726     5.684
    28   6 C        3.645     0.025    20.497     6.507
    29   6 C        2.924    -0.079    29.974     8.978
    30   6 C        2.810    -0.092    30.286     9.016
    31   6 C        3.853    -0.007    20.674     6.467
    32   6 C        3.755    -0.119    22.829     6.813
    33   6 C        3.755    -0.119    22.826     6.812
    34   1 H        0.926     0.055     2.256     2.349
    35   1 H        0.924     0.056     2.251     2.346
    36   1 H        0.925     0.083     1.949     2.183
    37   1 H        0.924     0.051     2.313     2.378
    38   1 H        0.924     0.057     2.233     2.337
    39   1 H        0.925     0.083     1.949     2.183
    40   1 H        0.924     0.051     2.310     2.377
    41   1 H        0.926     0.055     2.260     2.351
    42   1 H        0.926     0.040     2.447     2.446
    43   1 H        0.925     0.058     2.224     2.332
    44   1 H        0.924     0.051     2.307     2.375
    45   1 H        0.925     0.056     2.240     2.341
    46   1 H        0.924     0.068     2.111     2.272
    47   1 H        0.923     0.012     2.854     2.642
    48   1 H        0.926     0.053     2.285     2.364
    49   1 H        0.923     0.078     1.997     2.210
    50   1 H        0.925     0.070     2.083     2.257
    51   1 H        0.808     0.012     2.906     2.677
    52   1 H        0.926     0.051     2.304     2.374
    53   1 H        0.926     0.045     2.378     2.411
    54   1 H        0.926     0.060     2.196     2.317
    55   1 H        0.924     0.062     2.181     2.309
    56   1 H        0.924     0.061     2.184     2.311
    57   1 H        0.925     0.088     1.899     2.155
    58   1 H        0.925     0.084     1.936     2.176
    59   1 H        0.924     0.055     2.262     2.352
    60   1 H        0.924     0.054     2.270     2.356
    61   1 H        0.926     0.056     2.244     2.342
    62   1 H        0.808    -0.013     3.346     2.873
    63   1 H        0.927     0.060     2.200     2.319
    64   1 H        0.926     0.063     2.167     2.302
    65   1 H        0.924     0.039     2.462     2.454
    66   1 H        0.925     0.071     2.078     2.254
    67   1 H        0.925     0.036     2.509     2.477
    68   1 H        0.925     0.053     2.286     2.364
    69   1 H        0.925     0.062     2.172     2.305
    70   1 H        0.925     0.037     2.485     2.465
    71   1 H        0.925     0.055     2.258     2.350
    72   1 H        0.860     0.160     1.338     1.812

Wiberg/Mayer (AO) data.
largest (>0.10) Wiberg bond orders for each atom

     #   Z sym  total        # sym  WBO       # sym  WBO       # sym  WBO
 ---------------------------------------------------------------------------
     1   7 N    3.019 --     2 C    1.957    72 H    0.940
     2   6 C    3.931 --     1 N    1.957     3 C    0.993    47 H    0.911
     3   6 C    3.969 --     2 C    0.993     4 C    0.972    14 C    0.955
                            31 C    0.941
     4   6 C    3.936 --    13 C    1.406     5 C    1.370     3 C    0.972
     5   6 C    3.956 --     6 C    1.397     4 C    1.370    34 H    0.957
     6   6 C    3.894 --     5 C    1.397     9 C    1.214     7 O    1.104
     7   8 O    2.250 --     6 C    1.104     8 C    0.977
     8   6 C    3.929 --     7 O    0.977    36 H    0.976    35 H    0.973
                            37 H    0.972
     9   6 C    3.889 --    12 C    1.386     6 C    1.214    10 O    1.108
    10   8 O    2.250 --     9 C    1.108    11 C    0.977
    11   6 C    3.928 --    39 H    0.977    10 O    0.977    40 H    0.973
                            38 H    0.972
    12   6 C    3.955 --    13 C    1.409     9 C    1.386    41 H    0.963
    13   6 C    3.943 --    12 C    1.409     4 C    1.406    42 H    0.962
    14   6 C    3.968 --    15 C    0.977    44 H    0.973    43 H    0.968
                             3 C    0.955
    15   6 C    3.983 --    16 C    1.047    14 C    0.977    45 H    0.962
                            46 H    0.944
    16   6 C    3.663 --    17 N    1.351    15 C    1.047    48 H    0.961
                            30 C    0.206
    17   7 N    3.727 --    30 C    1.371    16 C    1.351    18 C    0.940
    18   6 C    3.952 --    19 C    1.032    50 H    0.962    49 H    0.944
                            17 N    0.940
    19   6 C    3.543 --    20 C    1.444    18 C    1.032    52 H    0.964
    20   6 C    3.975 --    19 C    1.444    21 C    1.221    29 C    1.205
    21   6 C    3.811 --    22 C    1.511    20 C    1.221    53 H    0.964
    22   6 C    3.963 --    21 C    1.511    23 C    1.320    54 H    0.962
    23   6 C    3.772 --    22 C    1.320    26 C    1.171    24 O    1.145
    24   8 O    2.259 --    23 C    1.145    25 C    0.971
    25   6 C    3.922 --    57 H    0.976    56 H    0.971    55 H    0.971
                            24 O    0.971
    26   6 C    3.913 --    29 C    1.476    23 C    1.171    27 O    1.106
    27   8 O    2.259 --    26 C    1.106    28 C    0.976
    28   6 C    3.928 --    58 H    0.976    27 O    0.976    59 H    0.973
                            60 H    0.972
    29   6 C    3.855 --    26 C    1.476    20 C    1.205    61 H    0.961
    30   6 C    3.595 --    17 N    1.371    64 H    0.974    63 H    0.967
                            16 C    0.206
    31   6 C    3.967 --    33 C    1.009    32 C    1.008    65 H    0.957
                             3 C    0.941
    32   6 C    3.973 --    31 C    1.008    67 H    0.981    68 H    0.980
                            66 H    0.971
    33   6 C    3.977 --    31 C    1.009    70 H    0.982    71 H    0.979
                            69 H    0.974
    34   1 H    0.995 --     5 C    0.957
    35   1 H    0.992 --     8 C    0.973
    36   1 H    0.992 --     8 C    0.976
    37   1 H    0.992 --     8 C    0.972
    38   1 H    0.991 --    11 C    0.972
    39   1 H    0.992 --    11 C    0.977
    40   1 H    0.992 --    11 C    0.973
    41   1 H    0.995 --    12 C    0.963
    42   1 H    0.997 --    13 C    0.962
    43   1 H    0.994 --    14 C    0.968
    44   1 H    0.996 --    14 C    0.973
    45   1 H    0.996 --    15 C    0.962
    46   1 H    0.977 --    15 C    0.944
    47   1 H    0.978 --     2 C    0.911
    48   1 H    0.997 --    16 C    0.961
    49   1 H    0.974 --    18 C    0.944
    50   1 H    0.995 --    18 C    0.962
    51   1 H    0.996 --    62 H    0.992
    52   1 H    0.996 --    19 C    0.964
    53   1 H    0.997 --    21 C    0.964
    54   1 H    0.994 --    22 C    0.962
    55   1 H    0.989 --    25 C    0.971
    56   1 H    0.989 --    25 C    0.971
    57   1 H    0.992 --    25 C    0.976
    58   1 H    0.992 --    28 C    0.976
    59   1 H    0.992 --    28 C    0.973
    60   1 H    0.992 --    28 C    0.972
    61   1 H    0.995 --    29 C    0.961
    62   1 H    0.999 --    51 H    0.992
    63   1 H    0.996 --    30 C    0.967
    64   1 H    0.996 --    30 C    0.974
    65   1 H    0.989 --    31 C    0.957
    66   1 H    0.988 --    32 C    0.971
    67   1 H    0.996 --    32 C    0.981
    68   1 H    0.993 --    32 C    0.980
    69   1 H    0.991 --    33 C    0.974
    70   1 H    0.996 --    33 C    0.982
    71   1 H    0.993 --    33 C    0.979
    72   1 H    0.967 --     1 N    0.940
 ---------------------------------------------------------------------------

molecular dipole:
                 x           y           z       tot (Debye)
 q only:        1.195       0.188       0.013
   full:        1.469       0.155       0.084       3.762

           -------------------------------------------------
          | TOTAL ENERGY              -99.306320074308 Eh   |
          | GRADIENT NORM               0.001955840139 Eh/α |
          | HOMO-LUMO GAP               0.625854223712 eV   |
           -------------------------------------------------

 * finished run on 2024/04/06 at 11:14:13.417
