   * xtb version 6.6.1 (8d0f1dd) compiled by 'conda@1efc2f54142f' on 2023-08-01
          program call               : xtb struc.xyz --opt loose --input .xc1 --gfn2

   ID    Z sym.   atoms
    1    7 N      1, 17
    2    6 C      2-6, 8, 9, 11-16, 18-23, 25, 26, 28-33
    3    8 O      7, 10, 24, 27
    4    1 H      34-72
constraining bond 23 29 to    5.0000000 Å, actual value:    2.4187723 Å

          :  Hamiltonian                  GFN2-xTB          :
 * total energy  :   -98.2144779 Eh     change       -0.4035485E-08 Eh
 * total energy  :   -98.4672639 Eh     change       -0.2527860E+00 Eh
 * total energy  :   -98.6307376 Eh     change       -0.1634737E+00 Eh
 * total energy  :   -98.7272720 Eh     change       -0.9653432E-01 Eh
 * total energy  :   -98.7955504 Eh     change       -0.6827844E-01 Eh
 * total energy  :   -98.8474752 Eh     change       -0.5192483E-01 Eh
 * total energy  :   -98.8823486 Eh     change       -0.3487334E-01 Eh
 * total energy  :   -98.9033439 Eh     change       -0.2099530E-01 Eh
 * total energy  :   -98.9246794 Eh     change       -0.2133550E-01 Eh
 * total energy  :   -98.9433547 Eh     change       -0.1867538E-01 Eh
 * total energy  :   -99.1969985 Eh     change       -0.2671899E-04 Eh
 * total energy  :   -99.1973206 Eh     change       -0.3220337E-03 Eh
 * total energy  :   -99.1974047 Eh     change       -0.8410738E-04 Eh
 * total energy  :   -99.1975269 Eh     change       -0.1222349E-03 Eh
 * total energy  :   -99.1976375 Eh     change       -0.1106261E-03 Eh
 * total energy  :   -99.1977058 Eh     change       -0.6821298E-04 Eh
 * total energy  :   -99.1977669 Eh     change       -0.6116992E-04 Eh
 * total energy  :   -99.1978182 Eh     change       -0.5131088E-04 Eh
 * total energy  :   -99.1978628 Eh     change       -0.4459417E-04 Eh
   *** GEOMETRY OPTIMIZATION CONVERGED AFTER 88 ITERATIONS ***

 final structure:
================
72
 xtb: 6.6.1 (8d0f1dd)
N           -1.78230068436968        2.87074858035258        2.30571265846999
C           -1.68374286827635        2.18144390786051        1.26831726015191
C           -2.78715289183602        1.98238205239484        0.26585534030381
C           -3.21854038508242        0.52424883129523        0.26737822342015
C           -4.08396730239821        0.05560231602905       -0.72361422830075
C           -4.53114125991304       -1.25471360750808       -0.73371637350820
O           -5.37767441716747       -1.78235581509223       -1.64432898458552
C           -5.97440584904591       -0.93646667125419       -2.59874951758379
C           -4.09181938380555       -2.15213649384687        0.27561052968485
O           -4.57104312274801       -3.41065555213510        0.18297545242317
C           -4.25672399134396       -4.33696687479970        1.19566742045277
C           -3.23412127795486       -1.68160954213286        1.25618351081512
C           -2.80717622015961       -0.35871607647743        1.25298123033035
C           -2.18188470459147        2.36703846161122       -1.11034846139357
C           -1.22544168023828        1.32122848305706       -1.71530465859140
C            0.07021365910602        1.21498874479133       -1.00796253223143
N            0.65514916075402        0.07837872611269       -0.64357491325713
C            1.98359647610242        0.06992942268780       -0.07667351932100
C            3.03029173776922       -0.49961532974967       -1.05383522379455
C            4.35184700483043       -0.70735104383931       -0.32921937196085
C            5.31227377213576        0.24886404362746       -0.61911497616321
C            6.70738950575265        0.49470870695920       -0.28754319089454
C            7.45976956385647        1.55599668879734       -0.65432956598867
O            7.46296023638128        2.45340176644901       -1.58727974112065
C            8.13194229889148        3.68883588957752       -1.33726203214215
C            5.20690378796244       -2.19071043252682        1.44321333277452
O            5.48157112846116       -3.19656939065274        2.19470211215477
C            4.98153677669773       -4.50963381906046        1.88685306762791
C            4.28115538605269       -1.89566269830259        0.51723490452261
C            0.00068596347829       -1.19943733463641       -0.79675618968891
C           -4.04549214717479        2.85556332229294        0.55097955525656
C           -4.71529954304718        2.45941458221219        1.86490351400402
C           -3.75082081982307        4.35297542615693        0.55392913520761
H           -4.42564488537210        0.73257410454761       -1.48888956967576
H           -6.52880964327580       -0.12259461766898       -2.12169731976908
H           -6.66677029973317       -1.56611362547328       -3.15415376048125
H           -5.23352620999283       -0.52046784330864       -3.28953240958103
H           -4.59244220793259       -3.98836910172936        2.17694030818676
H           -4.79147093670877       -5.24806567232998        0.93435922142489
H           -3.18229153363022       -4.54579305236230        1.23014373740173
H           -2.89960531675496       -2.33414580187893        2.04631917132221
H           -2.16676700039972       -0.02103515369167        2.05317542290143
H           -2.99525996499923        2.52252856349229       -1.81855078047742
H           -1.65155575061659        3.31436318300832       -1.00528773307892
H           -1.72989482121707        0.35875324897979       -1.77413778861912
H           -1.01403485462955        1.65219840769780       -2.74049515344801
H           -0.75101439466947        1.67717304518515        0.95134078247106
H            0.65187154927841        2.11707943077554       -0.89017256760668
H            1.97397656210686       -0.53557572135511        0.83530901815517
H            2.26909226747995        1.08716850547805        0.19714402194552
H            3.13505141234786        0.18343882998713       -1.89679912705733
H            2.67530494864910       -1.45451219780357       -1.44538073274256
H            4.95025700061803        1.01911346286183       -1.29453568238842
H            7.16347780434275       -0.22051016494727        0.38868205843391
H            7.78296504567488        4.14090671849178       -0.40714614497156
H            7.90238378535249        4.33449150259520       -2.18269993518312
H            9.21157250283886        3.52878263212218       -1.28191135876276
H            5.56722792314476       -5.21111832509025        2.47490257585125
H            3.92824226512861       -4.57430588486557        2.17014116999963
H            5.09244044269786       -4.71652803963137        0.82070949349214
H            3.37561972890530       -2.49495914370388        0.42471504298967
H           -0.11738328959427       -1.45886404366336       -1.85104722221793
H           -0.98510564335540       -1.18394065863004       -0.32490095372439
H            0.59851488661446       -1.96870872030537       -0.31498337911359
H           -4.75335769438089        2.65175473399079       -0.26076603031163
H           -4.05240613417183        2.66826974397541        2.69817115060794
H           -4.97174392216509        1.40281540815420        1.87300989905371
H           -5.62861600245649        3.03383226005533        1.99549323593160
H           -3.02359672610430        4.59228634617838        1.32346821675869
H           -3.38197207636919        4.69647601393042       -0.40898760243681
H           -4.66720166307176        4.89528922532053        0.77195674396397
H           -0.95954946583101        2.95730265385818        2.89447505626206

          :  Hamiltonian                  GFN2-xTB          :
         :: total energy             -99.197862827869 Eh    ::
         :: gradient norm              0.002299928107 Eh/a0 ::
         :: HOMO-LUMO gap              0.316260220394 eV    ::
         :: SCC energy              -100.557070660252 Eh    ::
         :: -> dispersion             -0.072746607837 Eh    ::
         :: repulsion energy           1.353054923898 Eh    ::

    * Orbital Energies and Occupations

         #    Occupation            Energy/Eh            Energy/eV
      -------------------------------------------------------------
         1        2.0000           -0.8271294             -22.5073
       ...           ...                  ...                  ...
        78        1.9986           -0.5235920             -14.2477
        79        1.9986           -0.5233258             -14.2404
        80        1.9984           -0.5221700             -14.2090
        81        1.9979           -0.5176638             -14.0863
        82        1.9966           -0.5099089             -13.8753
        83        1.9960           -0.5071663             -13.8007
        84        1.9953           -0.5045182             -13.7286
        85        1.9907           -0.4937914             -13.4367
        86        1.9843           -0.4854112             -13.2087
        87        1.9452           -0.4653215             -12.6620
        88        1.8957           -0.4547260             -12.3737
        89        1.8320           -0.4466308             -12.1534
        90        1.1363           -0.4131465             -11.2423 (HOMO)
        91        0.7741           -0.4015242             -10.9260 (LUMO)
        92        0.4110           -0.3873920             -10.5415
        93        0.0309           -0.3430286              -9.3343
        94        0.0162           -0.3326655              -9.0523
        95        0.0043           -0.3116527              -8.4805
        96        0.0035           -0.3083557              -8.3908
        97        0.0003           -0.2688677              -7.3163
        98        0.0000           -0.2201508              -5.9906
        99        0.0000           -0.1858155              -5.0563
       100                         -0.1331116              -3.6222
       101                         -0.0835974              -2.2748
       ...                                ...                  ...
       171                          0.5923342              16.1182
      -------------------------------------------------------------
                  HL-Gap            0.0116223 Eh            0.3163 eV

     #   Z          covCN         q      C6AA      α(0)
     1   7 N        1.774    -0.273    27.894     7.821
     2   6 C        2.827     0.101    25.752     8.315
     3   6 C        3.907     0.006    20.416     6.422
     4   6 C        2.974     0.001    27.998     8.679
     5   6 C        2.921    -0.081    30.015     8.984
     6   6 C        2.862     0.128    25.194     8.227
     7   8 O        1.706    -0.234    17.878     5.709
     8   6 C        3.644     0.029    20.427     6.496
     9   6 C        2.864     0.127    25.221     8.232
    10   8 O        1.706    -0.233    17.859     5.706
    11   6 C        3.645     0.028    20.429     6.496
    12   6 C        2.914    -0.076    29.891     8.965
    13   6 C        2.921    -0.054    29.343     8.883
    14   6 C        3.812    -0.064    21.712     6.632
    15   6 C        3.802    -0.069    21.814     6.650
    16   6 C        2.841     0.004    27.916     8.659
    17   7 N        2.729     0.008    21.121     6.826
    18   6 C        3.753    -0.015    20.899     6.519
    19   6 C        3.818    -0.072    21.858     6.654
    20   6 C        2.945     0.007    27.856     8.656
    21   6 C        2.897    -0.039    28.966     8.824
    22   6 C        2.885    -0.052    29.291     8.873
    23   6 C        1.874     0.073    29.278     8.739
    24   8 O        1.703    -0.152    16.589     5.499
    25   6 C        3.657     0.015    20.612     6.516
    26   6 C        1.866     0.059    29.633     8.793
    27   8 O        1.702    -0.171    16.884     5.548
    28   6 C        3.644     0.015    20.673     6.535
    29   6 C        2.893    -0.077    29.919     8.968
    30   6 C        3.700    -0.068    21.972     6.703
    31   6 C        3.853    -0.007    20.671     6.466
    32   6 C        3.756    -0.118    22.816     6.811
    33   6 C        3.755    -0.118    22.823     6.812
    34   1 H        0.926     0.051     2.312     2.378
    35   1 H        0.924     0.052     2.290     2.367
    36   1 H        0.925     0.079     1.985     2.203
    37   1 H        0.924     0.046     2.374     2.409
    38   1 H        0.924     0.053     2.278     2.360
    39   1 H        0.925     0.079     1.987     2.204
    40   1 H        0.924     0.045     2.381     2.413
    41   1 H        0.926     0.050     2.325     2.385
    42   1 H        0.926     0.037     2.482     2.464
    43   1 H        0.925     0.059     2.208     2.324
    44   1 H        0.924     0.052     2.291     2.367
    45   1 H        0.925     0.065     2.141     2.288
    46   1 H        0.924     0.077     2.013     2.219
    47   1 H        0.922     0.003     3.006     2.711
    48   1 H        0.926     0.066     2.129     2.282
    49   1 H        0.924     0.067     2.114     2.274
    50   1 H        0.924     0.064     2.153     2.295
    51   1 H        0.925     0.049     2.335     2.390
    52   1 H        0.924     0.055     2.254     2.348
    53   1 H        0.925     0.043     2.404     2.425
    54   1 H        0.925     0.078     2.003     2.213
    55   1 H        0.924     0.069     2.097     2.265
    56   1 H        0.925     0.085     1.926     2.170
    57   1 H        0.924     0.079     1.988     2.205
    58   1 H        0.925     0.084     1.940     2.178
    59   1 H        0.924     0.060     2.199     2.319
    60   1 H        0.924     0.060     2.195     2.317
    61   1 H        0.925     0.042     2.427     2.436
    62   1 H        0.924     0.074     2.043     2.235
    63   1 H        0.924     0.079     1.990     2.206
    64   1 H        0.925     0.076     2.023     2.224
    65   1 H        0.924     0.036     2.509     2.477
    66   1 H        0.925     0.068     2.110     2.271
    67   1 H        0.925     0.034     2.525     2.485
    68   1 H        0.925     0.050     2.326     2.385
    69   1 H        0.925     0.061     2.190     2.314
    70   1 H        0.925     0.034     2.536     2.490
    71   1 H        0.925     0.053     2.283     2.363
    72   1 H        0.860     0.154     1.371     1.835

Wiberg/Mayer (AO) data.
largest (>0.10) Wiberg bond orders for each atom

     #   Z sym  total        # sym  WBO       # sym  WBO       # sym  WBO
 ---------------------------------------------------------------------------
     1   7 N    3.036 --     2 C    1.954    72 H    0.943
     2   6 C    3.929 --     1 N    1.954     3 C    0.995    47 H    0.905
     3   6 C    3.977 --     2 C    0.995     4 C    0.971    14 C    0.957
                            31 C    0.943
     4   6 C    3.955 --    13 C    1.417     5 C    1.367     3 C    0.971
     5   6 C    3.965 --     6 C    1.404     4 C    1.367    34 H    0.958
     6   6 C    3.910 --     5 C    1.404     9 C    1.227     7 O    1.094
     7   8 O    2.253 --     6 C    1.094     8 C    0.979
     8   6 C    3.934 --     7 O    0.979    36 H    0.977    35 H    0.974
                            37 H    0.974
     9   6 C    3.907 --    12 C    1.396     6 C    1.227    10 O    1.096
    10   8 O    2.252 --     9 C    1.096    11 C    0.979
    11   6 C    3.934 --    10 O    0.979    39 H    0.977    40 H    0.974
                            38 H    0.974
    12   6 C    3.966 --    13 C    1.399     9 C    1.396    41 H    0.964
    13   6 C    3.959 --     4 C    1.417    12 C    1.399    42 H    0.963
    14   6 C    3.971 --    15 C    0.979    44 H    0.973    43 H    0.968
                             3 C    0.957
    15   6 C    3.987 --    16 C    1.059    14 C    0.979    45 H    0.962
                            46 H    0.931
    16   6 C    3.574 --    17 N    1.393    15 C    1.059    48 H    0.958
    17   7 N    3.467 --    16 C    1.393    30 C    0.998    18 C    0.988
    18   6 C    3.951 --    17 N    0.988    50 H    0.969    19 C    0.969
                            49 H    0.959
    19   6 C    3.970 --    20 C    0.998    51 H    0.973    18 C    0.969
                            52 H    0.965
    20   6 C    3.879 --    21 C    1.558    29 C    1.179    19 C    0.998
    21   6 C    3.825 --    20 C    1.558    22 C    1.159    53 H    0.960
    22   6 C    3.881 --    23 C    1.660    21 C    1.159    54 H    0.934
    23   6 C    3.086 --    22 C    1.660    24 O    1.273
    24   8 O    2.322 --    23 C    1.273    25 C    0.933
    25   6 C    3.894 --    56 H    0.978    55 H    0.978    57 H    0.969
                            24 O    0.933
    26   6 C    3.037 --    29 C    1.603    27 O    1.296
    27   8 O    2.333 --    26 C    1.296    28 C    0.912
    28   6 C    3.871 --    60 H    0.979    58 H    0.979    59 H    0.972
                            27 O    0.912
    29   6 C    3.836 --    26 C    1.603    20 C    1.179    61 H    0.909
    30   6 C    3.959 --    17 N    0.998    64 H    0.977    62 H    0.968
                            63 H    0.959
    31   6 C    3.975 --    33 C    1.009    32 C    1.008    65 H    0.961
                             3 C    0.943
    32   6 C    3.981 --    31 C    1.008    67 H    0.982    68 H    0.982
                            66 H    0.975
    33   6 C    3.984 --    31 C    1.009    70 H    0.983    71 H    0.981
                            69 H    0.977
    34   1 H    0.996 --     5 C    0.958
    35   1 H    0.994 --     8 C    0.974
    36   1 H    0.993 --     8 C    0.977
    37   1 H    0.995 --     8 C    0.974
    38   1 H    0.994 --    11 C    0.974
    39   1 H    0.993 --    11 C    0.977
    40   1 H    0.994 --    11 C    0.974
    41   1 H    0.996 --    12 C    0.964
    42   1 H    0.998 --    13 C    0.963
    43   1 H    0.995 --    14 C    0.968
    44   1 H    0.996 --    14 C    0.973
    45   1 H    0.995 --    15 C    0.962
    46   1 H    0.971 --    15 C    0.931
    47   1 H    0.988 --     2 C    0.905
    48   1 H    0.995 --    16 C    0.958
    49   1 H    0.989 --    18 C    0.959
    50   1 H    0.995 --    18 C    0.969
    51   1 H    0.997 --    19 C    0.973
    52   1 H    0.993 --    19 C    0.965
    53   1 H    0.995 --    21 C    0.960
    54   1 H    0.971 --    22 C    0.934
    55   1 H    0.992 --    25 C    0.978
    56   1 H    0.992 --    25 C    0.978
    57   1 H    0.983 --    25 C    0.969
    58   1 H    0.992 --    28 C    0.979
    59   1 H    0.988 --    28 C    0.972
    60   1 H    0.994 --    28 C    0.979
    61   1 H    0.936 --    29 C    0.909
    62   1 H    0.985 --    30 C    0.968
    63   1 H    0.987 --    30 C    0.959
    64   1 H    0.994 --    30 C    0.977
    65   1 H    0.994 --    31 C    0.961
    66   1 H    0.992 --    32 C    0.975
    67   1 H    0.997 --    32 C    0.982
    68   1 H    0.995 --    32 C    0.982
    69   1 H    0.994 --    33 C    0.977
    70   1 H    0.997 --    33 C    0.983
    71   1 H    0.994 --    33 C    0.981
    72   1 H    0.971 --     1 N    0.943
 ---------------------------------------------------------------------------

molecular dipole:
                 x           y           z       tot (Debye)
 q only:        2.199       0.337      -0.897
   full:        2.392       0.111      -1.106       6.705

           -------------------------------------------------
          | TOTAL ENERGY              -99.197862827869 Eh   |
          | GRADIENT NORM               0.002299928107 Eh/α |
          | HOMO-LUMO GAP               0.316260220394 eV   |
           -------------------------------------------------

 * finished run on 2024/04/06 at 11:14:29.543
