   * xtb version 6.6.1 (8d0f1dd) compiled by 'conda@1efc2f54142f' on 2023-08-01
          program call               : xtb xtbopt.xyz --opt crude --input .xc2 --gfn2

   ID    Z sym.   atoms
    1    7 N      1, 17
    2    6 C      2-6, 8, 9, 11-16, 18-23, 25, 26, 28-33
    3    8 O      7, 10, 24, 27
    4    1 H      34-72
########################################################################
[WARNING] Please study the warnings concerning your input carefully
-1- readin_getIntValue: could not parse ''
########################################################################

          :  Hamiltonian                  GFN2-xTB          :
 * total energy  :   -99.2026458 Eh     change       -0.2131628E-12 Eh
 * total energy  :   -99.2089567 Eh     change       -0.6310954E-02 Eh
 * total energy  :   -99.2127215 Eh     change       -0.3764782E-02 Eh
 * total energy  :   -99.2145633 Eh     change       -0.1841779E-02 Eh
 * total energy  :   -99.2162410 Eh     change       -0.1677688E-02 Eh
 * total energy  :   -99.2176455 Eh     change       -0.1404558E-02 Eh
 * total energy  :   -99.2186219 Eh     change       -0.9763471E-03 Eh
 * total energy  :   -99.2192930 Eh     change       -0.6711007E-03 Eh
 * total energy  :   -99.2200785 Eh     change       -0.7854777E-03 Eh
 * total energy  :   -99.2212345 Eh     change       -0.1156092E-02 Eh
 * total energy  :   -99.3016727 Eh     change       -0.1326748E-02 Eh
 * total energy  :   -99.3027285 Eh     change       -0.1055748E-02 Eh
 * total energy  :   -99.3034678 Eh     change       -0.7393362E-03 Eh
 * total energy  :   -99.3039959 Eh     change       -0.5281140E-03 Eh
 * total energy  :   -99.3043196 Eh     change       -0.3236989E-03 Eh
 * total energy  :   -99.3047795 Eh     change       -0.4599023E-03 Eh
 * total energy  :   -99.3052334 Eh     change       -0.4538655E-03 Eh
 * total energy  :   -99.3056573 Eh     change       -0.4239466E-03 Eh
 * total energy  :   -99.3060845 Eh     change       -0.4271333E-03 Eh
   *** GEOMETRY OPTIMIZATION CONVERGED AFTER 34 ITERATIONS ***

 final structure:
================
72
 xtb: 6.6.1 (8d0f1dd)
N           -1.83626840332085        2.92189699078251        2.30581080658383
C           -1.77196771462472        2.18042360846265        1.30237971333161
C           -2.88058046771160        1.99946658570624        0.30158867163971
C           -3.34366259712651        0.55222009016753        0.31984759901704
C           -4.17145861544717        0.07445795328898       -0.69854909843625
C           -4.61441212160081       -1.23737194916134       -0.71566190921393
O           -5.40942116167388       -1.77833910663411       -1.66364387527659
C           -5.93493582503773       -0.95010578831025       -2.67377623928423
C           -4.21894941384438       -2.12309748625425        0.32231139861529
O           -4.67915126702200       -3.38686119315195        0.21456067879079
C           -4.38488809700248       -4.31054026106333        1.23597880546595
C           -3.41437587660511       -1.63754326968175        1.34049612500683
C           -2.98476630286877       -0.31578869349412        1.33877483875067
C           -2.26127740301279        2.35348013829819       -1.07732674931358
C           -1.36192563591961        1.26274046224969       -1.68985889734951
C           -0.08219139822779        1.06985906228298       -0.97469696169526
N            0.42894210442910       -0.09963622777011       -0.60430632323803
C            1.79053131161185       -0.18730960919071       -0.13400534181050
C            2.72226060014241       -0.78290169546216       -1.20983041424401
C            4.16429030926849       -0.60423253739161       -0.80249460547253
C            4.79040023001707        0.51981616088839       -1.24594179382511
C            6.11141778599511        0.90528021672891       -1.01421013328053
C            7.25585234197497        1.30787952246253       -0.98468863645001
O            8.48710016781591        1.64453971101546       -0.82314292942892
C            8.75732185836827        3.01081019894814       -0.50330995977256
C            5.92332081938799       -1.56846462379007        0.63949989631327
O            6.49950740341511       -2.44649821057681        1.46196042357450
C            5.81004242333213       -3.63134821413639        1.80638249029321
C            4.71018695241692       -1.62216944817009        0.05158041348471
C           -0.28255233215568       -1.34337816976918       -0.77591684449757
C           -4.11554550568637        2.90878601611876        0.57106659128408
C           -4.78931840021081        2.55842622992232        1.89551526503307
C           -3.78328524437849        4.39810602854673        0.54014274524331
H           -4.48107797955438        0.74451472225954       -1.48333564251888
H           -6.52132697127699       -0.12753281801801       -2.25346373560983
H           -6.58587708705589       -1.58974614708305       -3.26640141889048
H           -5.14510558582579       -0.54675612542298       -3.31642927728310
H           -4.77549635038115       -3.97843949605816        2.20237587601349
H           -4.88014292572687       -5.23483054333385        0.94525422891060
H           -3.30757203847593       -4.48805942694254        1.31885866079650
H           -3.11942894856019       -2.27920951452041        2.15470485825842
H           -2.37932713340365        0.03192625388422        2.16130309065685
H           -3.06779430045929        2.55480351895069       -1.78184853092679
H           -1.68165705835920        3.27151031160376       -0.97133276399380
H           -1.91753849469771        0.33096045055722       -1.77366163989613
H           -1.11957851398863        1.60018208901641       -2.70630052383862
H           -0.86899079317987        1.60957898066707        1.01599047475450
H            0.55097447294831        1.93539717857751       -0.84653159246118
H            1.82291939558950       -0.80278570483806        0.76976146765662
H            2.14543433182922        0.81325082301349        0.12197029893832
H            2.53433229529405       -0.25854539821618       -2.15107458155164
H            2.49062746429221       -1.84035788810928       -1.35853838884131
H            4.21723777433346        1.21912643647078       -1.84506128788918
H            6.57845231646780       -0.72201045497748        0.48335559981353
H            8.16436065729517        3.32826370920482        0.36214760109985
H            8.54325029837054        3.66334368251344       -1.36012151741048
H            9.82123845325931        3.05738551012876       -0.25969001380785
H            6.45900870500183       -4.16082007819895        2.50154518549971
H            4.85854508155652       -3.40473634213414        2.29492315353256
H            5.63048051179401       -4.25441904841789        0.92580740445351
H            4.06759658264627       -2.47652277579241        0.22169644591051
H           -0.34275955295257       -1.62362938147420       -1.83024170202404
H           -1.29350595133116       -1.26452137274517       -0.37252878047339
H            0.24089741204292       -2.12973571044975       -0.23753086224475
H           -4.83080761284440        2.70281737942920       -0.23396853468412
H           -4.11906231958458        2.77158246111508        2.72197858334147
H           -5.06973892913122        1.50835474449582        1.92841618122915
H           -5.68870344687659        3.15645655949224        2.01582569810229
H           -3.05156564708820        4.63538267218161        1.30599136593482
H           -3.40306846487716        4.71037336159330       -0.42881398182921
H           -4.68574577346152        4.96861108260735        0.74324395034188
H           -1.01320880132230        2.99037332960309        2.89645374368145

          :  Hamiltonian                  GFN2-xTB          :
         :: total energy             -99.306084465699 Eh    ::
         :: gradient norm              0.008950422250 Eh/a0 ::
         :: HOMO-LUMO gap              1.469600104810 eV    ::
         :: SCC energy              -100.734300718432 Eh    ::
         :: -> dispersion             -0.073659760101 Eh    ::
         :: repulsion energy           1.426899356327 Eh    ::

    * Orbital Energies and Occupations

         #    Occupation            Energy/Eh            Energy/eV
      -------------------------------------------------------------
         1        2.0000           -0.8116028             -22.0848
       ...           ...                  ...                  ...
        78        1.9990           -0.5330146             -14.5041
        79        1.9984           -0.5259712             -14.3124
        80        1.9984           -0.5251505             -14.2901
        81        1.9977           -0.5200603             -14.1516
        82        1.9962           -0.5119234             -13.9301
        83        1.9956           -0.5093731             -13.8607
        84        1.9948           -0.5068737             -13.7927
        85        1.9928           -0.5017208             -13.6525
        86        1.9831           -0.4881732             -13.2839
        87        1.9649           -0.4764081             -12.9637
        88        1.9399           -0.4676805             -12.7262
        89        1.8883           -0.4574548             -12.4480
        90        1.7797           -0.4457620             -12.1298 (HOMO)
        91        0.4212           -0.3917552             -10.6602 (LUMO)
        92        0.0342           -0.3485506              -9.4845
        93        0.0147           -0.3350310              -9.1167
        94        0.0040           -0.3144852              -8.5576
        95        0.0033           -0.3110700              -8.4646
        96        0.0001           -0.2578177              -7.0156
        97        0.0000           -0.2414724              -6.5708
        98        0.0000           -0.1886328              -5.1330
        99        0.0000           -0.1827679              -4.9734
       100                         -0.1329082              -3.6166
       101                         -0.0752886              -2.0487
       ...                                ...                  ...
       171                          1.3298075              36.1859
      -------------------------------------------------------------
                  HL-Gap            0.0540068 Eh            1.4696 eV

     #   Z          covCN         q      C6AA      α(0)
     1   7 N        1.774    -0.272    27.865     7.817
     2   6 C        2.828     0.101    25.746     8.314
     3   6 C        3.907     0.006    20.416     6.422
     4   6 C        2.974     0.001    28.002     8.680
     5   6 C        2.920    -0.081    30.032     8.987
     6   6 C        2.862     0.127    25.204     8.229
     7   8 O        1.706    -0.233    17.866     5.707
     8   6 C        3.645     0.028    20.432     6.497
     9   6 C        2.864     0.126    25.224     8.232
    10   8 O        1.706    -0.232    17.842     5.703
    11   6 C        3.645     0.028    20.441     6.498
    12   6 C        2.914    -0.076    29.885     8.964
    13   6 C        2.921    -0.053    29.321     8.880
    14   6 C        3.812    -0.064    21.712     6.632
    15   6 C        3.802    -0.069    21.820     6.651
    16   6 C        2.842     0.005    27.910     8.658
    17   7 N        2.729     0.009    21.102     6.823
    18   6 C        3.756    -0.015    20.890     6.517
    19   6 C        3.813    -0.071    21.840     6.652
    20   6 C        2.952     0.009    27.826     8.652
    21   6 C        2.899    -0.026    28.639     8.775
    22   6 C        1.967    -0.079    33.225     9.308
    23   6 C        1.880     0.115    28.284     8.590
    24   8 O        1.703    -0.179    17.003     5.567
    25   6 C        3.663     0.023    20.447     6.486
    26   6 C        2.790     0.102    25.723     8.308
    27   8 O        1.704    -0.213    17.545     5.655
    28   6 C        3.646     0.022    20.531     6.511
    29   6 C        2.893    -0.084    30.107     8.996
    30   6 C        3.700    -0.070    22.005     6.709
    31   6 C        3.853    -0.007    20.667     6.466
    32   6 C        3.756    -0.118    22.812     6.810
    33   6 C        3.755    -0.119    22.839     6.814
    34   1 H        0.926     0.051     2.304     2.374
    35   1 H        0.924     0.053     2.281     2.362
    36   1 H        0.925     0.080     1.978     2.199
    37   1 H        0.924     0.045     2.378     2.411
    38   1 H        0.924     0.054     2.265     2.354
    39   1 H        0.925     0.080     1.979     2.200
    40   1 H        0.924     0.046     2.372     2.409
    41   1 H        0.926     0.051     2.307     2.375
    42   1 H        0.926     0.039     2.457     2.451
    43   1 H        0.925     0.060     2.197     2.318
    44   1 H        0.924     0.053     2.285     2.364
    45   1 H        0.925     0.065     2.136     2.285
    46   1 H        0.923     0.078     2.004     2.214
    47   1 H        0.922     0.003     3.004     2.710
    48   1 H        0.926     0.066     2.127     2.280
    49   1 H        0.924     0.065     2.142     2.289
    50   1 H        0.924     0.066     2.135     2.285
    51   1 H        0.924     0.051     2.303     2.373
    52   1 H        0.924     0.055     2.263     2.353
    53   1 H        0.925     0.052     2.293     2.368
    54   1 H        0.925     0.078     1.999     2.211
    55   1 H        0.924     0.057     2.233     2.337
    56   1 H        0.923     0.062     2.178     2.308
    57   1 H        0.924     0.084     1.938     2.177
    58   1 H        0.925     0.082     1.962     2.191
    59   1 H        0.924     0.052     2.297     2.370
    60   1 H        0.924     0.058     2.225     2.333
    61   1 H        0.925     0.042     2.423     2.434
    62   1 H        0.924     0.075     2.030     2.228
    63   1 H        0.924     0.080     1.977     2.199
    64   1 H        0.925     0.077     2.007     2.215
    65   1 H        0.924     0.036     2.504     2.474
    66   1 H        0.925     0.067     2.118     2.276
    67   1 H        0.925     0.035     2.519     2.482
    68   1 H        0.925     0.050     2.315     2.380
    69   1 H        0.925     0.063     2.170     2.304
    70   1 H        0.925     0.034     2.528     2.486
    71   1 H        0.925     0.053     2.277     2.360
    72   1 H        0.860     0.155     1.367     1.832

Wiberg/Mayer (AO) data.
largest (>0.10) Wiberg bond orders for each atom

     #   Z sym  total        # sym  WBO       # sym  WBO       # sym  WBO
 ---------------------------------------------------------------------------
     1   7 N    3.034 --     2 C    1.955    72 H    0.943
     2   6 C    3.931 --     1 N    1.955     3 C    0.994    47 H    0.908
     3   6 C    3.976 --     2 C    0.994     4 C    0.972    14 C    0.955
                            31 C    0.943
     4   6 C    3.953 --    13 C    1.416     5 C    1.366     3 C    0.972
     5   6 C    3.964 --     6 C    1.403     4 C    1.366    34 H    0.958
     6   6 C    3.909 --     5 C    1.403     9 C    1.225     7 O    1.095
     7   8 O    2.253 --     6 C    1.095     8 C    0.979
     8   6 C    3.933 --     7 O    0.979    36 H    0.977    35 H    0.974
                            37 H    0.974
     9   6 C    3.905 --    12 C    1.394     6 C    1.225    10 O    1.097
    10   8 O    2.252 --     9 C    1.097    11 C    0.978
    11   6 C    3.933 --    10 O    0.978    39 H    0.977    40 H    0.974
                            38 H    0.974
    12   6 C    3.965 --    13 C    1.401     9 C    1.394    41 H    0.964
    13   6 C    3.958 --     4 C    1.416    12 C    1.401    42 H    0.963
    14   6 C    3.970 --    15 C    0.978    44 H    0.973    43 H    0.968
                             3 C    0.955
    15   6 C    3.987 --    16 C    1.061    14 C    0.978    45 H    0.961
                            46 H    0.929
    16   6 C    3.574 --    17 N    1.395    15 C    1.061    48 H    0.958
    17   7 N    3.468 --    16 C    1.395    30 C    0.998    18 C    0.989
    18   6 C    3.952 --    17 N    0.989    50 H    0.968    19 C    0.966
                            49 H    0.964
    19   6 C    3.976 --    20 C    1.006    51 H    0.972    52 H    0.970
                            18 C    0.966
    20   6 C    3.916 --    21 C    1.586    29 C    1.177    19 C    1.006
    21   6 C    3.898 --    20 C    1.586    22 C    1.205    53 H    0.943
    22   6 C    3.901 --    23 C    2.469    21 C    1.205    24 O    0.139
    23   6 C    3.843 --    22 C    2.469    24 O    1.199
    24   8 O    2.328 --    23 C    1.199    25 C    0.933    22 C    0.139
    25   6 C    3.914 --    55 H    0.980    57 H    0.978    56 H    0.977
                            24 O    0.933
    26   6 C    3.858 --    29 C    1.624    27 O    1.155    54 H    0.937
    27   8 O    2.298 --    26 C    1.155    28 C    0.971    29 C    0.103
    28   6 C    3.932 --    58 H    0.978    59 H    0.974    60 H    0.974
                            27 O    0.971
    29   6 C    3.922 --    26 C    1.624    20 C    1.177    61 H    0.959
                            27 O    0.103
    30   6 C    3.958 --    17 N    0.998    64 H    0.978    62 H    0.966
                            63 H    0.961
    31   6 C    3.974 --    33 C    1.009    32 C    1.008    65 H    0.961
                             3 C    0.943
    32   6 C    3.981 --    31 C    1.008    67 H    0.982    68 H    0.982
                            66 H    0.975
    33   6 C    3.983 --    31 C    1.009    70 H    0.983    71 H    0.980
                            69 H    0.976
    34   1 H    0.996 --     5 C    0.958
    35   1 H    0.994 --     8 C    0.974
    36   1 H    0.993 --     8 C    0.977
    37   1 H    0.994 --     8 C    0.974
    38   1 H    0.993 --    11 C    0.974
    39   1 H    0.993 --    11 C    0.977
    40   1 H    0.994 --    11 C    0.974
    41   1 H    0.996 --    12 C    0.964
    42   1 H    0.998 --    13 C    0.963
    43   1 H    0.995 --    14 C    0.968
    44   1 H    0.996 --    14 C    0.973
    45   1 H    0.995 --    15 C    0.961
    46   1 H    0.970 --    15 C    0.929
    47   1 H    0.987 --     2 C    0.908
    48   1 H    0.995 --    16 C    0.958
    49   1 H    0.990 --    18 C    0.964
    50   1 H    0.995 --    18 C    0.968
    51   1 H    0.996 --    19 C    0.972
    52   1 H    0.995 --    19 C    0.970
    53   1 H    0.993 --    21 C    0.943
    54   1 H    0.993 --    26 C    0.937
    55   1 H    0.993 --    25 C    0.980
    56   1 H    0.992 --    25 C    0.977
    57   1 H    0.992 --    25 C    0.978
    58   1 H    0.993 --    28 C    0.978
    59   1 H    0.994 --    28 C    0.974
    60   1 H    0.992 --    28 C    0.974
    61   1 H    0.997 --    29 C    0.959
    62   1 H    0.984 --    30 C    0.966
    63   1 H    0.988 --    30 C    0.961
    64   1 H    0.994 --    30 C    0.978
    65   1 H    0.993 --    31 C    0.961
    66   1 H    0.992 --    32 C    0.975
    67   1 H    0.997 --    32 C    0.982
    68   1 H    0.994 --    32 C    0.982
    69   1 H    0.993 --    33 C    0.976
    70   1 H    0.997 --    33 C    0.983
    71   1 H    0.994 --    33 C    0.980
    72   1 H    0.971 --     1 N    0.943
 ---------------------------------------------------------------------------

molecular dipole:
                 x           y           z       tot (Debye)
 q only:        1.416       0.086      -0.542
   full:        1.674       0.038      -0.653       4.569

           -------------------------------------------------
          | TOTAL ENERGY              -99.306084465699 Eh   |
          | GRADIENT NORM               0.008950422250 Eh/α |
          | HOMO-LUMO GAP               1.469600104810 eV   |
           -------------------------------------------------

 * finished run on 2024/04/06 at 11:14:35.574
