   * xtb version 6.6.1 (8d0f1dd) compiled by 'conda@1efc2f54142f' on 2023-08-01
          program call               : xtb struc.xyz --opt loose --input .xc1 --gfn2

   ID    Z sym.   atoms
    1    6 C      1, 3, 5-7, 10, 11, 14
    2    7 N      2, 4, 9, 13
    3    8 O      8, 12
    4    1 H      15-25
constraining bond 5 20 to    5.7133300 Å, actual value:    4.6010795 Å

          :  Hamiltonian                  GFN2-xTB          :
 * total energy  :   -44.4567424 Eh     change       -0.6650680E-10 Eh
 * total energy  :   -48.2096539 Eh     change       -0.3752911E+01 Eh
 * total energy  :   -53.7973963 Eh     change       -0.5587742E+01 Eh
 * total energy  :   -61.3367716 Eh     change       -0.7539375E+01 Eh
 * total energy  :   -70.8123453 Eh     change       -0.9475574E+01 Eh
 * total energy  :   -82.0099994 Eh     change       -0.1119765E+02 Eh
 * total energy  :   -86.0715473 Eh     change       -0.4061548E+01 Eh
 * total energy  :   -87.4879847 Eh     change       -0.1416437E+01 Eh
 * total energy  :   -88.8825321 Eh     change       -0.1394547E+01 Eh
 * total energy  :   -89.6463088 Eh     change       -0.7637767E+00 Eh
 * total energy  :   -90.6370929 Eh     change        0.1258051E-01 Eh
 * total energy  :   -90.6498322 Eh     change       -0.1273930E-01 Eh
 * total energy  :   -90.6499162 Eh     change       -0.8402175E-04 Eh
 * total energy  :   -90.6501528 Eh     change       -0.2366140E-03 Eh
 * total energy  :   -90.6502349 Eh     change       -0.8206488E-04 Eh
 * total energy  :   -90.6503372 Eh     change       -0.1023737E-03 Eh
 * total energy  :   -90.6503884 Eh     change       -0.5116225E-04 Eh
 * total energy  :   -90.6504210 Eh     change       -0.3263713E-04 Eh
 * total energy  :   -90.6504632 Eh     change       -0.4214101E-04 Eh
   *** GEOMETRY OPTIMIZATION CONVERGED AFTER 52 ITERATIONS ***

 final structure:
================
25
 xtb: 6.6.1 (8d0f1dd)
C            3.05205172087475        1.09985183413038        0.33584041519807
N            2.08818138852009        0.13460768500354       -0.12340525767131
C            2.29615678821009       -1.15528138098980       -0.26557761953137
N            1.19143564404155       -1.78875602395648       -0.68136804685818
C            0.07232677779653       -0.83652967732956       -0.96642616855696
C            0.77112041276004        0.42728626301371       -0.43258483581536
C            0.05345412334776        1.55454313314374       -0.01937202104141
O            0.45153953009216        2.65088327254069        0.31484209451412
N           -1.38846413886500        1.28174678096160        0.01552606595192
C           -2.22263476561428        2.28923956478067        0.06564977387643
C           -1.89276725974803       -0.05098166290163        0.35862669079664
O           -2.95094993684077       -0.14622741090791        0.90861649337626
N           -1.07276009427544       -1.07079232313184        0.03926482930762
C           -1.51360599264776       -2.43183875869072        0.25608024533975
H            3.52033729380370        0.75829336017255        1.25863863015421
H            3.82490046672314        1.24531442912346       -0.42089707126895
H            2.54734371981781        2.04995218532412        0.51119727138653
H            3.22985774638985       -1.64786615126536       -0.06571133225889
H           -1.83009856021539        3.28417931389827       -0.06782067513859
H           -0.04988155778013       -0.84427636694210       -1.29721080416716
H           -3.26427107625468        2.09772556846020        0.26736501046949
H           -0.78784284434305       -2.96319133270903        0.87156504729023
H           -1.64454108211846       -2.94814820330804       -0.69624434419219
H           -2.46803315631562       -2.40425404320549        0.77764794559408
H            1.14757636674187       -2.76724151361322       -0.91307071885505

          :  Hamiltonian                  GFN2-xTB          :
         :: total energy             -90.650463176190 Eh    ::
         :: gradient norm              0.003605388254 Eh/a0 ::
         :: HOMO-LUMO gap              1.384467252788 eV    ::
         :: SCC energy               -42.667169976135 Eh    ::
         :: -> dispersion             -0.023103138626 Eh    ::
         :: repulsion energy           3.325773873670 Eh    ::

    * Orbital Energies and Occupations

         #    Occupation            Energy/Eh            Energy/eV
      -------------------------------------------------------------
         1        2.0000           -0.9064294             -24.6652
       ...           ...                  ...                  ...
        25        2.0000           -0.6766033             -18.4113
        26        2.0000           -0.6658175             -18.1178
        27        1.9999           -0.6571826             -17.8828
        28        1.9999           -0.6514876             -17.7279
        29        1.9997           -0.6358089             -17.3012
        30        1.9997           -0.6319229             -17.1955
        31        1.9996           -0.6295904             -17.1320
        32        1.9993           -0.6202705             -16.8784
        33        1.9988           -0.6111948             -16.6315
        34        1.9936           -0.5849603             -15.9176
        35        1.9817           -0.5681415             -15.4599
        36        1.9713           -0.5609501             -15.2642
        37        1.6804           -0.5202830             -14.1576 (HOMO)
        38        0.3492           -0.4694048             -12.7732 (LUMO)
        39        0.0263           -0.4256235             -11.5818
        40        0.0007           -0.3680486             -10.0151
        41        0.0001           -0.3342928              -9.0966
        42        0.0000           -0.2515538              -6.8451
        43        0.0000           -0.2303752              -6.2688
        44                         -0.1950371              -5.3072
        45                         -0.1620296              -4.4091
        46                         -0.1524098              -4.1473
        47                         -0.1127720              -3.0687
        48                         -0.0394687              -1.0740
       ...                                ...                  ...
        67                         17.2771992             470.1365
      -------------------------------------------------------------
                  HL-Gap            0.0508782 Eh            1.3845 eV

     #   Z          covCN         q      C6AA      α(0)
     1   6 C        3.693    -0.096    22.520     6.790
     2   7 N        2.781     0.079    19.869     6.620
     3   6 C        2.921     0.077    26.282     8.407
     4   7 N        2.764    -0.124    23.691     7.229
     5   6 C        3.750     0.029    20.148     6.402
     6   6 C        3.064    -0.049    29.138     8.852
     7   6 C        2.765     0.250    22.795     7.819
     8   8 O        0.857    -0.371    21.115     6.161
     9   7 N        2.739    -0.033    21.873     6.946
    10   6 C        2.801     0.019    27.578     8.603
    11   6 C        2.713     0.319    21.580     7.604
    12   8 O        0.859    -0.354    20.781     6.112
    13   7 N        2.731    -0.126    23.729     7.235
    14   6 C        3.697    -0.065    21.917     6.697
    15   1 H        0.925     0.103     1.759     2.074
    16   1 H        0.924     0.108     1.712     2.046
    17   1 H        0.925     0.135     1.496     1.913
    18   1 H        0.926     0.121     1.603     1.980
    19   1 H        0.926     0.146     1.416     1.861
    20   1 H        0.952     0.196     1.118     1.653
    21   1 H        0.926     0.145     1.428     1.869
    22   1 H        0.925     0.079     1.990     2.206
    23   1 H        0.924     0.077     2.008     2.216
    24   1 H        0.925     0.116     1.645     2.005
    25   1 H        0.860     0.217     1.023     1.584

Wiberg/Mayer (AO) data.
largest (>0.10) Wiberg bond orders for each atom

     #   Z sym  total        # sym  WBO       # sym  WBO       # sym  WBO
 ---------------------------------------------------------------------------
     1   6 C    3.913 --     2 N    0.982    15 H    0.964    17 H    0.958
                            16 H    0.956
     2   7 N    3.681 --     3 C    1.411     6 C    1.121     1 C    0.982
                             4 N    0.116
     3   6 C    3.853 --     2 N    1.411     4 N    1.313    18 H    0.947
     4   7 N    3.425 --     3 C    1.313     5 C    0.976    25 H    0.928
                             2 N    0.116
     5   6 C    3.899 --     6 C    0.993     4 N    0.976    20 H    0.930
                            13 N    0.887
     6   6 C    3.674 --     7 C    1.258     2 N    1.121     5 C    0.993
                             8 O    0.113
     7   6 C    3.917 --     8 O    1.643     6 C    1.258     9 N    0.906
     8   8 O    1.954 --     7 C    1.643     6 C    0.113
     9   7 N    3.569 --    10 C    1.527    11 C    0.914     7 C    0.906
    10   6 C    3.525 --     9 N    1.527    19 H    0.953    21 H    0.952
    11   6 C    3.942 --    12 O    1.711    13 N    1.233     9 N    0.914
    12   8 O    2.065 --    11 C    1.711    13 N    0.191
    13   7 N    3.398 --    11 C    1.233    14 C    0.984     5 C    0.887
                            12 O    0.191
    14   6 C    3.930 --    13 N    0.984    22 H    0.970    23 H    0.969
                            24 H    0.963
    15   1 H    0.987 --     1 C    0.964
    16   1 H    0.984 --     1 C    0.956
    17   1 H    0.981 --     1 C    0.958
    18   1 H    0.984 --     3 C    0.947
    19   1 H    0.977 --    10 C    0.953
    20   1 H    0.955 --     5 C    0.930
    21   1 H    0.977 --    10 C    0.952
    22   1 H    0.988 --    14 C    0.970
    23   1 H    0.988 --    14 C    0.969
    24   1 H    0.983 --    14 C    0.963
    25   1 H    0.952 --     4 N    0.928
 ---------------------------------------------------------------------------

molecular dipole:
                 x           y           z       tot (Debye)
 q only:        1.747      -1.333      -0.959
   full:        1.849      -1.694      -1.088       6.948

           -------------------------------------------------
          | TOTAL ENERGY              -90.650463176190 Eh   |
          | GRADIENT NORM               0.003605388254 Eh/α |
          | HOMO-LUMO GAP               1.384467252788 eV   |
           -------------------------------------------------

 * finished run on 2024/06/05 at 19:58:08.731
