   * xtb version 6.6.1 (8d0f1dd) compiled by 'conda@1efc2f54142f' on 2023-08-01
          program call               : xtb xtbopt.xyz --opt crude --input .xc2 --gfn2

   ID    Z sym.   atoms
    1    6 C      1, 3, 5-7, 10, 11, 14
    2    7 N      2, 4, 9, 13
    3    8 O      8, 12
    4    1 H      15-25
########################################################################
[WARNING] Please study the warnings concerning your input carefully
-1- readin_getIntValue: could not parse ''
########################################################################

          :  Hamiltonian                  GFN2-xTB          :
 * total energy  :   -39.3412180 Eh     change       -0.9947598E-13 Eh
 * total energy  :   -42.1353400 Eh     change       -0.2794122E+01 Eh
 * total energy  :   -42.1533640 Eh     change       -0.1802403E-01 Eh
 * total energy  :   -42.1598192 Eh     change       -0.6455232E-02 Eh
 * total energy  :   -42.1609136 Eh     change       -0.1094322E-02 Eh
 * total energy  :   -42.1620599 Eh     change       -0.1146343E-02 Eh
 * total energy  :   -42.1636283 Eh     change       -0.1568421E-02 Eh
 * total energy  :   -42.1650593 Eh     change       -0.1430959E-02 Eh
 * total energy  :   -42.1658562 Eh     change       -0.7968936E-03 Eh
 * total energy  :   -42.1660454 Eh     change       -0.1892623E-03 Eh
   *** GEOMETRY OPTIMIZATION CONVERGED AFTER 10 ITERATIONS ***

 final structure:
================
25
 xtb: 6.6.1 (8d0f1dd)
C            3.08813363172333        1.12918441428007        0.30371218519558
N            2.11575915025011        0.14545626923082       -0.09449179933740
C            2.32437703901780       -1.14736033683792       -0.22581278953678
N            1.19867694353576       -1.79712081990726       -0.56031144557866
C            0.11685691600574       -0.85953865761108       -0.74907268511826
C            0.78346623759133        0.41792676450045       -0.34552138312037
C            0.06337415727723        1.55126288822787        0.03495740264059
O            0.45241048453229        2.65975511709787        0.34154498163376
N           -1.37900165681436        1.27285377284203        0.05912302449609
C           -2.21121535039700        2.28521675701695        0.09365705302686
C           -1.90176190886099       -0.05690941153032        0.34247070568257
O           -3.00475768696151       -0.16645215708259        0.79673461938614
N           -1.05181737575901       -1.08384464352560        0.09602857481151
C           -1.53908124970526       -2.44114419245977        0.25406874188270
H            3.63526566752690        0.78543951970574        1.18078493053257
H            3.79636497577698        1.31003100048714       -0.50633406413787
H            2.57213567185887        2.06086601638791        0.53368575847346
H            3.26991574427797       -1.63243170198009       -0.06684120307785
H           -1.80779819894751        3.27926405801718       -0.01234709155829
H           -0.23279038900441       -0.88280697926206       -1.80428607001588
H           -3.26077824967995        2.09678301106341        0.25006829488708
H           -0.86017221866668       -3.00453631552211        0.89314226444216
H           -1.63160444984204       -2.93166198932244       -0.71612133308676
H           -2.51800907335791       -2.39770251879213        0.72621134995631
H            1.14248270272303       -2.77429132342237       -0.79387840457930

          :  Hamiltonian                  GFN2-xTB          :
         :: total energy             -42.166045438165 Eh    ::
         :: gradient norm              0.004574326059 Eh/a0 ::
         :: HOMO-LUMO gap              1.343600677231 eV    ::
         :: SCC energy               -42.676613941390 Eh    ::
         :: -> dispersion             -0.023105602543 Eh    ::
         :: repulsion energy           0.510392314953 Eh    ::

    * Orbital Energies and Occupations

         #    Occupation            Energy/Eh            Energy/eV
      -------------------------------------------------------------
         1        2.0000           -0.8975899             -24.4247
       ...           ...                  ...                  ...
        25        2.0000           -0.6757597             -18.3884
        26        2.0000           -0.6635206             -18.0553
        27        1.9999           -0.6570545             -17.8794
        28        1.9999           -0.6479286             -17.6310
        29        1.9997           -0.6345444             -17.2668
        30        1.9997           -0.6313173             -17.1790
        31        1.9996           -0.6274890             -17.0748
        32        1.9994           -0.6199430             -16.8695
        33        1.9988           -0.6100180             -16.5994
        34        1.9941           -0.5845056             -15.9052
        35        1.9816           -0.5665504             -15.4166
        36        1.9737           -0.5608111             -15.2604
        37        1.6649           -0.5178084             -14.0903 (HOMO)
        38        0.3603           -0.4684320             -12.7467 (LUMO)
        39        0.0278           -0.4249185             -11.5626
        40        0.0007           -0.3662572              -9.9664
        41        0.0001           -0.3277651              -8.9189
        42                         -0.2100980              -5.7171
        43                         -0.1975726              -5.3762
        44                         -0.1665802              -4.5329
        45                         -0.1514877              -4.1222
        46                         -0.1145178              -3.1162
        47                         -0.0990049              -2.6941
        48                         -0.0403687              -1.0985
       ...                                ...                  ...
        67                          0.5470617              14.8863
      -------------------------------------------------------------
                  HL-Gap            0.0493764 Eh            1.3436 eV

     #   Z          covCN         q      C6AA      α(0)
     1   6 C        3.693    -0.095    22.512     6.789
     2   7 N        2.789     0.081    19.828     6.613
     3   6 C        2.959     0.076    26.306     8.413
     4   7 N        2.760    -0.105    23.304     7.170
     5   6 C        3.809     0.098    18.964     6.199
     6   6 C        3.068    -0.044    29.025     8.834
     7   6 C        2.766     0.250    22.804     7.821
     8   8 O        0.857    -0.373    21.151     6.166
     9   7 N        2.740    -0.030    21.825     6.938
    10   6 C        2.803     0.016    27.646     8.614
    11   6 C        2.722     0.317    21.617     7.611
    12   8 O        0.859    -0.353    20.756     6.108
    13   7 N        2.735    -0.101    23.225     7.157
    14   6 C        3.699    -0.068    21.968     6.703
    15   1 H        0.925     0.103     1.758     2.074
    16   1 H        0.924     0.109     1.709     2.044
    17   1 H        0.925     0.135     1.496     1.912
    18   1 H        0.926     0.122     1.595     1.975
    19   1 H        0.926     0.147     1.409     1.856
    20   1 H        0.921     0.078     2.005     2.215
    21   1 H        0.926     0.145     1.427     1.868
    22   1 H        0.925     0.081     1.968     2.194
    23   1 H        0.924     0.075     2.032     2.229
    24   1 H        0.925     0.118     1.626     1.994
    25   1 H        0.860     0.219     1.015     1.578

Wiberg/Mayer (AO) data.
largest (>0.10) Wiberg bond orders for each atom

     #   Z sym  total        # sym  WBO       # sym  WBO       # sym  WBO
 ---------------------------------------------------------------------------
     1   6 C    3.914 --     2 N    0.984    15 H    0.965    17 H    0.959
                            16 H    0.955
     2   7 N    3.681 --     3 C    1.407     6 C    1.124     1 C    0.984
                             4 N    0.115
     3   6 C    3.847 --     2 N    1.407     4 N    1.308    18 H    0.949
     4   7 N    3.429 --     3 C    1.308     5 C    0.995    25 H    0.926
                             2 N    0.115
     5   6 C    3.956 --     6 C    1.000     4 N    0.995    13 N    0.952
                            20 H    0.921
     6   6 C    3.679 --     7 C    1.264     2 N    1.124     5 C    1.000
                             8 O    0.111
     7   6 C    3.917 --     8 O    1.637     6 C    1.264     9 N    0.906
     8   8 O    1.944 --     7 C    1.637     6 C    0.111
     9   7 N    3.575 --    10 C    1.515    11 C    0.932     7 C    0.906
    10   6 C    3.516 --     9 N    1.515    21 H    0.953    19 H    0.952
    11   6 C    3.940 --    12 O    1.713    13 N    1.212     9 N    0.932
    12   8 O    2.060 --    11 C    1.713    13 N    0.187
    13   7 N    3.418 --    11 C    1.212    14 C    0.978     5 C    0.952
                            12 O    0.187
    14   6 C    3.929 --    13 N    0.978    22 H    0.971    23 H    0.970
                            24 H    0.966
    15   1 H    0.987 --     1 C    0.965
    16   1 H    0.984 --     1 C    0.955
    17   1 H    0.981 --     1 C    0.959
    18   1 H    0.984 --     3 C    0.949
    19   1 H    0.977 --    10 C    0.952
    20   1 H    0.964 --     5 C    0.921
    21   1 H    0.977 --    10 C    0.953
    22   1 H    0.988 --    14 C    0.971
    23   1 H    0.989 --    14 C    0.970
    24   1 H    0.984 --    14 C    0.966
    25   1 H    0.952 --     4 N    0.926
 ---------------------------------------------------------------------------

molecular dipole:
                 x           y           z       tot (Debye)
 q only:        1.820      -1.362      -0.784
   full:        1.923      -1.738      -1.028       7.087

           -------------------------------------------------
          | TOTAL ENERGY              -42.166045438165 Eh   |
          | GRADIENT NORM               0.004574326059 Eh/α |
          | HOMO-LUMO GAP               1.343600677231 eV   |
           -------------------------------------------------

 * finished run on 2024/06/05 at 19:58:09.154
