   * xtb version 6.6.1 (8d0f1dd) compiled by 'conda@1efc2f54142f' on 2023-08-01
          program call               : xtb struc.xyz --opt loose --input .xc1 --gfn2

   ID    Z sym.   atoms
    1    7 N      1, 17
    2    6 C      2-6, 8, 9, 11-16, 18-23, 25, 26, 28-33
    3    8 O      7, 10, 24, 27
    4    1 H      34-72
constraining bond 1 67 to    5.6866700 Å, actual value:    3.5500322 Å

          :  Hamiltonian                  GFN2-xTB          :
 * total energy  :  -100.2192658 Eh     change       -0.4035485E-08 Eh
 * total energy  :  -100.7744763 Eh     change       -0.5552105E+00 Eh
 * total energy  :  -101.4430433 Eh     change       -0.6685670E+00 Eh
 * total energy  :  -102.2272177 Eh     change       -0.7841743E+00 Eh
 * total energy  :  -103.1669689 Eh     change       -0.9397513E+00 Eh
 * total energy  :   -90.0287641 Eh     change        0.1313820E+02 Eh
 * total energy  :  -103.2512344 Eh     change       -0.1322247E+02 Eh
 * total energy  :  -103.3197108 Eh     change       -0.6847644E-01 Eh
 * total energy  :  -103.4406614 Eh     change       -0.1209505E+00 Eh
 * total energy  :  -103.5051234 Eh     change       -0.6446204E-01 Eh
 * total energy  :  -103.6050507 Eh     change       -0.1012960E-03 Eh
 * total energy  :  -103.6051418 Eh     change       -0.9114695E-04 Eh
 * total energy  :  -103.6052352 Eh     change       -0.9339497E-04 Eh
 * total energy  :  -103.6053181 Eh     change       -0.8292030E-04 Eh
 * total energy  :  -103.6054097 Eh     change       -0.9154651E-04 Eh
 * total energy  :  -103.6054989 Eh     change       -0.8918865E-04 Eh
 * total energy  :  -103.6055831 Eh     change       -0.8426589E-04 Eh
 * total energy  :  -103.6056418 Eh     change       -0.5867451E-04 Eh
 * total energy  :  -103.6056830 Eh     change       -0.4116308E-04 Eh
   *** GEOMETRY OPTIMIZATION CONVERGED AFTER 43 ITERATIONS ***

 final structure:
================
72
 xtb: 6.6.1 (8d0f1dd)
N           -2.18511499820906        2.05565445267074        2.40456255401511
C           -1.87534720840130        2.21021062486892        1.08766738383159
C           -2.89000202268287        1.85814166323517        0.10796893612751
C           -3.44884811798149        0.45095906777794        0.23211805480264
C           -4.52011621233883        0.05353913758379       -0.57265731160847
C           -5.05066321016866       -1.22291624610894       -0.50545098459047
O           -6.07894326426753       -1.68017629328996       -1.25358307186978
C           -6.72198402476694       -0.80521744290806       -2.14894361205196
C           -4.49937976545586       -2.16166746310618        0.40542522069836
O           -5.08831487179546       -3.37599776019261        0.42292033685882
C           -4.64238893838444       -4.33460132939631        1.35324867151861
C           -3.41903178628439       -1.77466205705363        1.17832969817777
C           -2.89565465409310       -0.48948247484800        1.08570455451292
C           -2.39886008025616        2.10017747012117       -1.32615144737749
C           -1.43295955125606        1.00007582272451       -1.79880086368459
C           -0.16626558569035        1.00788201421761       -1.03744643286218
N            0.45565943029341       -0.06109158106888       -0.54232152764402
C            1.82601648442938        0.04793798533467       -0.10058379276662
C            2.80754046630231       -0.34263463622496       -1.22365643267656
C            4.22821270849496       -0.10908018232133       -0.79543241921343
C            4.83552701994910        1.11763165712826       -1.00108141371473
C            6.14829925359601        1.33365452470129       -0.61007887712895
C            6.87826052018865        0.32552214662994        0.00095183135441
O            8.16117485113848        0.42021987282871        0.40602975857992
C            8.86491734643050        1.61735313978098        0.17029929687605
C            6.25841439343370       -0.93181428837129        0.23097788614888
O            7.03675930487431       -1.85675649823430        0.83347388208567
C            6.51781129466309       -3.14494332160821        1.05953683505856
C            4.94625053930958       -1.12485535326246       -0.16816260928547
C           -0.07588935463820       -1.39416839460956       -0.68640342216212
C           -4.16647880690396        2.89201365000810        0.45332246673442
C           -4.68766562871883        2.64061962962000        1.77162352216084
C           -3.77593661551079        4.35070484375368        0.25227541441745
H           -4.95300723170632        0.75376339513050       -1.26773879224876
H           -7.14443468461262        0.06157842527268       -1.63156272187477
H           -7.52835054436577       -1.38430984154234       -2.59389484056379
H           -6.04377905164856       -0.46784308576061       -2.93918927049175
H           -4.75172620348692       -3.97495841597507        2.38137444621246
H           -5.28023929161776       -5.20413586977649        1.20577218041792
H           -3.60008555813626       -4.61760566512141        1.17316516545233
H           -2.96711637392249       -2.46837296759170        1.86855945885094
H           -2.03699098827847       -0.24901076213298        1.69250893248311
H           -3.24513199250421        2.12766325772119       -2.01003591797657
H           -1.88784015614355        3.06029651602057       -1.38225060615283
H           -1.92579833642108        0.03120303375777       -1.75208108344697
H           -1.20243448044852        1.20486337159042       -2.85288822568694
H           -1.09320119150026        2.90521741301263        0.83998935694429
H            0.35615653309538        1.94662387709462       -0.94454290530808
H            1.97934017078869       -0.60268854439633        0.76378939149336
H            2.02600025879855        1.07652324210273        0.20517719340543
H            2.58259509037103        0.26307231732476       -2.10363646939979
H            2.66392310972454       -1.39258105522294       -1.48123108938364
H            4.29328135425860        1.91500363594423       -1.48648464705765
H            6.59807442711092        2.29515354953513       -0.79570048501545
H            8.41059151121266        2.46139432242537        0.69845452258460
H            8.92301247397842        1.84362012464565       -0.89883929444909
H            9.86761965571124        1.44781845241733        0.55783166351489
H            7.32679226867161       -3.70995113261822        1.51827207809504
H            5.66272481742418       -3.11951626482287        1.74308871282152
H            6.22404210497770       -3.62988814419145        0.12333641263692
H            4.46942701646102       -2.07960888329455       -0.01051448447805
H           -0.03502481999333       -1.73121274663206       -1.72524352138112
H           -1.11224423881073       -1.42707049255417       -0.34785465680333
H            0.50880041547707       -2.07817086180988       -0.07567986500877
H           -4.88441229859716        2.59402448724038       -0.31397346504041
H           -4.60871111462470        3.37568519236213        2.54869646181947
H           -2.75031972308204        1.69952150234987        2.59970898117308
H           -5.17654578296870        1.71205831651406        1.99906955052829
H           -3.01971276590382        4.66004454253718        0.96778375589402
H           -3.40983082180224        4.53937853013486       -0.75200207128529
H           -4.65545983149075        4.97084618146079        0.40552644360493
H           -1.61846704429308        2.58347818896806        3.05882246239104

          :  Hamiltonian                  GFN2-xTB          :
         :: total energy            -103.605682969419 Eh    ::
         :: gradient norm              0.003127931358 Eh/a0 ::
         :: HOMO-LUMO gap              0.865770615067 eV    ::
         :: SCC energy              -100.755084839428 Eh    ::
         :: -> dispersion             -0.075740883897 Eh    ::
         :: repulsion energy           1.595370343708 Eh    ::

    * Orbital Energies and Occupations

         #    Occupation            Energy/Eh            Energy/eV
      -------------------------------------------------------------
         1        2.0000           -0.8017532             -21.8168
       ...           ...                  ...                  ...
        78        1.9994           -0.5307656             -14.4429
        79        1.9993           -0.5275153             -14.3544
        80        1.9991           -0.5235670             -14.2470
        81        1.9990           -0.5223073             -14.2127
        82        1.9990           -0.5220376             -14.2054
        83        1.9988           -0.5186760             -14.1139
        84        1.9984           -0.5142200             -13.9926
        85        1.9980           -0.5102708             -13.8852
        86        1.9903           -0.4855339             -13.2120
        87        1.9845           -0.4780565             -13.0086
        88        1.9338           -0.4546593             -12.3719
        89        1.8883           -0.4460029             -12.1364
        90        1.4722           -0.4174673             -11.3599 (HOMO)
        91        0.5443           -0.3856508             -10.4941 (LUMO)
        92        0.1792           -0.3645116              -9.9189
        93        0.0069           -0.3114953              -8.4762
        94        0.0058           -0.3088478              -8.4042
        95        0.0037           -0.3018297              -8.2132
        96        0.0032           -0.2992912              -8.1441
        97        0.0000           -0.1870839              -5.0908
        98        0.0000           -0.1764733              -4.8021
        99                         -0.1225356              -3.3344
       100                         -0.1129492              -3.0735
       101                         -0.0616745              -1.6782
       ...                                ...                  ...
       171                          1.2600864              34.2887
      -------------------------------------------------------------
                  HL-Gap            0.0318165 Eh            0.8658 eV

     #   Z          covCN         q      C6AA      α(0)
     1   7 N        2.638    -0.226    25.941     7.564
     2   6 C        2.832    -0.004    28.123     8.690
     3   6 C        3.879     0.007    20.408     6.423
     4   6 C        2.969    -0.004    28.119     8.698
     5   6 C        2.922    -0.081    30.024     8.986
     6   6 C        2.862     0.128    25.189     8.227
     7   8 O        1.706    -0.236    17.908     5.714
     8   6 C        3.644     0.030    20.409     6.494
     9   6 C        2.864     0.127    25.210     8.230
    10   8 O        1.706    -0.235    17.891     5.711
    11   6 C        3.646     0.029    20.420     6.494
    12   6 C        2.914    -0.079    29.962     8.976
    13   6 C        2.922    -0.064    29.582     8.919
    14   6 C        3.811    -0.068    21.791     6.645
    15   6 C        3.803    -0.068    21.796     6.647
    16   6 C        2.845    -0.008    28.210     8.705
    17   7 N        2.729     0.008    21.125     6.826
    18   6 C        3.757    -0.018    20.946     6.525
    19   6 C        3.808    -0.070    21.837     6.652
    20   6 C        2.969    -0.003    28.088     8.693
    21   6 C        2.922    -0.051    29.266     8.872
    22   6 C        2.914    -0.069    29.724     8.940
    23   6 C        2.865     0.131    25.132     8.218
    24   8 O        1.706    -0.229    17.796     5.696
    25   6 C        3.646     0.027    20.449     6.499
    26   6 C        2.863     0.131    25.136     8.218
    27   8 O        1.706    -0.231    17.833     5.702
    28   6 C        3.645     0.029    20.418     6.494
    29   6 C        2.920    -0.081    30.016     8.984
    30   6 C        3.700    -0.072    22.046     6.715
    31   6 C        3.824    -0.008    20.704     6.475
    32   6 C        2.840    -0.123    31.114     9.141
    33   6 C        3.757    -0.115    22.757     6.801
    34   1 H        0.926     0.046     2.364     2.404
    35   1 H        0.924     0.049     2.335     2.390
    36   1 H        0.925     0.079     1.992     2.207
    37   1 H        0.924     0.045     2.379     2.412
    38   1 H        0.924     0.050     2.316     2.380
    39   1 H        0.925     0.079     1.992     2.207
    40   1 H        0.924     0.046     2.375     2.410
    41   1 H        0.926     0.046     2.366     2.405
    42   1 H        0.926     0.036     2.505     2.475
    43   1 H        0.925     0.058     2.227     2.334
    44   1 H        0.925     0.053     2.279     2.361
    45   1 H        0.925     0.064     2.156     2.296
    46   1 H        0.923     0.075     2.032     2.229
    47   1 H        0.926     0.048     2.340     2.392
    48   1 H        0.926     0.061     2.185     2.311
    49   1 H        0.924     0.065     2.143     2.289
    50   1 H        0.924     0.066     2.134     2.285
    51   1 H        0.924     0.052     2.294     2.369
    52   1 H        0.924     0.054     2.276     2.359
    53   1 H        0.926     0.041     2.437     2.441
    54   1 H        0.926     0.054     2.265     2.353
    55   1 H        0.924     0.051     2.311     2.378
    56   1 H        0.924     0.052     2.289     2.366
    57   1 H        0.925     0.079     1.989     2.205
    58   1 H        0.925     0.079     1.993     2.207
    59   1 H        0.924     0.046     2.373     2.409
    60   1 H        0.924     0.050     2.326     2.385
    61   1 H        0.926     0.044     2.390     2.418
    62   1 H        0.924     0.072     2.061     2.245
    63   1 H        0.924     0.081     1.968     2.194
    64   1 H        0.925     0.076     2.023     2.224
    65   1 H        0.924     0.067     2.118     2.276
    66   1 H        0.926     0.042     2.416     2.431
    67   1 H        0.864     0.230     0.966     1.540
    68   1 H        0.926     0.031     2.565     2.505
    69   1 H        0.925     0.042     2.422     2.434
    70   1 H        0.925     0.042     2.418     2.432
    71   1 H        0.925     0.057     2.237     2.339
    72   1 H        0.860     0.186     1.182     1.703

Wiberg/Mayer (AO) data.
largest (>0.10) Wiberg bond orders for each atom

     #   Z sym  total        # sym  WBO       # sym  WBO       # sym  WBO
 ---------------------------------------------------------------------------
     1   7 N    3.321 --     2 C    1.289    72 H    0.947    67 H    0.930
     2   6 C    3.595 --     1 N    1.289     3 C    1.126    47 H    0.967
                            32 C    0.130
     3   6 C    3.937 --     2 C    1.126    14 C    0.981     4 C    0.979
                            31 C    0.741
     4   6 C    3.955 --    13 C    1.423     5 C    1.365     3 C    0.979
     5   6 C    3.967 --     6 C    1.408     4 C    1.365    34 H    0.955
     6   6 C    3.918 --     5 C    1.408     9 C    1.228     7 O    1.093
     7   8 O    2.259 --     6 C    1.093     8 C    0.980
     8   6 C    3.936 --     7 O    0.980    36 H    0.977    37 H    0.974
                            35 H    0.974
     9   6 C    3.916 --    12 C    1.400     6 C    1.228    10 O    1.095
    10   8 O    2.258 --     9 C    1.095    11 C    0.979
    11   6 C    3.935 --    10 O    0.979    39 H    0.977    38 H    0.975
                            40 H    0.975
    12   6 C    3.969 --     9 C    1.400    13 C    1.394    41 H    0.964
    13   6 C    3.965 --     4 C    1.423    12 C    1.394    42 H    0.965
    14   6 C    3.973 --     3 C    0.981    15 C    0.979    43 H    0.971
                            44 H    0.971
    15   6 C    3.987 --    16 C    1.059    14 C    0.979    45 H    0.963
                            46 H    0.931
    16   6 C    3.524 --    17 N    1.379    15 C    1.059    48 H    0.959
    17   7 N    3.438 --    16 C    1.379    30 C    1.000    18 C    0.990
    18   6 C    3.957 --    17 N    0.990    50 H    0.968    49 H    0.966
                            19 C    0.965
    19   6 C    3.975 --    20 C    1.008    52 H    0.972    51 H    0.972
                            18 C    0.965
    20   6 C    3.953 --    21 C    1.416    29 C    1.376    19 C    1.008
    21   6 C    3.958 --    20 C    1.416    22 C    1.413    53 H    0.969
    22   6 C    3.965 --    21 C    1.413    23 C    1.390    54 H    0.964
    23   6 C    3.905 --    22 C    1.390    26 C    1.228    24 O    1.101
    24   8 O    2.254 --    23 C    1.101    25 C    0.978
    25   6 C    3.932 --    24 O    0.978    57 H    0.977    56 H    0.974
                            55 H    0.974
    26   6 C    3.908 --    29 C    1.401    23 C    1.228    27 O    1.095
    27   8 O    2.253 --    26 C    1.095    28 C    0.980
    28   6 C    3.936 --    27 O    0.980    58 H    0.977    59 H    0.974
                            60 H    0.974
    29   6 C    3.964 --    26 C    1.401    20 C    1.376    61 H    0.963
    30   6 C    3.959 --    17 N    1.000    64 H    0.978    62 H    0.966
                            63 H    0.959
    31   6 C    3.953 --    32 C    1.207    33 C    1.012    65 H    0.922
                             3 C    0.741
    32   6 C    3.420 --    31 C    1.207    68 H    0.982    66 H    0.982
                             2 C    0.130
    33   6 C    3.991 --    31 C    1.012    69 H    0.985    70 H    0.983
                            71 H    0.979
    34   1 H    0.997 --     5 C    0.955
    35   1 H    0.996 --     8 C    0.974
    36   1 H    0.993 --     8 C    0.977
    37   1 H    0.996 --     8 C    0.974
    38   1 H    0.995 --    11 C    0.975
    39   1 H    0.993 --    11 C    0.977
    40   1 H    0.995 --    11 C    0.975
    41   1 H    0.996 --    12 C    0.964
    42   1 H    0.998 --    13 C    0.965
    43   1 H    0.995 --    14 C    0.971
    44   1 H    0.996 --    14 C    0.971
    45   1 H    0.995 --    15 C    0.963
    46   1 H    0.967 --    15 C    0.931
    47   1 H    0.995 --     2 C    0.967
    48   1 H    0.996 --    16 C    0.959
    49   1 H    0.992 --    18 C    0.966
    50   1 H    0.994 --    18 C    0.968
    51   1 H    0.996 --    19 C    0.972
    52   1 H    0.996 --    19 C    0.972
    53   1 H    0.998 --    21 C    0.969
    54   1 H    0.996 --    22 C    0.964
    55   1 H    0.994 --    25 C    0.974
    56   1 H    0.993 --    25 C    0.974
    57   1 H    0.993 --    25 C    0.977
    58   1 H    0.993 --    28 C    0.977
    59   1 H    0.995 --    28 C    0.974
    60   1 H    0.994 --    28 C    0.974
    61   1 H    0.997 --    29 C    0.963
    62   1 H    0.983 --    30 C    0.966
    63   1 H    0.987 --    30 C    0.959
    64   1 H    0.994 --    30 C    0.978
    65   1 H    0.974 --    31 C    0.922
    66   1 H    0.998 --    32 C    0.982
    67   1 H    0.947 --     1 N    0.930
    68   1 H    0.999 --    32 C    0.982
    69   1 H    0.998 --    33 C    0.985
    70   1 H    0.997 --    33 C    0.983
    71   1 H    0.995 --    33 C    0.979
    72   1 H    0.963 --     1 N    0.947
 ---------------------------------------------------------------------------

molecular dipole:
                 x           y           z       tot (Debye)
 q only:       -0.152       0.820       0.170
   full:       -0.252       1.046       0.196       2.780

           -------------------------------------------------
          | TOTAL ENERGY             -103.605682969419 Eh   |
          | GRADIENT NORM               0.003127931358 Eh/α |
          | HOMO-LUMO GAP               0.865770615067 eV   |
           -------------------------------------------------

 * finished run on 2024/04/06 at 11:15:27.090
