   * xtb version 6.6.1 (8d0f1dd) compiled by 'conda@1efc2f54142f' on 2023-08-01
          program call               : xtb xtbopt.xyz --opt crude --input .xc2 --gfn2

   ID    Z sym.   atoms
    1    7 N      1, 17
    2    6 C      2-6, 8, 9, 11-16, 18-23, 25, 26, 28-33
    3    8 O      7, 10, 24, 27
    4    1 H      34-72
########################################################################
[WARNING] Please study the warnings concerning your input carefully
-1- readin_getIntValue: could not parse ''
########################################################################

          :  Hamiltonian                  GFN2-xTB          :
 * total energy  :   -99.1584364 Eh     change        0.1094236E-11 Eh
 * total energy  :   -99.3400574 Eh     change       -0.1816210E+00 Eh
 * total energy  :   -99.3417811 Eh     change       -0.1723710E-02 Eh
 * total energy  :   -99.3423831 Eh     change       -0.6019337E-03 Eh
 * total energy  :   -99.3434349 Eh     change       -0.1051794E-02 Eh
 * total energy  :   -99.3449273 Eh     change       -0.1492482E-02 Eh
 * total energy  :   -99.3486488 Eh     change       -0.3721445E-02 Eh
 * total energy  :   -99.3596993 Eh     change       -0.1105047E-01 Eh
 * total energy  :   -99.3388119 Eh     change        0.2088736E-01 Eh
 * total energy  :   -99.3706465 Eh     change       -0.3183456E-01 Eh
 * total energy  :   -99.4006209 Eh     change       -0.2095421E-02 Eh
 * total energy  :   -99.4019142 Eh     change       -0.1293294E-02 Eh
 * total energy  :   -99.4023373 Eh     change       -0.4230095E-03 Eh
 * total energy  :   -99.4030223 Eh     change       -0.6850889E-03 Eh
 * total energy  :   -99.4035950 Eh     change       -0.5726212E-03 Eh
 * total energy  :   -99.4044715 Eh     change       -0.8765318E-03 Eh
 * total energy  :   -99.4051060 Eh     change       -0.6344710E-03 Eh
 * total energy  :   -99.4060308 Eh     change       -0.9248284E-03 Eh
 * total energy  :   -99.4064587 Eh     change       -0.4279131E-03 Eh
   *** GEOMETRY OPTIMIZATION CONVERGED AFTER 23 ITERATIONS ***

 final structure:
================
72
 xtb: 6.6.1 (8d0f1dd)
N           -1.68845317828217        1.74922189977097        2.28796956008446
C           -1.76737350484823        2.16412429560514        1.10438424173246
C           -2.91288089821542        1.84583066485204        0.18357508312035
C           -3.49754120160085        0.44332624622979        0.32606657749303
C           -4.55408740478573        0.06851653686291       -0.51008118520413
C           -5.09181682152620       -1.20793833157215       -0.48235306640478
O           -6.10810135189669       -1.64575364495917       -1.25509425833810
C           -6.74223526330990       -0.75416875653488       -2.14022438274770
C           -4.55600665579053       -2.17585506435687        0.40889512526154
O           -5.12390018739893       -3.39725231057618        0.35294078252501
C           -4.68826735289086       -4.39883450551218        1.24209422506203
C           -3.51500595776196       -1.79771229634088        1.24091934858038
C           -2.99647139346315       -0.50971053981987        1.19900926980963
C           -2.42136650799989        2.02213826567015       -1.27238470257010
C           -1.48553013290812        0.89184593402725       -1.72914971548205
C           -0.17004522580827        0.93409396068226       -1.05909731499522
N            0.48136169659365       -0.10594930742266       -0.56303666380698
C            1.85486218894141        0.03263350736700       -0.13860569823359
C            2.83506310918607       -0.35402397941110       -1.26480054856933
C            4.25323267079175       -0.10746956263522       -0.83252270303313
C            4.84565899402486        1.12941882165934       -1.02914708922971
C            6.14941530136529        1.36614758964779       -0.62151203900024
C            6.88728210207584        0.36762435427264       -0.00242254623166
O            8.15799141492350        0.47907646577634        0.42608033621599
C            8.85286073773630        1.68653734591176        0.21432562795378
C            6.28491593576977       -0.90330902339713        0.21206646883479
O            7.07254083406454       -1.81321645517666        0.81860978458776
C            6.58179503932165       -3.11398131276118        1.03841531743436
C            4.97990563121522       -1.11588558967278       -0.20358152389200
C           -0.05912395690524       -1.44295757422103       -0.61943378218592
C           -4.04127132145519        2.89545540513683        0.48773407633280
C           -4.61030973454653        2.71547964900227        1.89273769240384
C           -3.58865590138911        4.34238703729778        0.28567141433335
H           -4.97346871252066        0.78601139526172       -1.19555479889155
H           -7.18561307635349        0.09303066284099       -1.60817862902488
H           -7.53171460391326       -1.33092505950685       -2.61842621930193
H           -6.05078385976103       -0.38725658855793       -2.90575314726413
H           -4.80094766454565       -4.08756351552279        2.28460416829047
H           -5.32793520739401       -5.25808866680913        1.05043389152571
H           -3.64610642708356       -4.67641676296861        1.05335068154622
H           -3.09543801313083       -2.50335211364732        1.93992405802215
H           -2.21082531289231       -0.24708607510135        1.88669106680780
H           -3.27746131936098        2.05191413906114       -1.94503893211730
H           -1.89443963426362        2.97171370371566       -1.36651874121098
H           -1.97846532219184       -0.06890088826086       -1.59424400268810
H           -1.31735644845855        1.03187063033800       -2.80512294302947
H           -1.03712953321039        2.86327200548838        0.67318788532592
H            0.34737852583485        1.88081525433617       -1.02868361758720
H            2.02768052012716       -0.60356471483435        0.73236366575031
H            2.04130524138789        1.06816598019348        0.15245252569803
H            2.60708426102881        0.24922261095344       -2.14540985091709
H            2.69901043103567       -1.40508832049823       -1.52194861440092
H            4.29684727017431        1.91949611247869       -1.51877254131565
H            6.58592676351558        2.33568801971666       -0.79678803457630
H            8.38134822546157        2.51940948677888        0.74474920589308
H            8.92513328105123        1.92494052234367       -0.85101891881715
H            9.85090742369843        1.52243459092362        0.61604693417734
H            7.39837858520082       -3.65826380891941        1.50870914404404
H            5.71734852409060       -3.10886568955511        1.71009931505430
H            6.31354392797190       -3.60560662478394        0.09822959344559
H            4.51802411318199       -2.07955375502154       -0.05558778092341
H           -0.12274212305457       -1.79882666660849       -1.65045911973621
H           -1.05668865087086       -1.46705723548582       -0.17655301841400
H            0.58521611877959       -2.11517621203359       -0.05879394837225
H           -4.84604256727261        2.70132905744836       -0.22733776522378
H           -5.34784461281899        3.49049336320163        2.08960213187435
H           -3.83014964299918        2.78393447602443        2.65036550843015
H           -5.09371001654797        1.74725759753068        1.99381306163209
H           -2.77621806055275        4.60254490870893        0.95940147105210
H           -3.27602477131082        4.53263833924390       -0.73833054891645
H           -4.42334741391776        5.00695011990710        0.49790479710713
H           -0.90660632433472        2.09275951871451        2.83980919780276

          :  Hamiltonian                  GFN2-xTB          :
         :: total energy             -99.406458707505 Eh    ::
         :: gradient norm              0.004167542005 Eh/a0 ::
         :: HOMO-LUMO gap              1.629382958167 eV    ::
         :: SCC energy              -100.783305875085 Eh    ::
         :: -> dispersion             -0.075064339080 Eh    ::
         :: repulsion energy           1.375588634446 Eh    ::

    * Orbital Energies and Occupations

         #    Occupation            Energy/Eh            Energy/eV
      -------------------------------------------------------------
         1        2.0000           -0.8061537             -21.9366
       ...           ...                  ...                  ...
        78        1.9987           -0.5324147             -14.4877
        79        1.9984           -0.5294995             -14.4084
        80        1.9983           -0.5280133             -14.3680
        81        1.9973           -0.5209605             -14.1761
        82        1.9971           -0.5195706             -14.1382
        83        1.9967           -0.5175581             -14.0835
        84        1.9961           -0.5148569             -14.0100
        85        1.9945           -0.5093013             -13.8588
        86        1.9787           -0.4878967             -13.2763
        87        1.9763           -0.4861536             -13.2289
        88        1.9384           -0.4707313             -12.8092
        89        1.8456           -0.4553992             -12.3920
        90        1.8442           -0.4552420             -12.3878 (HOMO)
        91        0.4248           -0.3953633             -10.7584 (LUMO)
        92        0.0127           -0.3361306              -9.1466
        93        0.0028           -0.3122555              -8.4969
        94        0.0028           -0.3118460              -8.4858
        95        0.0024           -0.3095776              -8.4240
        96        0.0021           -0.3078534              -8.3771
        97        0.0000           -0.1870016              -5.0886
        98        0.0000           -0.1860597              -5.0629
        99                         -0.1326871              -3.6106
       100                         -0.0744990              -2.0272
       101                         -0.0627039              -1.7063
       ...                                ...                  ...
       171                          0.5780109              15.7285
      -------------------------------------------------------------
                  HL-Gap            0.0598787 Eh            1.6294 eV

     #   Z          covCN         q      C6AA      α(0)
     1   7 N        1.774    -0.289    28.317     7.880
     2   6 C        2.825     0.097    25.846     8.330
     3   6 C        3.906     0.005    20.430     6.425
     4   6 C        2.968     0.008    27.833     8.654
     5   6 C        2.922    -0.079    29.987     8.980
     6   6 C        2.861     0.129    25.164     8.222
     7   8 O        1.706    -0.229    17.804     5.697
     8   6 C        3.644     0.028    20.442     6.499
     9   6 C        2.863     0.129    25.169     8.223
    10   8 O        1.706    -0.228    17.776     5.692
    11   6 C        3.645     0.027    20.460     6.501
    12   6 C        2.914    -0.074    29.856     8.960
    13   6 C        2.922    -0.055    29.377     8.888
    14   6 C        3.812    -0.068    21.786     6.644
    15   6 C        3.803    -0.069    21.815     6.649
    16   6 C        2.847     0.005    27.904     8.657
    17   7 N        2.729     0.020    20.895     6.789
    18   6 C        3.757    -0.019    20.960     6.528
    19   6 C        3.808    -0.070    21.839     6.652
    20   6 C        2.968    -0.000    28.032     8.685
    21   6 C        2.922    -0.049    29.213     8.863
    22   6 C        2.914    -0.068    29.681     8.934
    23   6 C        2.865     0.134    25.078     8.209
    24   8 O        1.706    -0.222    17.679     5.677
    25   6 C        3.645     0.025    20.489     6.506
    26   6 C        2.863     0.133    25.085     8.210
    27   8 O        1.706    -0.224    17.723     5.684
    28   6 C        3.645     0.027    20.457     6.501
    29   6 C        2.919    -0.079    29.985     8.980
    30   6 C        3.701    -0.074    22.088     6.721
    31   6 C        3.855    -0.008    20.690     6.469
    32   6 C        3.754    -0.114    22.742     6.800
    33   6 C        3.754    -0.112    22.701     6.794
    34   1 H        0.926     0.049     2.330     2.387
    35   1 H        0.924     0.053     2.281     2.362
    36   1 H        0.925     0.081     1.972     2.196
    37   1 H        0.924     0.047     2.354     2.399
    38   1 H        0.924     0.056     2.252     2.347
    39   1 H        0.925     0.081     1.970     2.195
    40   1 H        0.924     0.048     2.344     2.394
    41   1 H        0.926     0.051     2.301     2.372
    42   1 H        0.926     0.070     2.087     2.259
    43   1 H        0.925     0.056     2.251     2.346
    44   1 H        0.925     0.052     2.292     2.367
    45   1 H        0.925     0.066     2.133     2.284
    46   1 H        0.923     0.081     1.974     2.197
    47   1 H        0.923     0.008     2.929     2.676
    48   1 H        0.926     0.069     2.094     2.263
    49   1 H        0.924     0.071     2.078     2.255
    50   1 H        0.924     0.069     2.099     2.266
    51   1 H        0.924     0.054     2.266     2.354
    52   1 H        0.924     0.056     2.247     2.344
    53   1 H        0.926     0.044     2.390     2.418
    54   1 H        0.926     0.058     2.219     2.329
    55   1 H        0.924     0.054     2.266     2.354
    56   1 H        0.924     0.056     2.250     2.346
    57   1 H        0.925     0.082     1.954     2.186
    58   1 H        0.925     0.082     1.959     2.189
    59   1 H        0.924     0.049     2.330     2.387
    60   1 H        0.924     0.052     2.290     2.367
    61   1 H        0.926     0.048     2.350     2.397
    62   1 H        0.924     0.077     2.006     2.215
    63   1 H        0.924     0.085     1.925     2.170
    64   1 H        0.925     0.081     1.964     2.192
    65   1 H        0.924     0.044     2.401     2.423
    66   1 H        0.925     0.052     2.300     2.372
    67   1 H        0.925     0.055     2.263     2.352
    68   1 H        0.925     0.045     2.390     2.417
    69   1 H        0.925     0.040     2.455     2.450
    70   1 H        0.925     0.038     2.471     2.458
    71   1 H        0.925     0.053     2.277     2.360
    72   1 H        0.860     0.152     1.390     1.847

Wiberg/Mayer (AO) data.
largest (>0.10) Wiberg bond orders for each atom

     #   Z sym  total        # sym  WBO       # sym  WBO       # sym  WBO
 ---------------------------------------------------------------------------
     1   7 N    3.002 --     2 C    1.923    72 H    0.945
     2   6 C    3.937 --     1 N    1.923     3 C    1.006    47 H    0.933
     3   6 C    3.979 --     2 C    1.006     4 C    0.978    14 C    0.971
                            31 C    0.916
     4   6 C    3.941 --    13 C    1.413     5 C    1.370     3 C    0.978
     5   6 C    3.958 --     6 C    1.401     4 C    1.370    34 H    0.956
     6   6 C    3.898 --     5 C    1.401     9 C    1.220     7 O    1.098
     7   8 O    2.249 --     6 C    1.098     8 C    0.979
     8   6 C    3.932 --     7 O    0.979    36 H    0.977    37 H    0.973
                            35 H    0.973
     9   6 C    3.894 --    12 C    1.389     6 C    1.220    10 O    1.102
    10   8 O    2.248 --     9 C    1.102    11 C    0.978
    11   6 C    3.931 --    10 O    0.978    39 H    0.977    40 H    0.973
                            38 H    0.973
    12   6 C    3.959 --    13 C    1.405     9 C    1.389    41 H    0.964
    13   6 C    3.942 --     4 C    1.413    12 C    1.405    42 H    0.951
    14   6 C    3.972 --    15 C    0.981    43 H    0.971     3 C    0.971
                            44 H    0.969
    15   6 C    3.987 --    16 C    1.063    14 C    0.981    45 H    0.961
                            46 H    0.926
    16   6 C    3.574 --    17 N    1.423    15 C    1.063    48 H    0.957
    17   7 N    3.481 --    16 C    1.423    30 C    0.998    18 C    0.988
    18   6 C    3.954 --    17 N    0.988    50 H    0.968    19 C    0.965
                            49 H    0.965
    19   6 C    3.976 --    20 C    1.008    52 H    0.972    51 H    0.972
                            18 C    0.965
    20   6 C    3.945 --    21 C    1.409    29 C    1.379    19 C    1.008
    21   6 C    3.950 --    22 C    1.417    20 C    1.409    53 H    0.968
    22   6 C    3.960 --    21 C    1.417    23 C    1.384    54 H    0.963
    23   6 C    3.895 --    22 C    1.384    26 C    1.219    24 O    1.110
    24   8 O    2.255 --    23 C    1.110    25 C    0.976
    25   6 C    3.928 --    57 H    0.977    24 O    0.976    56 H    0.973
                            55 H    0.973
    26   6 C    3.899 --    29 C    1.395    23 C    1.219    27 O    1.104
    27   8 O    2.255 --    26 C    1.104    28 C    0.978
    28   6 C    3.932 --    27 O    0.978    58 H    0.977    59 H    0.973
                            60 H    0.973
    29   6 C    3.959 --    26 C    1.395    20 C    1.379    61 H    0.962
    30   6 C    3.955 --    17 N    0.998    64 H    0.977    62 H    0.965
                            63 H    0.959
    31   6 C    3.979 --    32 C    1.012    33 C    1.009    65 H    0.957
                             3 C    0.916
    32   6 C    3.986 --    31 C    1.012    68 H    0.983    66 H    0.980
                            67 H    0.977
    33   6 C    3.990 --    31 C    1.009    69 H    0.984    70 H    0.982
                            71 H    0.981
    34   1 H    0.996 --     5 C    0.956
    35   1 H    0.993 --     8 C    0.973
    36   1 H    0.993 --     8 C    0.977
    37   1 H    0.993 --     8 C    0.973
    38   1 H    0.992 --    11 C    0.973
    39   1 H    0.993 --    11 C    0.977
    40   1 H    0.993 --    11 C    0.973
    41   1 H    0.995 --    12 C    0.964
    42   1 H    0.993 --    13 C    0.951
    43   1 H    0.995 --    14 C    0.971
    44   1 H    0.996 --    14 C    0.969
    45   1 H    0.994 --    15 C    0.961
    46   1 H    0.968 --    15 C    0.926
    47   1 H    0.986 --     2 C    0.933
    48   1 H    0.995 --    16 C    0.957
    49   1 H    0.991 --    18 C    0.965
    50   1 H    0.994 --    18 C    0.968
    51   1 H    0.996 --    19 C    0.972
    52   1 H    0.996 --    19 C    0.972
    53   1 H    0.997 --    21 C    0.968
    54   1 H    0.995 --    22 C    0.963
    55   1 H    0.992 --    25 C    0.973
    56   1 H    0.992 --    25 C    0.973
    57   1 H    0.992 --    25 C    0.977
    58   1 H    0.993 --    28 C    0.977
    59   1 H    0.993 --    28 C    0.973
    60   1 H    0.993 --    28 C    0.973
    61   1 H    0.996 --    29 C    0.962
    62   1 H    0.984 --    30 C    0.965
    63   1 H    0.986 --    30 C    0.959
    64   1 H    0.993 --    30 C    0.977
    65   1 H    0.995 --    31 C    0.957
    66   1 H    0.996 --    32 C    0.980
    67   1 H    0.995 --    32 C    0.977
    68   1 H    0.997 --    32 C    0.983
    69   1 H    0.997 --    33 C    0.984
    70   1 H    0.998 --    33 C    0.982
    71   1 H    0.995 --    33 C    0.981
    72   1 H    0.972 --     1 N    0.945
 ---------------------------------------------------------------------------

molecular dipole:
                 x           y           z       tot (Debye)
 q only:        0.649      -0.123      -0.864
   full:        0.844       0.294      -1.085       3.573

           -------------------------------------------------
          | TOTAL ENERGY              -99.406458707505 Eh   |
          | GRADIENT NORM               0.004167542005 Eh/α |
          | HOMO-LUMO GAP               1.629382958167 eV   |
           -------------------------------------------------

 * finished run on 2024/04/06 at 11:15:31.229
