   * xtb version 6.6.1 (8d0f1dd) compiled by 'conda@1efc2f54142f' on 2023-08-01
          program call               : xtb xtbopt.xyz --opt crude --input .xc2 --gfn2

   ID    Z sym.   atoms
    1    7 N      1, 17
    2    6 C      2-6, 8, 9, 11-16, 18-23, 25, 26, 28-33
    3    8 O      7, 10, 24, 27
    4    1 H      34-72
########################################################################
[WARNING] Please study the warnings concerning your input carefully
-1- readin_getIntValue: could not parse ''
########################################################################

          :  Hamiltonian                  GFN2-xTB          :
 * total energy  :   -99.3473956 Eh     change       -0.5400125E-12 Eh
   *** GEOMETRY OPTIMIZATION CONVERGED AFTER 1 ITERATIONS ***

 final structure:
================
72
 xtb: 6.6.1 (8d0f1dd)
N           -1.33114176440506        2.64661899274285        2.07384671634193
C           -1.61109848287900        1.73849933942722        1.25841668193660
C           -2.88437490901863        1.70511586517516        0.45621165029616
C           -3.46576954868213        0.30148559369483        0.49508507606483
C           -4.41942682214012       -0.09608476968429       -0.44327827691916
C           -4.99691692303575       -1.35437778750368       -0.40280673427215
O           -5.92583762063761       -1.81301630161607       -1.27023615955623
C           -6.46276271527679       -0.93539931739141       -2.23097921535285
C           -4.61250563837420       -2.26966695792286        0.61257781097537
O           -5.21607456675974       -3.47511893169222        0.57051404723994
C           -4.93876989294878       -4.41246445678907        1.58437157824225
C           -3.67998039130605       -1.86255484141009        1.55374133553106
C           -3.12179723334730       -0.59359270757200        1.49791841185254
C           -2.48954515848173        2.10537198476742       -0.99123470769159
C           -1.65212624250910        1.06767543021965       -1.74566815687836
C           -0.20823234494751        1.12977684193627       -1.40186095689403
N            0.69473989588831        0.25097657052961       -1.83605330945385
C            1.97826065360329        0.30125079422167       -1.47604024882910
C            3.07175746972002       -0.55844698396683       -2.02845750742019
C            4.35744896202883       -0.24588160286204       -1.31837814562976
C            5.21737447244036        0.71177778123232       -1.73863025896477
C            6.38078495482736        1.04450721779464       -1.02292997457669
C            6.70248985118914        0.38689463606700        0.16561907925203
O            7.79845797802210        0.63586682472706        0.91876027519570
C            8.70270025277269        1.63295513070599        0.49679671106998
C            5.86179462470973       -0.61893241218802        0.65207343264547
O            6.24203379914145       -1.22921597037928        1.78424042666100
C            5.47629070427792       -2.28444598309970        2.31337433433066
C            4.60774906776119       -1.00117627822980       -0.05539994427887
C            0.23384099660535       -0.79292970998583       -2.73005564181431
C           -3.98287046071949        2.67993527908273        0.97893046935724
C           -4.34762582652191        2.38392652620907        2.43170995218632
C           -3.61399382881875        4.15470903097115        0.83842003823031
H           -4.72512912654919        0.59318978762084       -1.21271397223017
H           -6.90875451506383       -0.05272460234155       -1.76327398400114
H           -7.23822407334112       -1.50215861863341       -2.74227451404826
H           -5.70676803512242       -0.62193638603736       -2.95883482785933
H           -5.20908614973626       -4.02629289813028        2.57179824345352
H           -5.55342930969519       -5.28094223750974        1.35604306942804
H           -3.88375801006711       -4.70513350530926        1.58337730284714
H           -3.38682937767768       -2.52546777432863        2.35152516982832
H           -2.42614196641876       -0.30428532159678        2.27033542484873
H           -3.40596060141513        2.28785980041557       -1.55181586872657
H           -1.93906176332627        3.04495749508133       -0.95340184346840
H           -2.05829014606223        0.06792463645175       -1.55069700992562
H           -1.78034931404229        1.24916533695111       -2.82236554272962
H           -0.93171910094588        0.90856595054939        1.01654603423876
H            0.16185240498318        1.95744550084267       -0.82244591430790
H            3.74235903026065       -0.86057069439250        0.61291902996023
H            2.26313461472717        1.11440038166276       -0.82695527002982
H            3.19644124220232       -0.37047073318900       -3.10203154917171
H            2.84299989814355       -1.62324153619496       -1.90140066561163
H            5.01426969310800        1.24619546327459       -2.65387649907025
H            7.02298018817200        1.81603692737968       -1.40978259872296
H            8.22600108964150        2.61748291480431        0.46425271673570
H            9.13045040546511        1.39807033445974       -0.48243345699606
H            9.49404003343299        1.63975357533623        1.24355983830979
H            5.98183296520360       -2.58311774404844        3.22948469094781
H            4.45624247918510       -1.96825604373295        2.54905638087572
H            5.44013005038331       -3.13784503882755        1.62867347016381
H            4.63008227969610       -2.08053440572527       -0.27419825689351
H           -0.17464790601399       -0.34798207010686       -3.63747013716390
H           -0.55198274816090       -1.37791945314993       -2.25181935907912
H            1.04763617147132       -1.45527981306584       -3.00397482633001
H           -4.87161223346106        2.49008419955398        0.36488395368722
H           -3.51027890040064        2.61871840070278        3.08191772857464
H           -4.62030494155219        1.33984359408500        2.56554791081096
H           -5.19462201358292        2.99734425961402        2.72754963045356
H           -2.68077989036956        4.35670576488450        1.35401978690216
H           -3.52563649103797        4.45566854667824       -0.20176840190816
H           -4.39485269796984        4.75982103131078        1.29224406795908
H           -0.43059094931738        2.59502566996136        2.54046610201181

          :  Hamiltonian                  GFN2-xTB          :
         :: total energy             -99.347395576127 Eh    ::
         :: gradient norm              0.003569558731 Eh/a0 ::
         :: HOMO-LUMO gap              0.858438312834 eV    ::
         :: SCC energy              -100.714412178949 Eh    ::
         :: -> dispersion             -0.072401391387 Eh    ::
         :: repulsion energy           1.365748820468 Eh    ::

    * Orbital Energies and Occupations

         #    Occupation            Energy/Eh            Energy/eV
      -------------------------------------------------------------
         1        2.0000           -0.8279858             -22.5306
       ...           ...                  ...                  ...
        78        1.9988           -0.5291395             -14.3986
        79        1.9987           -0.5276977             -14.3594
        80        1.9982           -0.5223581             -14.2141
        81        1.9982           -0.5218568             -14.2004
        82        1.9970           -0.5138829             -13.9835
        83        1.9952           -0.5064905             -13.7823
        84        1.9947           -0.5050022             -13.7418
        85        1.9935           -0.5019043             -13.6575
        86        1.9780           -0.4823832             -13.1263
        87        1.9508           -0.4694222             -12.7736
        88        1.9234           -0.4621793             -12.5765
        89        1.8578           -0.4518474             -12.2954
        90        1.5903           -0.4326275             -11.7724 (HOMO)
        91        0.6923           -0.4010805             -10.9140 (LUMO)
        92        0.0195           -0.3380221              -9.1981
        93        0.0105           -0.3280874              -8.9277
        94        0.0044           -0.3143631              -8.5543
        95        0.0030           -0.3081147              -8.3842
        96        0.0024           -0.3049896              -8.2992
        97        0.0000           -0.2277518              -6.1974
        98        0.0000           -0.1824582              -4.9649
        99                         -0.1004522              -2.7334
       100                         -0.0827485              -2.2517
       101                         -0.0707505              -1.9252
       ...                                ...                  ...
       171                          0.5796377              15.7727
      -------------------------------------------------------------
                  HL-Gap            0.0315470 Eh            0.8584 eV

     #   Z          covCN         q      C6AA      α(0)
     1   7 N        1.774    -0.278    28.020     7.839
     2   6 C        2.827     0.103    25.717     8.310
     3   6 C        3.907     0.006    20.414     6.422
     4   6 C        2.974     0.001    27.999     8.680
     5   6 C        2.921    -0.079    29.980     8.979
     6   6 C        2.862     0.129    25.180     8.225
     7   8 O        1.706    -0.233    17.856     5.705
     8   6 C        3.644     0.029    20.427     6.496
     9   6 C        2.865     0.129    25.165     8.223
    10   8 O        1.706    -0.229    17.804     5.697
    11   6 C        3.646     0.028    20.438     6.497
    12   6 C        2.914    -0.071    29.781     8.949
    13   6 C        2.922    -0.049    29.221     8.865
    14   6 C        3.813    -0.065    21.733     6.636
    15   6 C        3.801    -0.062    21.691     6.631
    16   6 C        2.874    -0.049    29.207     8.859
    17   7 N        2.730     0.080    19.851     6.617
    18   6 C        2.871    -0.055    29.365     8.883
    19   6 C        3.808    -0.065    21.733     6.636
    20   6 C        2.960    -0.007    28.188     8.708
    21   6 C        2.905    -0.042    29.055     8.838
    22   6 C        2.913    -0.070    29.756     8.945
    23   6 C        2.850     0.130    25.156     8.220
    24   8 O        1.706    -0.237    17.934     5.718
    25   6 C        3.644     0.026    20.479     6.505
    26   6 C        2.851     0.125    25.252     8.236
    27   8 O        1.706    -0.198    17.297     5.615
    28   6 C        3.644     0.021    20.562     6.518
    29   6 C        3.811    -0.075    21.921     6.664
    30   6 C        3.718    -0.077    22.097     6.715
    31   6 C        3.854    -0.007    20.669     6.466
    32   6 C        3.756    -0.115    22.758     6.802
    33   6 C        3.755    -0.121    22.871     6.819
    34   1 H        0.926     0.051     2.307     2.375
    35   1 H        0.924     0.052     2.289     2.366
    36   1 H        0.925     0.079     1.984     2.203
    37   1 H        0.924     0.046     2.373     2.409
    38   1 H        0.924     0.054     2.271     2.356
    39   1 H        0.925     0.079     1.985     2.203
    40   1 H        0.924     0.048     2.340     2.392
    41   1 H        0.926     0.052     2.299     2.371
    42   1 H        0.926     0.042     2.424     2.434
    43   1 H        0.925     0.055     2.257     2.349
    44   1 H        0.925     0.057     2.230     2.335
    45   1 H        0.924     0.058     2.223     2.331
    46   1 H        0.923     0.059     2.209     2.325
    47   1 H        0.923     0.008     2.925     2.675
    48   1 H        0.926     0.053     2.282     2.362
    49   1 H        0.923     0.079     1.986     2.204
    50   1 H        0.926     0.048     2.349     2.397
    51   1 H        0.924     0.067     2.120     2.277
    52   1 H        0.924     0.055     2.259     2.350
    53   1 H        0.926     0.057     2.237     2.339
    54   1 H        0.926     0.064     2.153     2.294
    55   1 H        0.924     0.053     2.279     2.361
    56   1 H        0.924     0.055     2.264     2.353
    57   1 H        0.925     0.082     1.960     2.190
    58   1 H        0.925     0.091     1.867     2.137
    59   1 H        0.924     0.056     2.241     2.341
    60   1 H        0.924     0.060     2.197     2.318
    61   1 H        0.923     0.081     1.971     2.196
    62   1 H        0.925     0.083     1.948     2.182
    63   1 H        0.925     0.080     1.977     2.199
    64   1 H        0.925     0.086     1.916     2.165
    65   1 H        0.924     0.036     2.510     2.477
    66   1 H        0.925     0.060     2.197     2.318
    67   1 H        0.925     0.034     2.529     2.487
    68   1 H        0.925     0.049     2.332     2.388
    69   1 H        0.925     0.068     2.107     2.270
    70   1 H        0.925     0.036     2.504     2.474
    71   1 H        0.925     0.053     2.287     2.365
    72   1 H        0.860     0.150     1.399     1.853

Wiberg/Mayer (AO) data.
largest (>0.10) Wiberg bond orders for each atom

     #   Z sym  total        # sym  WBO       # sym  WBO       # sym  WBO
 ---------------------------------------------------------------------------
     1   7 N    3.012 --     2 C    1.948    72 H    0.944
     2   6 C    3.939 --     1 N    1.948     3 C    0.994    47 H    0.928
     3   6 C    3.974 --     2 C    0.994     4 C    0.979    14 C    0.950
                            31 C    0.943
     4   6 C    3.945 --    13 C    1.408     5 C    1.372     3 C    0.979
     5   6 C    3.961 --     6 C    1.400     4 C    1.372    34 H    0.957
     6   6 C    3.901 --     5 C    1.400     9 C    1.225     7 O    1.094
     7   8 O    2.246 --     6 C    1.094     8 C    0.979
     8   6 C    3.934 --     7 O    0.979    36 H    0.977    35 H    0.974
                            37 H    0.973
     9   6 C    3.897 --    12 C    1.388     6 C    1.225    10 O    1.099
    10   8 O    2.248 --     9 C    1.099    11 C    0.978
    11   6 C    3.932 --    10 O    0.978    39 H    0.977    40 H    0.974
                            38 H    0.973
    12   6 C    3.961 --    13 C    1.411     9 C    1.388    41 H    0.964
    13   6 C    3.951 --    12 C    1.411     4 C    1.408    42 H    0.962
    14   6 C    3.986 --    15 C    1.004    44 H    0.971    43 H    0.967
                             3 C    0.950
    15   6 C    3.987 --    16 C    1.051    14 C    1.004    45 H    0.943
                            46 H    0.939
    16   6 C    3.651 --    17 N    1.339    15 C    1.051    48 H    0.960
                            18 C    0.214
    17   7 N    3.727 --    16 C    1.339    18 C    1.329    30 C    0.988
    18   6 C    3.613 --    17 N    1.329    19 C    1.021    50 H    0.963
                            16 C    0.214
    19   6 C    3.989 --    18 C    1.021    20 C    1.012    52 H    0.948
                            51 H    0.941
    20   6 C    3.786 --    21 C    1.615    29 C    1.029    19 C    1.012
    21   6 C    3.980 --    20 C    1.615    22 C    1.292    53 H    0.964
    22   6 C    3.735 --    23 C    1.336    21 C    1.292    54 H    0.965
    23   6 C    3.911 --    22 C    1.336    26 C    1.322    24 O    1.089
    24   8 O    2.243 --    23 C    1.089    25 C    0.976
    25   6 C    3.929 --    57 H    0.977    24 O    0.976    55 H    0.974
                            56 H    0.974
    26   6 C    3.667 --    23 C    1.322    27 O    1.145    29 C    1.034
    27   8 O    2.267 --    26 C    1.145    28 C    0.976
    28   6 C    3.925 --    27 O    0.976    58 H    0.976    59 H    0.970
                            60 H    0.968
    29   6 C    3.985 --    26 C    1.034    20 C    1.029    61 H    0.918
                            49 H    0.917
    30   6 C    3.956 --    17 N    0.988    64 H    0.973    62 H    0.967
                            63 H    0.966
    31   6 C    3.975 --    32 C    1.009    33 C    1.008    65 H    0.961
                             3 C    0.943
    32   6 C    3.983 --    31 C    1.009    68 H    0.982    67 H    0.981
                            66 H    0.978
    33   6 C    3.978 --    31 C    1.008    70 H    0.983    71 H    0.980
                            69 H    0.974
    34   1 H    0.996 --     5 C    0.957
    35   1 H    0.993 --     8 C    0.974
    36   1 H    0.993 --     8 C    0.977
    37   1 H    0.994 --     8 C    0.973
    38   1 H    0.993 --    11 C    0.973
    39   1 H    0.993 --    11 C    0.977
    40   1 H    0.993 --    11 C    0.974
    41   1 H    0.996 --    12 C    0.964
    42   1 H    0.997 --    13 C    0.962
    43   1 H    0.996 --    14 C    0.967
    44   1 H    0.996 --    14 C    0.971
    45   1 H    0.984 --    15 C    0.943
    46   1 H    0.976 --    15 C    0.939
    47   1 H    0.983 --     2 C    0.928
    48   1 H    0.997 --    16 C    0.960
    49   1 H    0.955 --    29 C    0.917
    50   1 H    0.997 --    18 C    0.963
    51   1 H    0.975 --    19 C    0.941
    52   1 H    0.982 --    19 C    0.948
    53   1 H    0.996 --    21 C    0.964
    54   1 H    0.995 --    22 C    0.965
    55   1 H    0.994 --    25 C    0.974
    56   1 H    0.994 --    25 C    0.974
    57   1 H    0.993 --    25 C    0.977
    58   1 H    0.991 --    28 C    0.976
    59   1 H    0.991 --    28 C    0.970
    60   1 H    0.989 --    28 C    0.968
    61   1 H    0.957 --    29 C    0.918
    62   1 H    0.992 --    30 C    0.967
    63   1 H    0.993 --    30 C    0.966
    64   1 H    0.992 --    30 C    0.973
    65   1 H    0.992 --    31 C    0.961
    66   1 H    0.993 --    32 C    0.978
    67   1 H    0.997 --    32 C    0.981
    68   1 H    0.995 --    32 C    0.982
    69   1 H    0.991 --    33 C    0.974
    70   1 H    0.997 --    33 C    0.983
    71   1 H    0.994 --    33 C    0.980
    72   1 H    0.971 --     1 N    0.944
 ---------------------------------------------------------------------------

molecular dipole:
                 x           y           z       tot (Debye)
 q only:        1.781      -0.678      -1.243
   full:        1.976      -0.957      -1.385       6.597

           -------------------------------------------------
          | TOTAL ENERGY              -99.347395576127 Eh   |
          | GRADIENT NORM               0.003569558731 Eh/α |
          | HOMO-LUMO GAP               0.858438312834 eV   |
           -------------------------------------------------

 * finished run on 2024/04/06 at 11:13:37.246
