   * xtb version 6.6.1 (8d0f1dd) compiled by 'conda@1efc2f54142f' on 2023-08-01
          program call               : xtb struc.xyz --opt loose --input .xc1 --gfn2

   ID    Z sym.   atoms
    1    6 C      1, 3, 5-7, 10, 11, 14
    2    7 N      2, 4, 9, 13
    3    8 O      8, 12
    4    1 H      15-25
constraining bond 13 22 to    4.0600000 Å, actual value:    2.0980043 Å

          :  Hamiltonian                  GFN2-xTB          :
 * total energy  :   -35.3720075 Eh     change       -0.6633627E-10 Eh
 * total energy  :   -38.3952783 Eh     change       -0.3023271E+01 Eh
 * total energy  :   -40.5795032 Eh     change       -0.2184225E+01 Eh
 * total energy  :   -41.5882337 Eh     change       -0.1008730E+01 Eh
 * total energy  :   -41.8537825 Eh     change       -0.2655488E+00 Eh
 * total energy  :   -41.8825949 Eh     change       -0.2881242E-01 Eh
 * total energy  :   -41.8981772 Eh     change       -0.1558229E-01 Eh
 * total energy  :   -41.9290878 Eh     change       -0.3091052E-01 Eh
 * total energy  :   -41.9511580 Eh     change       -0.2207028E-01 Eh
 * total energy  :   -41.9624207 Eh     change       -0.1126268E-01 Eh
 * total energy  :   -42.0770165 Eh     change       -0.3071609E-02 Eh
 * total energy  :   -42.0780428 Eh     change       -0.1026293E-02 Eh
 * total energy  :   -42.0789434 Eh     change       -0.9006313E-03 Eh
 * total energy  :   -42.0793804 Eh     change       -0.4369757E-03 Eh
 * total energy  :   -42.0795590 Eh     change       -0.1785860E-03 Eh
 * total energy  :   -42.0797635 Eh     change       -0.2045205E-03 Eh
 * total energy  :   -42.0798510 Eh     change       -0.8744851E-04 Eh
 * total energy  :   -42.0799273 Eh     change       -0.7633553E-04 Eh
 * total energy  :   -42.0799549 Eh     change       -0.2756270E-04 Eh
   *** GEOMETRY OPTIMIZATION CONVERGED AFTER 31 ITERATIONS ***

 final structure:
================
25
 xtb: 6.6.1 (8d0f1dd)
C            3.22937158831438        1.19610938650599        0.03958944410858
N            2.27968536015262        0.11563427693872       -0.02989170943689
C            2.55013450079567       -1.17703289517780       -0.07418882399862
N            1.41026594297257       -1.89021568563341       -0.12666541335888
C            0.35892920984462       -1.00406495897712       -0.11019306711098
C            0.91547955468397        0.26873846055209       -0.04902696312983
C            0.10303920249128        1.46842794177837       -0.03490602317715
O            0.51861140821259        2.60284150341573       -0.02841194826058
N           -1.25779878955561        1.15134323437439       -0.03249422956863
C           -2.19929743123444        2.26826869007431        0.00962730971867
C           -1.85211685663148       -0.07927784849847       -0.05656892475002
O           -3.03353894944136       -0.25463680494041       -0.02310872105909
N           -0.97090909850834       -1.24282983257023       -0.14299158181058
C           -1.54665747802011       -2.45353410376762       -0.24036905660101
H            3.71254299282324        1.21191131279248        1.01781685548851
H            3.99359698049653        1.07788168636538       -0.72748891519350
H            2.70121140136255        2.13831472224825       -0.10595681921509
H            3.53449983001891       -1.60657829203474       -0.07038097104248
H           -1.62577861088787        3.19149583467324        0.01271788385513
H           -2.85234213673580        2.23200747212607       -0.86067738179279
H           -2.81073618993909        2.19817805272511        0.90783270166125
H           -1.77640531524939       -4.86790554288342        1.49418082711910
H           -0.95221308728851       -3.33998622029748       -0.34388793678733
H           -2.61955442857024       -2.48785740561138       -0.23956486922114
H            1.35041191399332       -2.89899444257810       -0.15382004853669

          :  Hamiltonian                  GFN2-xTB          :
         :: total energy             -42.079954870716 Eh    ::
         :: gradient norm              0.003225350803 Eh/a0 ::
         :: HOMO-LUMO gap              0.281979443871 eV    ::
         :: SCC energy               -42.605071962383 Eh    ::
         :: -> dispersion             -0.022722037832 Eh    ::
         :: repulsion energy           0.525018390008 Eh    ::

    * Orbital Energies and Occupations

         #    Occupation            Energy/Eh            Energy/eV
      -------------------------------------------------------------
         1        2.0000           -0.9257926             -25.1921
       ...           ...                  ...                  ...
        25        2.0000           -0.6731730             -18.3180
        26        2.0000           -0.6714073             -18.2699
        27        2.0000           -0.6621444             -18.0179
        28        2.0000           -0.6415140             -17.4565
        29        2.0000           -0.6329437             -17.2233
        30        2.0000           -0.6310363             -17.1714
        31        2.0000           -0.6252335             -17.0135
        32        2.0000           -0.6002656             -16.3341
        33        2.0000           -0.5949795             -16.1902
        34        2.0000           -0.5874596             -15.9856
        35        1.9999           -0.5675433             -15.4436
        36        1.9999           -0.5650426             -15.3756
        37        1.3105           -0.4889864             -13.3060 (HOMO)
        38        0.6784           -0.4786239             -13.0240 (LUMO)
        39        0.0112           -0.4428757             -12.0513
        40        0.0001           -0.4030737             -10.9682
        41        0.0000           -0.3768677             -10.2551
        42                         -0.2925713              -7.9613
        43                         -0.2182199              -5.9381
        44                         -0.2063049              -5.6138
        45                         -0.1555953              -4.2340
        46                         -0.1392966              -3.7905
        47                         -0.0725964              -1.9754
        48                         -0.0468882              -1.2759
       ...                                ...                  ...
        67                          0.5578467              15.1798
      -------------------------------------------------------------
                  HL-Gap            0.0103626 Eh            0.2820 eV

     #   Z          covCN         q      C6AA      α(0)
     1   6 C        3.692    -0.099    22.581     6.800
     2   7 N        2.835     0.095    19.603     6.576
     3   6 C        3.060     0.062    26.550     8.450
     4   7 N        2.793    -0.053    22.259     7.007
     5   6 C        3.042     0.094    25.880     8.344
     6   6 C        3.121    -0.018    28.275     8.709
     7   6 C        2.763     0.269    22.452     7.760
     8   8 O        0.858    -0.365    21.001     6.144
     9   7 N        2.744    -0.079    22.773     7.088
    10   6 C        3.714    -0.065    21.882     6.684
    11   6 C        2.733     0.312    21.695     7.626
    12   8 O        0.859    -0.333    20.392     6.054
    13   7 N        2.735     0.008    21.126     6.826
    14   6 C        2.796    -0.056    29.385     8.880
    15   1 H        0.924     0.114     1.664     2.017
    16   1 H        0.925     0.110     1.699     2.039
    17   1 H        0.925     0.142     1.444     1.879
    18   1 H        0.926     0.133     1.515     1.925
    19   1 H        0.925     0.116     1.649     2.008
    20   1 H        0.925     0.098     1.806     2.101
    21   1 H        0.925     0.098     1.802     2.099
    22   1 H        0.000    -0.043     9.808     5.726
    23   1 H        0.926     0.092     1.857     2.131
    24   1 H        0.926     0.136     1.492     1.910
    25   1 H        0.860     0.234     0.948     1.525

Wiberg/Mayer (AO) data.
largest (>0.10) Wiberg bond orders for each atom

     #   Z sym  total        # sym  WBO       # sym  WBO       # sym  WBO
 ---------------------------------------------------------------------------
     1   6 C    3.909 --     2 N    0.982    16 H    0.962    17 H    0.958
                            15 H    0.954
     2   7 N    3.721 --     3 C    1.420     6 C    1.170     1 C    0.982
     3   6 C    3.916 --     2 N    1.420     4 N    1.307    18 H    0.949
     4   7 N    3.581 --     3 C    1.307     5 C    1.161    25 H    0.916
     5   6 C    3.891 --     6 C    1.336    13 N    1.173     4 N    1.161
     6   6 C    3.866 --     5 C    1.336     2 N    1.170     7 C    1.068
     7   6 C    3.931 --     8 O    1.685     9 N    1.088     6 C    1.068
     8   8 O    2.013 --     7 C    1.685     9 N    0.144
     9   7 N    3.583 --    11 C    1.170     7 C    1.088    10 C    0.960
                            12 O    0.153     8 O    0.144
    10   6 C    3.916 --    19 H    0.969    20 H    0.969    21 H    0.968
                             9 N    0.960
    11   6 C    3.933 --    12 O    1.738     9 N    1.170    13 N    0.927
    12   8 O    2.077 --    11 C    1.738     9 N    0.153
    13   7 N    3.634 --    14 C    1.295     5 C    1.173    11 C    0.927
    14   6 C    3.398 --    13 N    1.295    23 H    0.966    24 H    0.958
    15   1 H    0.986 --     1 C    0.954
    16   1 H    0.987 --     1 C    0.962
    17   1 H    0.980 --     1 C    0.958
    18   1 H    0.981 --     3 C    0.949
    19   1 H    0.986 --    10 C    0.969
    20   1 H    0.990 --    10 C    0.969
    21   1 H    0.989 --    10 C    0.968
    22   1 H    0.090
    23   1 H    0.991 --    14 C    0.966
    24   1 H    0.981 --    14 C    0.958
    25   1 H    0.945 --     4 N    0.916
 ---------------------------------------------------------------------------

molecular dipole:
                 x           y           z       tot (Debye)
 q only:        2.859      -1.412      -0.294
   full:        3.143      -2.015      -0.294       9.519

           -------------------------------------------------
          | TOTAL ENERGY              -42.079954870716 Eh   |
          | GRADIENT NORM               0.003225350803 Eh/α |
          | HOMO-LUMO GAP               0.281979443871 eV   |
           -------------------------------------------------

 * finished run on 2024/06/05 at 19:58:07.136
