   * xtb version 6.6.1 (8d0f1dd) compiled by 'conda@1efc2f54142f' on 2023-08-01
          program call               : xtb struc.xyz --opt loose --input .xc1 --gfn2

   ID    Z sym.   atoms
    1    7 N      1, 17
    2    6 C      2-6, 8, 9, 11-16, 18-23, 25, 26, 28-33
    3    8 O      7, 10, 24, 27
    4    1 H      34-72
constraining bond 6 41 to    5.1400000 Å, actual value:    3.3971031 Å

          :  Hamiltonian                  GFN2-xTB          :
 * total energy  :   -98.8617417 Eh     change       -0.4035485E-08 Eh
 * total energy  :   -99.0391945 Eh     change       -0.1774528E+00 Eh
 * total energy  :   -99.1339357 Eh     change       -0.9474124E-01 Eh
 * total energy  :   -99.1717930 Eh     change       -0.3785723E-01 Eh
 * total energy  :   -99.1871695 Eh     change       -0.1537651E-01 Eh
 * total energy  :   -99.1975318 Eh     change       -0.1036230E-01 Eh
 * total energy  :   -99.2093623 Eh     change       -0.1183052E-01 Eh
 * total energy  :   -99.2210855 Eh     change       -0.1172322E-01 Eh
 * total energy  :   -99.2315816 Eh     change       -0.1049610E-01 Eh
 * total energy  :   -99.2391607 Eh     change       -0.7579124E-02 Eh
 * total energy  :   -99.2440080 Eh     change       -0.1032793E-03 Eh
 * total energy  :   -99.2441212 Eh     change       -0.1132607E-03 Eh
 * total energy  :   -99.2442620 Eh     change       -0.1407501E-03 Eh
 * total energy  :   -99.2444266 Eh     change       -0.1646402E-03 Eh
 * total energy  :   -99.2445875 Eh     change       -0.1609320E-03 Eh
 * total energy  :   -99.2447098 Eh     change       -0.1222872E-03 Eh
 * total energy  :   -99.2448139 Eh     change       -0.1041256E-03 Eh
 * total energy  :   -99.2448983 Eh     change       -0.8431366E-04 Eh
 * total energy  :   -99.2449407 Eh     change       -0.4242618E-04 Eh
   *** GEOMETRY OPTIMIZATION CONVERGED AFTER 24 ITERATIONS ***

 final structure:
================
72
 xtb: 6.6.1 (8d0f1dd)
N           -1.91739525526631        2.77944898460381        2.21978290139024
C           -1.87257780151842        2.09997105603625        1.17441373797170
C           -3.01743063354093        1.91771585281138        0.21678788421355
C           -3.51799489706847        0.48152028183889        0.27456078095923
C           -4.48921578346454        0.03942578877928       -0.62546429847749
C           -4.98087501537459       -1.25725311626140       -0.60194221035565
O           -5.92432752177068       -1.76644171394518       -1.41302869112414
C           -6.55611913320222       -0.92890936994007       -2.35524503573486
C           -4.44330722213809       -2.17794833892828        0.36455638655808
O           -4.93868457732809       -3.42225379329766        0.35656195012557
C           -4.47724893205611       -4.27739471356215        1.38037989622041
C           -3.47390158702995       -1.70401737929727        1.21661392167640
C           -3.01363866113939       -0.41920217169790        1.21794118820846
C           -2.44223624430436        2.19573753062505       -1.19723178387078
C           -1.50411769193255        1.09231896290261       -1.72077358910072
C           -0.17531082242085        1.08176238967873       -1.06723893010859
N            0.48496237582621        0.00298565471583       -0.67880519553337
C            1.86103886748547        0.10208706209279       -0.24970356504664
C            2.83345338864397       -0.34728760608980       -1.35754323260700
C            4.25332502674672       -0.14354858601709       -0.90777061186715
C            4.89343707591862        1.06757255723941       -1.12156184003972
C            6.19455584307112        1.26984567747640       -0.68948680250409
C            6.88361076350391        0.26257784947188       -0.02786885019416
O            8.14419794517809        0.34334192252399        0.43008660841704
C            8.87833387420518        1.52964551543603        0.22945360854421
C            6.23274408924109       -0.98318412026905        0.20152687442703
O            6.97259112144721       -1.90329653966764        0.84630324056809
C            6.42932462296749       -3.17809597176657        1.09711890670056
C            4.92984945901603       -1.16044748482338       -0.23920798736479
C           -0.10589943255366       -1.31429076109365       -0.70562713551821
C           -4.21541868444349        2.86766106843325        0.51578274130406
C           -4.86590722146912        2.53674832670589        1.85701871151129
C           -3.83079535743477        4.34350395908555        0.47189210928229
H           -4.88626145248649        0.73035252373778       -1.35134057734345
H           -7.06088820221394       -0.08858407984862       -1.86985150341918
H           -7.29566517559157       -1.55465217414725       -2.85191143953051
H           -5.84498796121538       -0.55324587678347       -3.09800083160901
H           -4.72086552009124       -3.86965075853247        2.36574223768855
H           -4.98249846412081       -5.22904361436272        1.23364117346365
H           -3.39268249466995       -4.41017318831593        1.31958917435085
H           -1.67663557628186       -2.82572425009731        2.94940911642483
H           -2.28957303948636       -0.10034175339125        1.95054324760945
H           -3.27152567802374        2.29430482047030       -1.89695329454669
H           -1.90645982998761        3.14579564107807       -1.18443318336189
H           -1.99850709144213        0.12525648433568       -1.64414047547419
H           -1.33678108531583        1.29891620212465       -2.78586827157323
H           -0.95611599447389        1.59294536174089        0.81074345330164
H            0.37156318676191        2.01425511767406       -1.04825800471051
H            2.00601079202827       -0.51961053054685        0.63745771029019
H            2.08495181470379        1.13706862634759        0.01741288642214
H            2.64065829603274        0.24418035525349       -2.25440477288212
H            2.66054236341361       -1.39801063955959       -1.59241541038758
H            4.38352373738776        1.86370103203167       -1.64250504370229
H            6.66846382841913        2.21912860284035       -0.87783744228603
H            8.40782343136825        2.38129159876872        0.72991091525496
H            8.99782103410054        1.75079826035811       -0.83529547635365
H            9.85551182708388        1.34614629937914        0.67192681850668
H            7.21485986637684       -3.73554848995028        1.60343203308481
H            5.55145179522260       -3.11898289983034        1.74812498253220
H            6.16369133510308       -3.69041863802210        0.16739426322503
H            4.43149530695634       -2.10330344865966       -0.07720730646245
H           -0.27973335159061       -1.64683149212959       -1.73094482825924
H           -1.05693029258995       -1.32043345874879       -0.16662029905500
H            0.56426465024343       -2.01895007588651       -0.22056519945291
H           -4.95820673925230        2.68952630649328       -0.26977697177670
H           -4.17100269523742        2.72822937080002        2.66845232056955
H           -5.17564843793298        1.49508958420543        1.89781174491504
H           -5.74455791531347        3.16056644938076        1.99926031978238
H           -3.06430670896867        4.55735295322555        1.21047897769870
H           -3.47605612278351        4.63927469952806       -0.51205102587268
H           -4.70331710557775        4.94746703388801        0.70631829835159
H           -1.07593271134899        2.85569879385127        2.78171483855645

          :  Hamiltonian                  GFN2-xTB          :
         :: total energy             -99.244940700831 Eh    ::
         :: gradient norm              0.002107522600 Eh/a0 ::
         :: HOMO-LUMO gap              0.668807387169 eV    ::
         :: SCC energy              -100.610119053232 Eh    ::
         :: -> dispersion             -0.075611731359 Eh    ::
         :: repulsion energy           1.363604936392 Eh    ::

    * Orbital Energies and Occupations

         #    Occupation            Energy/Eh            Energy/eV
      -------------------------------------------------------------
         1        2.0000           -0.8148705             -22.1738
       ...           ...                  ...                  ...
        78        1.9978           -0.5342937             -14.5389
        79        1.9978           -0.5337504             -14.5241
        80        1.9976           -0.5323293             -14.4854
        81        1.9963           -0.5258285             -14.3085
        82        1.9948           -0.5202314             -14.1562
        83        1.9939           -0.5178779             -14.0922
        84        1.9936           -0.5170032             -14.0684
        85        1.9738           -0.4945779             -13.4582
        86        1.9702           -0.4924971             -13.4015
        87        1.9264           -0.4778527             -13.0030
        88        1.8086           -0.4617169             -12.5640
        89        1.7970           -0.4606800             -12.5357
        90        1.4656           -0.4421263             -12.0309 (HOMO)
        91        0.7348           -0.4175481             -11.3621 (LUMO)
        92        0.3437           -0.4012535             -10.9187
        93        0.0125           -0.3458732              -9.4117
        94        0.0026           -0.3208221              -8.7300
        95        0.0022           -0.3186189              -8.6701
        96        0.0020           -0.3165035              -8.6125
        97        0.0014           -0.3116640              -8.4808
        98        0.0000           -0.1940859              -5.2813
        99        0.0000           -0.1906834              -5.1888
       100                         -0.1422206              -3.8700
       101                         -0.0760591              -2.0697
       ...                                ...                  ...
       171                          0.5695910              15.4994
      -------------------------------------------------------------
                  HL-Gap            0.0245782 Eh            0.6688 eV

     #   Z          covCN         q      C6AA      α(0)
     1   7 N        1.774    -0.260    27.579     7.777
     2   6 C        2.826     0.102    25.736     8.313
     3   6 C        3.907     0.009    20.368     6.415
     4   6 C        2.981     0.005    27.910     8.666
     5   6 C        2.916    -0.084    30.105     8.997
     6   6 C        2.862     0.132    25.111     8.214
     7   8 O        1.705    -0.221    17.664     5.674
     8   6 C        3.644     0.026    20.471     6.503
     9   6 C        2.877     0.141    24.932     8.186
    10   8 O        1.705    -0.213    17.534     5.653
    11   6 C        3.661     0.025    20.425     6.484
    12   6 C        1.999    -0.085    33.358     9.327
    13   6 C        2.916    -0.040    29.003     8.831
    14   6 C        3.812    -0.065    21.740     6.637
    15   6 C        3.802    -0.070    21.834     6.653
    16   6 C        2.844     0.012    27.730     8.630
    17   7 N        2.729     0.020    20.904     6.790
    18   6 C        3.757    -0.018    20.950     6.526
    19   6 C        3.808    -0.071    21.848     6.654
    20   6 C        2.969     0.002    27.983     8.677
    21   6 C        2.922    -0.047    29.179     8.858
    22   6 C        2.913    -0.066    29.655     8.930
    23   6 C        2.864     0.135    25.043     8.203
    24   8 O        1.706    -0.216    17.594     5.663
    25   6 C        3.645     0.023    20.516     6.510
    26   6 C        2.862     0.135    25.044     8.203
    27   8 O        1.706    -0.219    17.635     5.670
    28   6 C        3.645     0.025    20.489     6.506
    29   6 C        2.919    -0.078    29.959     8.976
    30   6 C        3.700    -0.074    22.085     6.721
    31   6 C        3.853    -0.007    20.665     6.466
    32   6 C        3.755    -0.119    22.839     6.814
    33   6 C        3.755    -0.119    22.832     6.813
    34   1 H        0.926     0.056     2.249     2.345
    35   1 H        0.924     0.057     2.237     2.339
    36   1 H        0.925     0.085     1.931     2.173
    37   1 H        0.924     0.050     2.316     2.380
    38   1 H        0.924     0.066     2.135     2.285
    39   1 H        0.925     0.080     1.976     2.198
    40   1 H        0.924     0.063     2.168     2.303
    41   1 H        0.000    -0.163    20.840     8.347
    42   1 H        0.926     0.058     2.225     2.333
    43   1 H        0.925     0.062     2.179     2.309
    44   1 H        0.924     0.055     2.253     2.347
    45   1 H        0.925     0.068     2.106     2.269
    46   1 H        0.924     0.083     1.947     2.182
    47   1 H        0.922     0.011     2.870     2.649
    48   1 H        0.926     0.073     2.055     2.242
    49   1 H        0.924     0.073     2.051     2.240
    50   1 H        0.924     0.068     2.106     2.269
    51   1 H        0.924     0.056     2.245     2.343
    52   1 H        0.924     0.059     2.216     2.328
    53   1 H        0.926     0.047     2.356     2.400
    54   1 H        0.926     0.061     2.190     2.314
    55   1 H        0.924     0.057     2.238     2.340
    56   1 H        0.924     0.058     2.220     2.330
    57   1 H        0.925     0.085     1.930     2.173
    58   1 H        0.925     0.085     1.933     2.174
    59   1 H        0.924     0.053     2.288     2.365
    60   1 H        0.924     0.055     2.257     2.349
    61   1 H        0.926     0.051     2.307     2.375
    62   1 H        0.924     0.078     1.999     2.211
    63   1 H        0.924     0.088     1.901     2.156
    64   1 H        0.925     0.086     1.920     2.167
    65   1 H        0.924     0.039     2.461     2.454
    66   1 H        0.925     0.072     2.063     2.246
    67   1 H        0.925     0.038     2.473     2.459
    68   1 H        0.925     0.053     2.279     2.361
    69   1 H        0.925     0.061     2.190     2.314
    70   1 H        0.925     0.036     2.509     2.477
    71   1 H        0.925     0.057     2.232     2.336
    72   1 H        0.860     0.162     1.322     1.801

Wiberg/Mayer (AO) data.
largest (>0.10) Wiberg bond orders for each atom

     #   Z sym  total        # sym  WBO       # sym  WBO       # sym  WBO
 ---------------------------------------------------------------------------
     1   7 N    3.045 --     2 C    1.959    72 H    0.939
     2   6 C    3.928 --     1 N    1.959     3 C    0.994    47 H    0.891
     3   6 C    3.963 --     2 C    0.994     4 C    0.962    14 C    0.956
                            31 C    0.940
     4   6 C    3.880 --     5 C    1.380    13 C    1.340     3 C    0.962
     5   6 C    3.954 --     6 C    1.395     4 C    1.380    34 H    0.952
     6   6 C    3.845 --     5 C    1.395     9 C    1.167     7 O    1.109
     7   8 O    2.250 --     6 C    1.109     8 C    0.972
     8   6 C    3.923 --    36 H    0.976    37 H    0.973    35 H    0.973
                             7 O    0.972
     9   6 C    3.854 --    12 C    1.384     6 C    1.167    10 O    1.121
    10   8 O    2.248 --     9 C    1.121    11 C    0.969
    11   6 C    3.913 --    39 H    0.978    38 H    0.970    10 O    0.969
                            40 H    0.969
    12   6 C    3.170 --    13 C    1.458     9 C    1.384    41 H    0.115
    13   6 C    3.919 --    12 C    1.458     4 C    1.340    42 H    0.947
    14   6 C    3.972 --    15 C    0.982    44 H    0.972    43 H    0.969
                             3 C    0.956
    15   6 C    3.986 --    16 C    1.059    14 C    0.982    45 H    0.961
                            46 H    0.926
    16   6 C    3.635 --    17 N    1.426    15 C    1.059    48 H    0.956
    17   7 N    3.506 --    16 C    1.426    30 C    0.996    18 C    0.987
    18   6 C    3.953 --    17 N    0.987    50 H    0.968    19 C    0.966
                            49 H    0.963
    19   6 C    3.976 --    20 C    1.008    51 H    0.972    52 H    0.971
                            18 C    0.966
    20   6 C    3.937 --    21 C    1.403    29 C    1.383    19 C    1.008
    21   6 C    3.943 --    22 C    1.420    20 C    1.403    53 H    0.968
    22   6 C    3.955 --    21 C    1.420    23 C    1.379    54 H    0.963
    23   6 C    3.887 --    22 C    1.379    26 C    1.213    24 O    1.117
    24   8 O    2.256 --    23 C    1.117    25 C    0.975
    25   6 C    3.925 --    57 H    0.976    24 O    0.975    55 H    0.972
                            56 H    0.972
    26   6 C    3.891 --    29 C    1.390    23 C    1.213    27 O    1.112
    27   8 O    2.256 --    26 C    1.112    28 C    0.976
    28   6 C    3.928 --    27 O    0.976    58 H    0.976    59 H    0.972
                            60 H    0.972
    29   6 C    3.955 --    26 C    1.390    20 C    1.383    61 H    0.962
    30   6 C    3.952 --    17 N    0.996    64 H    0.977    62 H    0.966
                            63 H    0.957
    31   6 C    3.967 --    33 C    1.008    32 C    1.008    65 H    0.958
                             3 C    0.940
    32   6 C    3.974 --    31 C    1.008    67 H    0.981    68 H    0.980
                            66 H    0.972
    33   6 C    3.980 --    31 C    1.008    70 H    0.983    71 H    0.979
                            69 H    0.976
    34   1 H    0.989 --     5 C    0.952
    35   1 H    0.992 --     8 C    0.973
    36   1 H    0.992 --     8 C    0.976
    37   1 H    0.992 --     8 C    0.973
    38   1 H    0.988 --    11 C    0.970
    39   1 H    0.992 --    11 C    0.978
    40   1 H    0.988 --    11 C    0.969
    41   1 H    0.133 --    12 C    0.115
    42   1 H    0.982 --    13 C    0.947
    43   1 H    0.995 --    14 C    0.969
    44   1 H    0.995 --    14 C    0.972
    45   1 H    0.995 --    15 C    0.961
    46   1 H    0.972 --    15 C    0.926
    47   1 H    0.985 --     2 C    0.891
    48   1 H    0.994 --    16 C    0.956
    49   1 H    0.990 --    18 C    0.963
    50   1 H    0.994 --    18 C    0.968
    51   1 H    0.995 --    19 C    0.972
    52   1 H    0.995 --    19 C    0.971
    53   1 H    0.997 --    21 C    0.968
    54   1 H    0.994 --    22 C    0.963
    55   1 H    0.990 --    25 C    0.972
    56   1 H    0.990 --    25 C    0.972
    57   1 H    0.992 --    25 C    0.976
    58   1 H    0.992 --    28 C    0.976
    59   1 H    0.991 --    28 C    0.972
    60   1 H    0.991 --    28 C    0.972
    61   1 H    0.996 --    29 C    0.962
    62   1 H    0.985 --    30 C    0.966
    63   1 H    0.986 --    30 C    0.957
    64   1 H    0.992 --    30 C    0.977
    65   1 H    0.991 --    31 C    0.958
    66   1 H    0.989 --    32 C    0.972
    67   1 H    0.996 --    32 C    0.981
    68   1 H    0.993 --    32 C    0.980
    69   1 H    0.993 --    33 C    0.976
    70   1 H    0.997 --    33 C    0.983
    71   1 H    0.993 --    33 C    0.979
    72   1 H    0.968 --     1 N    0.939
 ---------------------------------------------------------------------------

molecular dipole:
                 x           y           z       tot (Debye)
 q only:        1.085       0.838      -1.740
   full:        1.318       0.892      -2.011       6.519

           -------------------------------------------------
          | TOTAL ENERGY              -99.244940700831 Eh   |
          | GRADIENT NORM               0.002107522600 Eh/α |
          | HOMO-LUMO GAP               0.668807387169 eV   |
           -------------------------------------------------

 * finished run on 2024/04/06 at 11:12:38.418
