   * xtb version 6.6.1 (8d0f1dd) compiled by 'conda@1efc2f54142f' on 2023-08-01
          program call               : xtb xtbopt.xyz --opt crude --input .xc2 --gfn2

   ID    Z sym.   atoms
    1    7 N      1, 17
    2    6 C      2-6, 8, 9, 11-16, 18-23, 25, 26, 28-33
    3    8 O      7, 10, 24, 27
    4    1 H      34-72

          :  Hamiltonian                  GFN2-xTB          :
 * total energy  :   -99.2452548 Eh     change       -0.6835421E-11 Eh
 * total energy  :   -99.2521954 Eh     change       -0.6940627E-02 Eh
 * total energy  :   -99.2778170 Eh     change       -0.2562161E-01 Eh
 * total energy  :   -99.3448261 Eh     change       -0.6700910E-01 Eh
 * total energy  :   -99.3943363 Eh     change       -0.4951015E-01 Eh
 * total energy  :   -99.3943664 Eh     change       -0.3013151E-04 Eh
 * total energy  :   -99.4040348 Eh     change       -0.9668376E-02 Eh
 * total energy  :   -99.3964715 Eh     change        0.7563317E-02 Eh
 * total energy  :   -99.4052282 Eh     change       -0.8756686E-02 Eh
 * total energy  :   -99.4050012 Eh     change        0.2269839E-03 Eh
 * total energy  :   -99.4064146 Eh     change       -0.1413476E-02 Eh
 * total energy  :   -99.4063348 Eh     change        0.7981324E-04 Eh
 * total energy  :   -99.4065862 Eh     change       -0.2513237E-03 Eh
   *** GEOMETRY OPTIMIZATION CONVERGED AFTER 13 ITERATIONS ***

 final structure:
================
72
 xtb: 6.6.1 (8d0f1dd)
N           -1.91121651357934        2.80668579217014        2.23672158293088
C           -1.84925481094831        2.14076884947983        1.18267512318514
C           -2.99417307090354        1.92832312264200        0.23152648901773
C           -3.46187266949841        0.48231434820501        0.31599809147408
C           -4.43339509465767        0.01670089627772       -0.57217428621292
C           -4.89124957033684       -1.28972744577508       -0.52658208155760
O           -5.83661319387154       -1.81263499852312       -1.33374634787681
C           -6.48698499860965       -0.97995856493470       -2.26506927154950
C           -4.35064719970566       -2.18637543950623        0.43411472470918
O           -4.84465059597212       -3.44072483278599        0.40672991068058
C           -4.44565302561586       -4.35063894837374        1.40594353203315
C           -3.38236483286186       -1.71983789336653        1.30872572228939
C           -2.94837977179132       -0.40092741479820        1.25252360531897
C           -2.43388490595043        2.20244762477781       -1.18904738705353
C           -1.49602658536939        1.10382348413026       -1.72159715293570
C           -0.16696363030671        1.09232299881349       -1.06991159199428
N            0.49027907124540        0.00702960149319       -0.67886671160034
C            1.86703079517242        0.09926320451967       -0.25318888135999
C            2.83767407650953       -0.34965363042615       -1.36230758422992
C            4.25734690888789       -0.14599739232579       -0.91281890382570
C            4.89615278704920        1.06482655832519       -1.12520430696576
C            6.19692295823860        1.26726477538991       -0.69107895023435
C            6.88486581351664        0.26055702941201       -0.02898883167675
O            8.14655903500114        0.34291862957770        0.43142545821418
C            8.87705038952122        1.53056419000923        0.22751373865576
C            6.23517153178912       -0.98426500928265        0.19934615397260
O            6.97551609161232       -1.90570474724179        0.84675229864860
C            6.43023102318906       -3.17956205714242        1.09387535885870
C            4.93373119250888       -1.16253118042587       -0.24273013983397
C           -0.10269987699109       -1.30804523380709       -0.72487202412464
C           -4.20436809168084        2.86556329577891        0.51767235059382
C           -4.86029230584972        2.53569249199064        1.85641549264672
C           -3.83838738929111        4.34659286634332        0.47148956818126
H           -4.85045150916341        0.69216110969706       -1.30019644336717
H           -6.99503411101281       -0.14581622699490       -1.77171684869493
H           -7.22567718823702       -1.61151351277652       -2.75456989221028
H           -5.78961371947398       -0.59343988597526       -3.01540912852897
H           -4.68888595714639       -3.97619937745643        2.40486878484168
H           -5.00821566987914       -5.26228566769569        1.21395690527038
H           -3.37428115522523       -4.56880916570783        1.34790317975388
H           -2.96289978024744       -2.37565173355937        2.05266413105297
H           -2.21811580830724       -0.06711956015889        1.97320207889736
H           -3.26974655988551        2.29574139418424       -1.88138655291839
H           -1.90200225222023        3.15445647418197       -1.18290481257412
H           -1.98894569859054        0.13589622020996       -1.64799216366447
H           -1.33483034278409        1.31587594193726       -2.78666371750336
H           -0.92162312607196        1.66054773592347        0.81078441104038
H            0.38434476542698        2.02126434341561       -1.05106541124944
H            2.01241704740112       -0.52450392043313        0.63291275846862
H            2.09389652619862        1.13275766604850        0.01649082307262
H            2.64314535446113        0.24301086280510       -2.25785348456384
H            2.66393317066073       -1.40004202830219       -1.59852614998838
H            4.38606023417696        1.86085828486577       -1.64615440238865
H            6.67037004128892        2.21681920723893       -0.87900764770603
H            8.40501521098388        2.38210078553509        0.72697693308225
H            8.99461929074875        1.75024536508601       -0.83782235315955
H            9.85531950780435        1.35062247365441        0.66897716426689
H            7.21379610535767       -3.73910355009224        1.60100602869696
H            5.55082566828729       -3.12068644691162        1.74331539961732
H            6.16560250568700       -3.69058725297173        0.16296995000072
H            4.43526854141296       -2.10569150054328       -0.08200741967404
H           -0.26867865073085       -1.63133501300516       -1.75462199411040
H           -1.05974702179844       -1.31382202048286       -0.19677411501375
H            0.56370012337277       -2.01801584845902       -0.24194544459859
H           -4.93965501708846        2.67761394301664       -0.27262039014519
H           -4.16806315773696        2.73277099788251        2.66848102878612
H           -5.16531535443367        1.49285152319795        1.89802158246863
H           -5.74184927028905        3.15644018847959        1.99321337495973
H           -3.08404773014794        4.57425365163438        1.21835155614268
H           -3.47510527087984        4.64431988130333       -0.50869779370682
H           -4.72220254378075        4.93916539250160        0.69263004496929
H           -1.06626514158877        2.90191382060669        2.79121012459956

          :  Hamiltonian                  GFN2-xTB          :
         :: total energy             -99.406586157999 Eh    ::
         :: gradient norm              0.001552083636 Eh/a0 ::
         :: HOMO-LUMO gap              1.675298724614 eV    ::
         :: SCC energy              -100.785836590044 Eh    ::
         :: -> dispersion             -0.075201405505 Eh    ::
         :: repulsion energy           1.378018553359 Eh    ::

    * Orbital Energies and Occupations

         #    Occupation            Energy/Eh            Energy/eV
      -------------------------------------------------------------
         1        2.0000           -0.8089249             -22.0120
       ...           ...                  ...                  ...
        78        1.9983           -0.5290846             -14.3971
        79        1.9983           -0.5288107             -14.3897
        80        1.9982           -0.5281799             -14.3725
        81        1.9976           -0.5232032             -14.2371
        82        1.9971           -0.5201953             -14.1552
        83        1.9960           -0.5153758             -14.0241
        84        1.9952           -0.5124350             -13.9441
        85        1.9943           -0.5097850             -13.8720
        86        1.9813           -0.4908058             -13.3555
        87        1.9786           -0.4886385             -13.2965
        88        1.9393           -0.4718194             -12.8389
        89        1.8749           -0.4598237             -12.5124
        90        1.8435           -0.4560070             -12.4086 (HOMO)
        91        0.3887           -0.3944409             -10.7333 (LUMO)
        92        0.0152           -0.3397791              -9.2459
        93        0.0036           -0.3170274              -8.6268
        94        0.0030           -0.3139300              -8.5425
        95        0.0027           -0.3125297              -8.5044
        96        0.0024           -0.3102306              -8.4418
        97        0.0000           -0.1911928              -5.2026
        98        0.0000           -0.1876900              -5.1073
        99                         -0.1365748              -3.7164
       100                         -0.0687460              -1.8707
       101                         -0.0645755              -1.7572
       ...                                ...                  ...
       171                          0.5764343              15.6856
      -------------------------------------------------------------
                  HL-Gap            0.0615661 Eh            1.6753 eV

     #   Z          covCN         q      C6AA      α(0)
     1   7 N        1.774    -0.267    27.747     7.800
     2   6 C        2.826     0.101    25.752     8.315
     3   6 C        3.907     0.006    20.412     6.422
     4   6 C        2.974     0.003    27.948     8.672
     5   6 C        2.921    -0.079    29.985     8.980
     6   6 C        2.862     0.130    25.151     8.220
     7   8 O        1.706    -0.229    17.802     5.697
     8   6 C        3.644     0.027    20.452     6.500
     9   6 C        2.865     0.128    25.187     8.226
    10   8 O        1.706    -0.229    17.799     5.696
    11   6 C        3.646     0.027    20.452     6.499
    12   6 C        2.914    -0.075    29.882     8.964
    13   6 C        2.921    -0.054    29.343     8.883
    14   6 C        3.812    -0.065    21.739     6.636
    15   6 C        3.802    -0.069    21.820     6.650
    16   6 C        2.843     0.008    27.842     8.648
    17   7 N        2.729     0.011    21.070     6.817
    18   6 C        3.756    -0.016    20.920     6.521
    19   6 C        3.808    -0.070    21.842     6.653
    20   6 C        2.969    -0.000    28.033     8.685
    21   6 C        2.922    -0.049    29.213     8.863
    22   6 C        2.914    -0.067    29.680     8.933
    23   6 C        2.865     0.134    25.078     8.209
    24   8 O        1.706    -0.222    17.677     5.677
    25   6 C        3.645     0.025    20.490     6.506
    26   6 C        2.863     0.133    25.086     8.210
    27   8 O        1.706    -0.224    17.723     5.684
    28   6 C        3.645     0.027    20.454     6.500
    29   6 C        2.919    -0.080    29.988     8.980
    30   6 C        3.699    -0.071    22.032     6.713
    31   6 C        3.852    -0.007    20.675     6.467
    32   6 C        3.756    -0.119    22.834     6.813
    33   6 C        3.755    -0.118    22.816     6.811
    34   1 H        0.926     0.053     2.287     2.365
    35   1 H        0.924     0.054     2.269     2.356
    36   1 H        0.925     0.081     1.965     2.192
    37   1 H        0.924     0.048     2.348     2.396
    38   1 H        0.924     0.055     2.258     2.350
    39   1 H        0.925     0.081     1.966     2.193
    40   1 H        0.924     0.048     2.351     2.398
    41   1 H        0.926     0.051     2.303     2.373
    42   1 H        0.926     0.037     2.486     2.466
    43   1 H        0.925     0.060     2.198     2.319
    44   1 H        0.924     0.053     2.278     2.360
    45   1 H        0.925     0.066     2.131     2.283
    46   1 H        0.924     0.080     1.980     2.201
    47   1 H        0.922     0.008     2.930     2.677
    48   1 H        0.926     0.070     2.088     2.260
    49   1 H        0.924     0.067     2.115     2.274
    50   1 H        0.924     0.067     2.117     2.275
    51   1 H        0.924     0.055     2.256     2.349
    52   1 H        0.924     0.056     2.250     2.346
    53   1 H        0.926     0.045     2.383     2.414
    54   1 H        0.926     0.059     2.215     2.327
    55   1 H        0.924     0.054     2.267     2.354
    56   1 H        0.924     0.056     2.246     2.344
    57   1 H        0.925     0.083     1.953     2.186
    58   1 H        0.925     0.082     1.959     2.189
    59   1 H        0.924     0.049     2.337     2.391
    60   1 H        0.924     0.053     2.289     2.366
    61   1 H        0.926     0.047     2.356     2.401
    62   1 H        0.924     0.076     2.019     2.222
    63   1 H        0.924     0.080     1.975     2.198
    64   1 H        0.925     0.080     1.982     2.201
    65   1 H        0.924     0.037     2.483     2.464
    66   1 H        0.925     0.070     2.086     2.259
    67   1 H        0.925     0.036     2.508     2.476
    68   1 H        0.925     0.051     2.307     2.375
    69   1 H        0.925     0.059     2.213     2.326
    70   1 H        0.925     0.034     2.526     2.486
    71   1 H        0.925     0.055     2.263     2.353
    72   1 H        0.860     0.157     1.352     1.821

Wiberg/Mayer (AO) data.
largest (>0.10) Wiberg bond orders for each atom

     #   Z sym  total        # sym  WBO       # sym  WBO       # sym  WBO
 ---------------------------------------------------------------------------
     1   7 N    3.044 --     2 C    1.958    72 H    0.941
     2   6 C    3.926 --     1 N    1.958     3 C    0.995    47 H    0.894
     3   6 C    3.976 --     2 C    0.995     4 C    0.968    14 C    0.957
                            31 C    0.943
     4   6 C    3.950 --    13 C    1.414     5 C    1.369     3 C    0.968
     5   6 C    3.962 --     6 C    1.401     4 C    1.369    34 H    0.957
     6   6 C    3.906 --     5 C    1.401     9 C    1.222     7 O    1.100
     7   8 O    2.256 --     6 C    1.100     8 C    0.978
     8   6 C    3.932 --     7 O    0.978    36 H    0.977    37 H    0.973
                            35 H    0.973
     9   6 C    3.903 --    12 C    1.393     6 C    1.222    10 O    1.101
    10   8 O    2.252 --     9 C    1.101    11 C    0.977
    11   6 C    3.931 --    10 O    0.977    39 H    0.977    38 H    0.974
                            40 H    0.973
    12   6 C    3.963 --    13 C    1.401     9 C    1.393    41 H    0.964
    13   6 C    3.955 --     4 C    1.414    12 C    1.401    42 H    0.962
    14   6 C    3.973 --    15 C    0.982    44 H    0.972    43 H    0.969
                             3 C    0.957
    15   6 C    3.987 --    16 C    1.059    14 C    0.982    45 H    0.961
                            46 H    0.927
    16   6 C    3.600 --    17 N    1.401    15 C    1.059    48 H    0.957
    17   7 N    3.481 --    16 C    1.401    30 C    0.998    18 C    0.988
    18   6 C    3.956 --    17 N    0.988    50 H    0.968    19 C    0.967
                            49 H    0.964
    19   6 C    3.976 --    20 C    1.008    51 H    0.972    52 H    0.972
                            18 C    0.967
    20   6 C    3.944 --    21 C    1.409    29 C    1.380    19 C    1.008
    21   6 C    3.950 --    22 C    1.417    20 C    1.409    53 H    0.968
    22   6 C    3.959 --    21 C    1.417    23 C    1.383    54 H    0.963
    23   6 C    3.895 --    22 C    1.383    26 C    1.219    24 O    1.111
    24   8 O    2.255 --    23 C    1.111    25 C    0.976
    25   6 C    3.928 --    57 H    0.977    24 O    0.976    55 H    0.973
                            56 H    0.973
    26   6 C    3.899 --    29 C    1.395    23 C    1.219    27 O    1.104
    27   8 O    2.255 --    26 C    1.104    28 C    0.978
    28   6 C    3.932 --    27 O    0.978    58 H    0.977    59 H    0.973
                            60 H    0.973
    29   6 C    3.959 --    26 C    1.395    20 C    1.380    61 H    0.962
    30   6 C    3.957 --    17 N    0.998    64 H    0.978    62 H    0.967
                            63 H    0.959
    31   6 C    3.973 --    33 C    1.009    32 C    1.008    65 H    0.959
                             3 C    0.943
    32   6 C    3.978 --    31 C    1.008    67 H    0.982    68 H    0.981
                            66 H    0.974
    33   6 C    3.984 --    31 C    1.009    70 H    0.983    71 H    0.980
                            69 H    0.977
    34   1 H    0.996 --     5 C    0.957
    35   1 H    0.993 --     8 C    0.973
    36   1 H    0.993 --     8 C    0.977
    37   1 H    0.994 --     8 C    0.973
    38   1 H    0.993 --    11 C    0.974
    39   1 H    0.993 --    11 C    0.977
    40   1 H    0.993 --    11 C    0.973
    41   1 H    0.996 --    12 C    0.964
    42   1 H    0.998 --    13 C    0.962
    43   1 H    0.995 --    14 C    0.969
    44   1 H    0.996 --    14 C    0.972
    45   1 H    0.995 --    15 C    0.961
    46   1 H    0.970 --    15 C    0.927
    47   1 H    0.987 --     2 C    0.894
    48   1 H    0.995 --    16 C    0.957
    49   1 H    0.991 --    18 C    0.964
    50   1 H    0.994 --    18 C    0.968
    51   1 H    0.996 --    19 C    0.972
    52   1 H    0.996 --    19 C    0.972
    53   1 H    0.997 --    21 C    0.968
    54   1 H    0.995 --    22 C    0.963
    55   1 H    0.992 --    25 C    0.973
    56   1 H    0.992 --    25 C    0.973
    57   1 H    0.992 --    25 C    0.977
    58   1 H    0.993 --    28 C    0.977
    59   1 H    0.993 --    28 C    0.973
    60   1 H    0.993 --    28 C    0.973
    61   1 H    0.997 --    29 C    0.962
    62   1 H    0.985 --    30 C    0.967
    63   1 H    0.987 --    30 C    0.959
    64   1 H    0.993 --    30 C    0.978
    65   1 H    0.993 --    31 C    0.959
    66   1 H    0.991 --    32 C    0.974
    67   1 H    0.997 --    32 C    0.982
    68   1 H    0.994 --    32 C    0.981
    69   1 H    0.994 --    33 C    0.977
    70   1 H    0.997 --    33 C    0.983
    71   1 H    0.994 --    33 C    0.980
    72   1 H    0.970 --     1 N    0.941
 ---------------------------------------------------------------------------

molecular dipole:
                 x           y           z       tot (Debye)
 q only:        0.672      -0.045      -0.805
   full:        0.974      -0.088      -0.982       3.522

           -------------------------------------------------
          | TOTAL ENERGY              -99.406586157999 Eh   |
          | GRADIENT NORM               0.001552083636 Eh/α |
          | HOMO-LUMO GAP               1.675298724614 eV   |
           -------------------------------------------------

 * finished run on 2024/04/06 at 11:12:40.828
