   * xtb version 6.6.1 (8d0f1dd) compiled by 'conda@1efc2f54142f' on 2023-08-01
          program call               : xtb xtbopt.xyz --opt crude --input .xc2 --gfn2

   ID    Z sym.   atoms
    1    6 C      1, 3, 5-7, 10, 11, 14
    2    7 N      2, 4, 9, 13
    3    8 O      8, 12
    4    1 H      15-25

          :  Hamiltonian                  GFN2-xTB          :
 * total energy  :   -42.1430567 Eh     change       -0.2536638E-11 Eh
   *** GEOMETRY OPTIMIZATION CONVERGED AFTER 1 ITERATIONS ***

 final structure:
================
25
 xtb: 6.6.1 (8d0f1dd)
C            3.02365237786847        1.18482389227723       -0.01789465687741
N            2.18409164242577        0.15584750254084       -0.01260598244496
C            2.48176559281252       -1.16715837011487       -0.02741368234920
N            1.33202481499359       -1.90364417526031       -0.01369886656984
C            0.27923273483516       -1.04615496224801        0.00637619351092
C            0.78907282842722        0.24609833323418        0.00670772840742
C           -0.06112519514518        1.40629635563919        0.01122966290804
O            0.30236618129880        2.56193273102789        0.01262699556515
N           -1.41574200856718        1.04526744232668        0.01084035614490
C           -2.39499478932042        2.11989053168562        0.01615020795729
C           -1.94758887392741       -0.23043308598554        0.02303880533581
O           -3.13333423374154       -0.43057735855379        0.03630356417065
N           -1.04127983418904       -1.31008408819328        0.01588169592740
C           -1.55835893276392       -2.66157526268021        0.03721489841020
H            4.10426163073621        1.01934542807652       -0.04515164347725
H            5.87262410273462        0.97736286315353       -0.14421374274175
H            2.61452676121265        2.17952735257364       -0.00382527921220
H            3.46856542365986       -1.58181648623989       -0.04171183285305
H           -1.86015888256783        3.06721384922586        0.01785268833856
H           -3.03307896157165        2.04751283365795       -0.86625816805360
H           -3.02906537673662        2.04089823877765        0.90069253018005
H           -1.23249582799762       -3.18146153612459        0.93889268798134
H           -1.23483014852238       -3.20997072171521       -0.84842422173299
H           -2.64678663092069       -2.59892626997039        0.03736075342962
H            1.29708711906821       -2.91197649551010       -0.01879907405645

          :  Hamiltonian                  GFN2-xTB          :
         :: total energy             -42.143056703006 Eh    ::
         :: gradient norm              0.003998689180 Eh/a0 ::
         :: HOMO-LUMO gap              0.339450800303 eV    ::
         :: SCC energy               -42.659032178339 Eh    ::
         :: -> dispersion             -0.022807540777 Eh    ::
         :: repulsion energy           0.515905005416 Eh    ::

    * Orbital Energies and Occupations

         #    Occupation            Energy/Eh            Energy/eV
      -------------------------------------------------------------
         1        2.0000           -0.9102446             -24.7690
       ...           ...                  ...                  ...
        25        1.9989           -0.6753507             -18.3772
        26        1.9987           -0.6716733             -18.2772
        27        1.9983           -0.6651255             -18.0990
        28        1.9951           -0.6399316             -17.4134
        29        1.9943           -0.6361784             -17.3113
        30        1.9933           -0.6323018             -17.2058
        31        1.9900           -0.6228190             -16.9478
        32        1.9824           -0.6092176             -16.5777
        33        1.9600           -0.5894627             -16.0401
        34        1.9166           -0.5714772             -15.5507
        35        1.9132           -0.5704769             -15.5235
        36        1.8935           -0.5653631             -15.3843
        37        1.2565           -0.5094743             -13.8635 (HOMO)
        38        0.9997           -0.4969997             -13.5241 (LUMO)
        39        0.0628           -0.4155830             -11.3086
        40        0.0388           -0.4038252             -10.9886
        41        0.0109           -0.3732904             -10.1577
        42        0.0004           -0.2923414              -7.9550
        43        0.0000           -0.2126984              -5.7878
        44        0.0000           -0.1881872              -5.1208
        45        0.0000           -0.1484531              -4.0396
        46        0.0000           -0.1222449              -3.3265
        47                         -0.0840301              -2.2866
        48                         -0.0535307              -1.4566
       ...                                ...                  ...
        67                          0.5382385              14.6462
      -------------------------------------------------------------
                  HL-Gap            0.0124746 Eh            0.3395 eV

     #   Z          covCN         q      C6AA      α(0)
     1   6 C        2.786    -0.069    29.704     8.927
     2   7 N        2.803     0.127    19.076     6.487
     3   6 C        3.030     0.022    27.486     8.600
     4   7 N        2.774    -0.060    22.399     7.029
     5   6 C        3.017     0.116    25.436     8.273
     6   6 C        3.101    -0.033    28.681     8.776
     7   6 C        2.764     0.270    22.439     7.758
     8   8 O        0.858    -0.345    20.618     6.088
     9   7 N        2.746    -0.075    22.694     7.075
    10   6 C        3.709    -0.062    21.832     6.678
    11   6 C        2.727     0.316    21.637     7.615
    12   8 O        0.860    -0.343    20.568     6.081
    13   7 N        2.738    -0.048    22.159     6.991
    14   6 C        3.697    -0.073    22.075     6.721
    15   1 H        0.924     0.118     1.626     1.994
    16   1 H        0.000    -0.008     7.954     5.157
    17   1 H        0.926     0.139     1.472     1.897
    18   1 H        0.926     0.121     1.603     1.980
    19   1 H        0.925     0.124     1.581     1.966
    20   1 H        0.924     0.111     1.688     2.032
    21   1 H        0.924     0.111     1.686     2.031
    22   1 H        0.924     0.091     1.872     2.139
    23   1 H        0.924     0.090     1.875     2.141
    24   1 H        0.924     0.132     1.522     1.929
    25   1 H        0.860     0.227     0.978     1.549

Wiberg/Mayer (AO) data.
largest (>0.10) Wiberg bond orders for each atom

     #   Z sym  total        # sym  WBO       # sym  WBO       # sym  WBO
 ---------------------------------------------------------------------------
     1   6 C    3.330 --     2 N    1.330    17 H    0.950    15 H    0.904
     2   7 N    3.741 --     1 C    1.330     3 C    1.235     6 C    1.082
     3   6 C    3.603 --     2 N    1.235     4 N    1.224    18 H    0.955
     4   7 N    3.513 --     3 C    1.224     5 C    1.200    25 H    0.920
     5   6 C    3.895 --     6 C    1.324    13 N    1.203     4 N    1.200
     6   6 C    3.799 --     5 C    1.324     7 C    1.100     2 N    1.082
     7   6 C    3.924 --     8 O    1.659     6 C    1.100     9 N    1.076
     8   8 O    1.957 --     7 C    1.659     9 N    0.123
     9   7 N    3.490 --    11 C    1.125     7 C    1.076    10 C    0.976
                            12 O    0.124     8 O    0.123
    10   6 C    3.870 --     9 N    0.976    19 H    0.955    20 H    0.948
                            21 H    0.948
    11   6 C    3.940 --    12 O    1.682     9 N    1.125    13 N    1.044
    12   8 O    1.998 --    11 C    1.682     9 N    0.124    13 N    0.111
    13   7 N    3.501 --     5 C    1.203    11 C    1.044    14 C    0.978
                            12 O    0.111
    14   6 C    3.906 --    13 N    0.978    23 H    0.963    22 H    0.963
                            24 H    0.959
    15   1 H    0.982 --     1 C    0.904
    16   1 H    0.065
    17   1 H    0.974 --     1 C    0.950
    18   1 H    0.984 --     3 C    0.955
    19   1 H    0.974 --    10 C    0.955
    20   1 H    0.965 --    10 C    0.948
    21   1 H    0.965 --    10 C    0.948
    22   1 H    0.980 --    14 C    0.963
    23   1 H    0.980 --    14 C    0.963
    24   1 H    0.978 --    14 C    0.959
    25   1 H    0.948 --     4 N    0.920
 ---------------------------------------------------------------------------

molecular dipole:
                 x           y           z       tot (Debye)
 q only:        1.601      -1.907      -0.011
   full:        1.858      -2.346      -0.014       7.608

           -------------------------------------------------
          | TOTAL ENERGY              -42.143056703006 Eh   |
          | GRADIENT NORM               0.003998689180 Eh/α |
          | HOMO-LUMO GAP               0.339450800303 eV   |
           -------------------------------------------------

 * finished run on 2024/06/05 at 19:58:49.167
