   * xtb version 6.6.1 (8d0f1dd) compiled by 'conda@1efc2f54142f' on 2023-08-01
          program call               : xtb struc.xyz --opt loose --input .xc1 --gfn2

   ID    Z sym.   atoms
    1    7 N      1, 17
    2    6 C      2-6, 8, 9, 11-16, 18-23, 25, 26, 28-33
    3    8 O      7, 10, 24, 27
    4    1 H      34-72
constraining bond 13 41 to    4.1400000 Å, actual value:    2.1311186 Å

          :  Hamiltonian                  GFN2-xTB          :
 * total energy  :   -98.6835608 Eh     change       -0.4035485E-08 Eh
 * total energy  :   -98.8924178 Eh     change       -0.2088570E+00 Eh
 * total energy  :   -99.0278645 Eh     change       -0.1354467E+00 Eh
 * total energy  :   -99.0927415 Eh     change       -0.6487699E-01 Eh
 * total energy  :   -99.1183410 Eh     change       -0.2559953E-01 Eh
 * total energy  :   -99.1332817 Eh     change       -0.1494069E-01 Eh
 * total energy  :   -99.1532370 Eh     change       -0.1995531E-01 Eh
 * total energy  :   -99.1808401 Eh     change       -0.2760308E-01 Eh
 * total energy  :   -99.2066982 Eh     change       -0.2585817E-01 Eh
 * total energy  :   -99.2153615 Eh     change       -0.8663254E-02 Eh
 * total energy  :   -99.2503628 Eh     change       -0.1158552E-03 Eh
 * total energy  :   -99.2505807 Eh     change       -0.2179618E-03 Eh
 * total energy  :   -99.2507458 Eh     change       -0.1650164E-03 Eh
 * total energy  :   -99.2509525 Eh     change       -0.2067909E-03 Eh
 * total energy  :   -99.2511873 Eh     change       -0.2347214E-03 Eh
 * total energy  :   -99.2515010 Eh     change       -0.3137438E-03 Eh
 * total energy  :   -99.2518720 Eh     change       -0.3709717E-03 Eh
 * total energy  :   -99.2519732 Eh     change       -0.1011981E-03 Eh
 * total energy  :   -99.2520169 Eh     change       -0.4376423E-04 Eh
   *** GEOMETRY OPTIMIZATION CONVERGED AFTER 51 ITERATIONS ***

 final structure:
================
72
 xtb: 6.6.1 (8d0f1dd)
N           -1.97618849120934        2.99439323227697        2.20396891731415
C           -1.91255213293608        2.24503416058137        1.20672173579074
C           -3.04197414866664        2.00930620113375        0.24147504292479
C           -3.52215256714288        0.57089029259089        0.35848322632224
C           -4.42500713875465        0.05927253046332       -0.57391698005229
C           -4.87890390650051       -1.25015579134546       -0.51162134416940
O           -5.75434967701128       -1.82538867325188       -1.35893464894213
C           -6.37988617333703       -1.03449025350224       -2.34535236175066
C           -4.38302401709913       -2.08358272048605        0.53138607916555
O           -4.80356606991620       -3.37579900942935        0.54086406353744
C           -4.49568470926248       -4.16513893865531        1.53142562256073
C           -3.50122913619513       -1.56047692812134        1.45467501657963
C           -3.07269027333101       -0.26274555281886        1.38834425296469
C           -2.45090990436586        2.24564826959134       -1.17364313872623
C           -1.52597960212853        1.12111405523265       -1.67439866753443
C           -0.20593046427949        1.09617595348608       -1.00593461356439
N            0.41857273396208        0.00839364316354       -0.57027643431961
C            1.80078916079346        0.07880183656666       -0.15875413790159
C            2.74975234462853       -0.40228231438024       -1.27378428310822
C            4.17895237441030       -0.20210559328583       -0.85421733816535
C            4.81109873069787        1.01154630565115       -1.07100686099804
C            6.12207555749651        1.21164189602546       -0.66782885344684
C            6.82784843533931        0.19917412191846       -0.03398384342492
O            8.10184777663121        0.27824719944776        0.39286070177372
C            8.82949953686893        1.46384715113741        0.16839725331065
C            6.18503689717602       -1.04795271574239        0.19978499727531
O            6.94263668639496       -1.97502451250854        0.81889609859878
C            6.40489218642960       -3.25201353002624        1.06641846826966
C            4.87276776283167       -1.22363473864819       -0.21040293692730
C           -0.20823596125546       -1.29163857788105       -0.57292893188828
C           -4.25859184588453        2.95301929193157        0.47615288849668
C           -4.92655326148739        2.67803807174542        1.82134980207082
C           -3.89681266809901        4.43205336612788        0.37124431815049
H           -4.78732287327123        0.70015960009443       -1.36098501311757
H           -6.92001641727851       -0.19654713340658       -1.89781012084403
H           -7.08569692917714       -1.69552703721839       -2.84409294701386
H           -5.65697445674978       -0.66028826980829       -3.07605103404003
H           -4.06862676536528       -3.76383026906690        2.43924996324539
H           -4.84276069080783       -5.17732163391111        1.44468999039833
H           -2.41579570621407       -4.36547741760818        1.05357037540068
H           -1.70488241905759       -4.13065515590988        0.78879662624237
H           -2.40450933924971        0.12502495933808        2.14249475051335
H           -3.27212813564875        2.34842228208321       -1.88228017334761
H           -1.89879956723788        3.18621952638975       -1.17101532468298
H           -2.03514225537667        0.16238720229210       -1.59190144249024
H           -1.34757060705858        1.31318835599496       -2.74059753917921
H           -0.99601525921097        1.70578026535249        0.89846646182887
H            0.36415091380507        2.01369057783015       -0.99930088071180
H            1.94321364628358       -0.53630908467988        0.73340019630139
H            2.05047951282551        1.11114776231906        0.09476978405525
H            2.54527323584388        0.17401529222184       -2.17804252049886
H            2.56236260253142       -1.45552674176687       -1.48558048316504
H            4.28740084774861        1.81188207946219       -1.57158798703084
H            6.58925459169479        2.16393376419228       -0.85764290274517
H            8.38065180279346        2.31462781892968        0.69006037682170
H            8.90785636411713        1.68917699570859       -0.89935395254789
H            9.82284479997107        1.27721381732067        0.57173118157756
H            7.20287653788915       -3.81718549367750        1.54397316376766
H            5.54457180251959       -3.20135965728189        1.74158020137669
H            6.11358032967427       -3.75205446837157        0.13750640897487
H            4.37916632347000       -2.16850573764419       -0.04513927611695
H           -0.37487418934573       -1.64950717990934       -1.59126570300757
H           -1.16789684105882       -1.25494379017660       -0.05037041197581
H            0.43707475485385       -1.99872573151595       -0.05821445490049
H           -4.98460091085547        2.72607811909141       -0.31317886467860
H           -4.24840665671966        2.92628596468424        2.63136038295686
H           -5.21574327834489        1.63355192435435        1.91108992821527
H           -5.81982342366953        3.28986250224381        1.91650903825378
H           -3.14826666095753        4.69110867331036        1.11338034670920
H           -3.52772353485981        4.69081828792904       -0.61763994347312
H           -4.78417818568636        5.02942509581662        0.56260358252852
H           -1.14203540062236        3.09973572849462        2.77261994880835

          :  Hamiltonian                  GFN2-xTB          :
         :: total energy             -99.252016951295 Eh    ::
         :: gradient norm              0.002442526200 Eh/a0 ::
         :: HOMO-LUMO gap              0.628474181566 eV    ::
         :: SCC energy              -100.641135621479 Eh    ::
         :: -> dispersion             -0.075644399394 Eh    ::
         :: repulsion energy           1.387839550877 Eh    ::

    * Orbital Energies and Occupations

         #    Occupation            Energy/Eh            Energy/eV
      -------------------------------------------------------------
         1        2.0000           -0.8421394             -22.9158
       ...           ...                  ...                  ...
        78        1.9986           -0.5296483             -14.4125
        79        1.9984           -0.5275741             -14.3560
        80        1.9983           -0.5271446             -14.3443
        81        1.9972           -0.5185709             -14.1110
        82        1.9968           -0.5168400             -14.0639
        83        1.9958           -0.5122901             -13.9401
        84        1.9955           -0.5114656             -13.9177
        85        1.9864           -0.4936895             -13.4340
        86        1.9792           -0.4869315             -13.2501
        87        1.9603           -0.4765430             -12.9674
        88        1.9414           -0.4702245             -12.7955
        89        1.8474           -0.4542887             -12.3618
        90        1.2905           -0.4242726             -11.5450 (HOMO)
        91        0.5945           -0.4011766             -10.9166 (LUMO)
        92        0.4016           -0.3929276             -10.6921
        93        0.0151           -0.3375379              -9.1849
        94        0.0032           -0.3129855              -8.5168
        95        0.0028           -0.3107328              -8.4555
        96        0.0024           -0.3085381              -8.3957
        97        0.0021           -0.3065271              -8.3410
        98        0.0000           -0.1859028              -5.0587
        99        0.0000           -0.1847800              -5.0281
       100                         -0.1343588              -3.6561
       101                         -0.0683377              -1.8596
       ...                                ...                  ...
       171                          0.5779778              15.7276
      -------------------------------------------------------------
                  HL-Gap            0.0230960 Eh            0.6285 eV

     #   Z          covCN         q      C6AA      α(0)
     1   7 N        1.774    -0.269    27.807     7.809
     2   6 C        2.826     0.102    25.738     8.313
     3   6 C        3.907     0.008    20.387     6.418
     4   6 C        2.977     0.008    27.825     8.653
     5   6 C        2.919    -0.084    30.114     8.999
     6   6 C        2.860     0.133    25.097     8.211
     7   8 O        1.705    -0.237    17.935     5.718
     8   6 C        3.645     0.028    20.431     6.497
     9   6 C        2.893     0.105    25.681     8.309
    10   8 O        1.709    -0.108    15.946     5.391
    11   6 C        2.755     0.043    27.007     8.510
    12   6 C        1.991    -0.141    35.017     9.556
    13   6 C        2.920    -0.044    29.092     8.845
    14   6 C        3.812    -0.064    21.712     6.632
    15   6 C        3.802    -0.068    21.802     6.648
    16   6 C        2.844     0.006    27.879     8.653
    17   7 N        2.729     0.011    21.066     6.817
    18   6 C        3.756    -0.016    20.920     6.521
    19   6 C        3.808    -0.070    21.835     6.652
    20   6 C        2.969    -0.000    28.037     8.685
    21   6 C        2.922    -0.049    29.220     8.865
    22   6 C        2.914    -0.068    29.684     8.934
    23   6 C        2.865     0.133    25.083     8.210
    24   8 O        1.706    -0.222    17.689     5.679
    25   6 C        3.645     0.025    20.485     6.505
    26   6 C        2.863     0.133    25.089     8.210
    27   8 O        1.706    -0.225    17.731     5.685
    28   6 C        3.645     0.027    20.452     6.500
    29   6 C        2.919    -0.079    29.984     8.979
    30   6 C        3.699    -0.070    22.002     6.708
    31   6 C        3.853    -0.006    20.653     6.464
    32   6 C        3.756    -0.118    22.810     6.810
    33   6 C        3.755    -0.119    22.826     6.812
    34   1 H        0.926     0.051     2.306     2.375
    35   1 H        0.924     0.054     2.265     2.354
    36   1 H        0.925     0.080     1.976     2.198
    37   1 H        0.924     0.048     2.344     2.394
    38   1 H        0.926     0.083     1.944     2.180
    39   1 H        0.926     0.094     1.845     2.124
    40   1 H        0.754     0.012     2.955     2.711
    41   1 H        0.754    -0.003     3.217     2.829
    42   1 H        0.926     0.043     2.407     2.426
    43   1 H        0.925     0.059     2.214     2.327
    44   1 H        0.924     0.054     2.275     2.359
    45   1 H        0.925     0.064     2.150     2.293
    46   1 H        0.923     0.078     1.998     2.210
    47   1 H        0.922     0.006     2.950     2.686
    48   1 H        0.926     0.069     2.102     2.267
    49   1 H        0.924     0.068     2.106     2.269
    50   1 H        0.924     0.067     2.115     2.274
    51   1 H        0.924     0.054     2.265     2.354
    52   1 H        0.924     0.055     2.257     2.349
    53   1 H        0.926     0.044     2.394     2.420
    54   1 H        0.926     0.058     2.222     2.331
    55   1 H        0.924     0.054     2.270     2.356
    56   1 H        0.924     0.055     2.253     2.348
    57   1 H        0.925     0.082     1.957     2.188
    58   1 H        0.925     0.082     1.962     2.191
    59   1 H        0.924     0.049     2.333     2.389
    60   1 H        0.924     0.052     2.293     2.368
    61   1 H        0.926     0.047     2.352     2.398
    62   1 H        0.924     0.074     2.043     2.235
    63   1 H        0.924     0.082     1.961     2.190
    64   1 H        0.925     0.080     1.980     2.200
    65   1 H        0.924     0.035     2.513     2.479
    66   1 H        0.925     0.070     2.089     2.260
    67   1 H        0.925     0.035     2.515     2.480
    68   1 H        0.925     0.050     2.317     2.381
    69   1 H        0.925     0.061     2.187     2.312
    70   1 H        0.925     0.034     2.528     2.487
    71   1 H        0.925     0.055     2.264     2.353
    72   1 H        0.860     0.157     1.354     1.823

Wiberg/Mayer (AO) data.
largest (>0.10) Wiberg bond orders for each atom

     #   Z sym  total        # sym  WBO       # sym  WBO       # sym  WBO
 ---------------------------------------------------------------------------
     1   7 N    3.036 --     2 C    1.954    72 H    0.942
     2   6 C    3.928 --     1 N    1.954     3 C    0.994    47 H    0.901
     3   6 C    3.967 --     2 C    0.994     4 C    0.966    14 C    0.955
                            31 C    0.941
     4   6 C    3.871 --     5 C    1.384    13 C    1.347     3 C    0.966
     5   6 C    3.960 --     6 C    1.389     4 C    1.384    34 H    0.954
     6   6 C    3.849 --     5 C    1.389     9 C    1.203     7 O    1.101
     7   8 O    2.253 --     6 C    1.101     8 C    0.972
     8   6 C    3.928 --    36 H    0.977    35 H    0.975    37 H    0.975
                             7 O    0.972
     9   6 C    3.848 --    12 C    1.356     6 C    1.203    10 O    1.038
    10   8 O    2.410 --    11 C    1.280     9 C    1.038
    11   6 C    3.392 --    10 O    1.280    39 H    0.967    38 H    0.958
    12   6 C    2.994 --    13 C    1.457     9 C    1.356
    13   6 C    3.936 --    12 C    1.457     4 C    1.347    42 H    0.950
    14   6 C    3.971 --    15 C    0.982    44 H    0.972    43 H    0.969
                             3 C    0.955
    15   6 C    3.987 --    16 C    1.059    14 C    0.982    45 H    0.961
                            46 H    0.928
    16   6 C    3.589 --    17 N    1.400    15 C    1.059    48 H    0.957
    17   7 N    3.476 --    16 C    1.400    30 C    0.998    18 C    0.988
    18   6 C    3.955 --    17 N    0.988    50 H    0.967    19 C    0.966
                            49 H    0.964
    19   6 C    3.976 --    20 C    1.008    52 H    0.972    51 H    0.971
                            18 C    0.966
    20   6 C    3.945 --    21 C    1.409    29 C    1.381    19 C    1.008
    21   6 C    3.950 --    22 C    1.417    20 C    1.409    53 H    0.968
    22   6 C    3.960 --    21 C    1.417    23 C    1.384    54 H    0.963
    23   6 C    3.896 --    22 C    1.384    26 C    1.220    24 O    1.110
    24   8 O    2.255 --    23 C    1.110    25 C    0.976
    25   6 C    3.929 --    57 H    0.977    24 O    0.976    56 H    0.973
                            55 H    0.973
    26   6 C    3.899 --    29 C    1.395    23 C    1.220    27 O    1.103
    27   8 O    2.255 --    26 C    1.103    28 C    0.979
    28   6 C    3.932 --    27 O    0.979    58 H    0.977    59 H    0.973
                            60 H    0.973
    29   6 C    3.959 --    26 C    1.395    20 C    1.381    61 H    0.962
    30   6 C    3.957 --    17 N    0.998    64 H    0.977    62 H    0.967
                            63 H    0.959
    31   6 C    3.972 --    33 C    1.008    32 C    1.008    65 H    0.961
                             3 C    0.941
    32   6 C    3.980 --    31 C    1.008    67 H    0.982    68 H    0.982
                            66 H    0.974
    33   6 C    3.982 --    31 C    1.008    70 H    0.983    71 H    0.980
                            69 H    0.976
    34   1 H    0.991 --     5 C    0.954
    35   1 H    0.994 --     8 C    0.975
    36   1 H    0.993 --     8 C    0.977
    37   1 H    0.995 --     8 C    0.975
    38   1 H    0.992 --    11 C    0.958
    39   1 H    0.990 --    11 C    0.967
    40   1 H    0.999 --    41 H    0.947
    41   1 H    0.969 --    40 H    0.947
    42   1 H    0.985 --    13 C    0.950
    43   1 H    0.995 --    14 C    0.969
    44   1 H    0.996 --    14 C    0.972
    45   1 H    0.995 --    15 C    0.961
    46   1 H    0.970 --    15 C    0.928
    47   1 H    0.987 --     2 C    0.901
    48   1 H    0.995 --    16 C    0.957
    49   1 H    0.991 --    18 C    0.964
    50   1 H    0.994 --    18 C    0.967
    51   1 H    0.996 --    19 C    0.971
    52   1 H    0.996 --    19 C    0.972
    53   1 H    0.997 --    21 C    0.968
    54   1 H    0.995 --    22 C    0.963
    55   1 H    0.992 --    25 C    0.973
    56   1 H    0.992 --    25 C    0.973
    57   1 H    0.993 --    25 C    0.977
    58   1 H    0.993 --    28 C    0.977
    59   1 H    0.993 --    28 C    0.973
    60   1 H    0.993 --    28 C    0.973
    61   1 H    0.997 --    29 C    0.962
    62   1 H    0.985 --    30 C    0.967
    63   1 H    0.987 --    30 C    0.959
    64   1 H    0.993 --    30 C    0.977
    65   1 H    0.993 --    31 C    0.961
    66   1 H    0.991 --    32 C    0.974
    67   1 H    0.997 --    32 C    0.982
    68   1 H    0.994 --    32 C    0.982
    69   1 H    0.993 --    33 C    0.976
    70   1 H    0.997 --    33 C    0.983
    71   1 H    0.994 --    33 C    0.980
    72   1 H    0.970 --     1 N    0.942
 ---------------------------------------------------------------------------

molecular dipole:
                 x           y           z       tot (Debye)
 q only:        0.218      -0.435      -0.825
   full:        0.317      -0.347      -1.239       3.368

           -------------------------------------------------
          | TOTAL ENERGY              -99.252016951295 Eh   |
          | GRADIENT NORM               0.002442526200 Eh/α |
          | HOMO-LUMO GAP               0.628474181566 eV   |
           -------------------------------------------------

 * finished run on 2024/04/06 at 11:13:08.213
