   * xtb version 6.6.1 (8d0f1dd) compiled by 'conda@1efc2f54142f' on 2023-08-01
          program call               : xtb struc.xyz --opt loose --input .xc1 --gfn2

   ID    Z sym.   atoms
    1    6 C      1, 3, 5-7, 10, 11, 14
    2    7 N      2, 4, 9, 13
    3    8 O      8, 12
    4    1 H      15-25
constraining bond 1 5 to    6.0000000 Å, actual value:    3.6144824 Å

          :  Hamiltonian                  GFN2-xTB          :
 * total energy  :   -21.9260246 Eh     change       -0.6650680E-10 Eh
 * total energy  :   -30.8806958 Eh     change       -0.8954671E+01 Eh
 * total energy  :   -36.5941326 Eh     change       -0.5713437E+01 Eh
 * total energy  :   -40.0254363 Eh     change       -0.3431304E+01 Eh
 * total energy  :   -41.3707780 Eh     change       -0.1345342E+01 Eh
 * total energy  :   -41.5738289 Eh     change       -0.2030509E+00 Eh
 * total energy  :   -41.6025266 Eh     change       -0.2869766E-01 Eh
 * total energy  :   -41.6651118 Eh     change       -0.6258520E-01 Eh
 * total energy  :   -41.7139761 Eh     change       -0.4886426E-01 Eh
 * total energy  :   -41.7540444 Eh     change       -0.4006839E-01 Eh
 * total energy  :   -42.1345272 Eh     change       -0.1871745E-03 Eh
 * total energy  :   -42.1346976 Eh     change       -0.1704092E-03 Eh
 * total energy  :   -42.1349354 Eh     change       -0.2378225E-03 Eh
 * total energy  :   -42.1351595 Eh     change       -0.2240450E-03 Eh
 * total energy  :   -42.1353305 Eh     change       -0.1709996E-03 Eh
 * total energy  :   -42.1354799 Eh     change       -0.1493933E-03 Eh
 * total energy  :   -42.1355341 Eh     change       -0.5422863E-04 Eh
 * total energy  :   -42.1355625 Eh     change       -0.2837974E-04 Eh
 * total energy  :   -42.1355987 Eh     change       -0.3623077E-04 Eh
   *** GEOMETRY OPTIMIZATION CONVERGED AFTER 66 ITERATIONS ***

 final structure:
================
25
 xtb: 6.6.1 (8d0f1dd)
C            3.86025220384905        3.11393496739273        0.05299499209844
N            2.21569891276060       -0.80734870620262       -0.00966750184346
C            2.22057477012886       -2.10559508669983       -0.00633683780807
N            0.95348810362015       -2.62747229545591       -0.00165482072029
C            0.10739497889204       -1.56692528067699       -0.00294377819417
C            0.91693766586351       -0.42270990169276       -0.00780174236546
C            0.33058022500448        0.89711339064716       -0.01672800108417
O            0.92718574626991        1.94943439215366       -0.02751861390717
N           -1.06662435917060        0.84455578448866       -0.01338004303990
C           -1.78919347855645        2.10613256719157       -0.01852925193288
C           -1.87375431634558       -0.27996443724319       -0.00429666729767
O           -3.07381272999897       -0.20204251991363        0.00021760153874
N           -1.23580348996484       -1.53191173216048       -0.00210443441866
C           -2.04335806066663       -2.73285434978992       -0.00158589462065
H            4.29596514820569        3.15873723803396        1.03416232961920
H            4.49801610840612        3.03737342233535       -0.80694785555438
H            2.79073891769281        3.13345540994568       -0.06655740294886
H            3.10537316380353       -2.71077550873706       -0.00578941831683
H           -1.06318103319044        2.91555283144017       -0.02538056931100
H           -2.42891044752638        2.16381089243587       -0.90003443589282
H           -2.42320702684254        2.17515519338744        0.86605057257699
H           -1.84795983239744       -3.32231355320369        0.89512389078890
H           -1.83577994828089       -3.33030302979499       -0.89022164890765
H           -3.09025799245547       -2.42990363215515       -0.00980868866370
H            0.71006828499999       -3.60689751413116       -0.00009016189112

          :  Hamiltonian                  GFN2-xTB          :
         :: total energy             -42.135598700498 Eh    ::
         :: gradient norm              0.003091400471 Eh/a0 ::
         :: HOMO-LUMO gap              1.096268896184 eV    ::
         :: SCC energy               -42.661100716539 Eh    ::
         :: -> dispersion             -0.020828907475 Eh    ::
         :: repulsion energy           0.525424760098 Eh    ::

    * Orbital Energies and Occupations

         #    Occupation            Energy/Eh            Energy/eV
      -------------------------------------------------------------
         1        2.0000           -0.8854007             -24.0930
       ...           ...                  ...                  ...
        25        1.9996           -0.6538768             -17.7929
        26        1.9988           -0.6365902             -17.3225
        27        1.9981           -0.6285212             -17.1029
        28        1.9978           -0.6265750             -17.0500
        29        1.9973           -0.6231584             -16.9570
        30        1.9969           -0.6212474             -16.9050
        31        1.9930           -0.6080657             -16.5463
        32        1.9927           -0.6073950             -16.5281
        33        1.9737           -0.5870268             -15.9738
        34        1.9222           -0.5694215             -15.4947
        35        1.9137           -0.5677173             -15.4484
        36        1.8709           -0.5609726             -15.2648
        37        1.7101           -0.5467443             -14.8777 (HOMO)
        38        0.6331           -0.5064571             -13.7814 (LUMO)
        39        0.0021           -0.4097370             -11.1495
        40        0.0006           -0.3906731             -10.6308
        41        0.0001           -0.3610825              -9.8256
        42        0.0000           -0.2800193              -7.6197
        43                         -0.1986036              -5.4043
        44                         -0.1565226              -4.2592
        45                         -0.1316640              -3.5828
        46                         -0.0677316              -1.8431
        47                         -0.0448333              -1.2200
        48                         -0.0300373              -0.8174
       ...                                ...                  ...
        67                          0.5516451              15.0110
      -------------------------------------------------------------
                  HL-Gap            0.0402871 Eh            1.0963 eV

     #   Z          covCN         q      C6AA      α(0)
     1   6 C        2.778    -0.067    29.640     8.917
     2   7 N        1.905    -0.157    25.193     7.442
     3   6 C        3.155     0.105    25.397     8.241
     4   7 N        2.788    -0.080    22.792     7.091
     5   6 C        3.057     0.115    25.415     8.267
     6   6 C        3.202     0.024    26.906     8.451
     7   6 C        2.764     0.276    22.335     7.740
     8   8 O        0.858    -0.341    20.538     6.076
     9   7 N        2.745    -0.076    22.712     7.078
    10   6 C        3.710    -0.061    21.814     6.675
    11   6 C        2.732     0.319    21.582     7.606
    12   8 O        0.860    -0.345    20.609     6.087
    13   7 N        2.737    -0.042    22.061     6.976
    14   6 C        3.697    -0.070    22.021     6.712
    15   1 H        0.926     0.137     1.483     1.904
    16   1 H        0.926     0.137     1.483     1.904
    17   1 H        0.926     0.160     1.328     1.802
    18   1 H        0.926     0.110     1.695     2.036
    19   1 H        0.925     0.115     1.656     2.012
    20   1 H        0.924     0.108     1.717     2.049
    21   1 H        0.924     0.108     1.717     2.049
    22   1 H        0.924     0.092     1.863     2.134
    23   1 H        0.924     0.091     1.866     2.136
    24   1 H        0.925     0.128     1.553     1.949
    25   1 H        0.860     0.216     1.029     1.589

Wiberg/Mayer (AO) data.
largest (>0.10) Wiberg bond orders for each atom

     #   Z sym  total        # sym  WBO       # sym  WBO       # sym  WBO
 ---------------------------------------------------------------------------
     1   6 C    2.926 --    15 H    0.978    16 H    0.978    17 H    0.963
     2   7 N    3.001 --     3 C    1.560     6 C    1.270
     3   6 C    3.848 --     2 N    1.560     4 N    1.212    18 H    0.955
     4   7 N    3.576 --     5 C    1.224     3 C    1.212    25 H    0.924
     5   6 C    3.895 --     6 C    1.276     4 N    1.224    13 N    1.212
     6   6 C    3.833 --     5 C    1.276     2 N    1.270     7 C    1.070
     7   6 C    3.945 --     8 O    1.677     9 N    1.097     6 C    1.070
     8   8 O    1.971 --     7 C    1.677     9 N    0.127
     9   7 N    3.512 --    11 C    1.121     7 C    1.097    10 C    0.976
                             8 O    0.127    12 O    0.123
    10   6 C    3.886 --     9 N    0.976    19 H    0.963    20 H    0.952
                            21 H    0.952
    11   6 C    3.954 --    12 O    1.686     9 N    1.121    13 N    1.053
    12   8 O    1.994 --    11 C    1.686     9 N    0.123    13 N    0.108
    13   7 N    3.496 --     5 C    1.212    11 C    1.053    14 C    0.978
                            12 O    0.108
    14   6 C    3.910 --    13 N    0.978    24 H    0.962    23 H    0.962
                            22 H    0.962
    15   1 H    0.980 --     1 C    0.978
    16   1 H    0.980 --     1 C    0.978
    17   1 H    0.972 --     1 C    0.963
    18   1 H    0.985 --     3 C    0.955
    19   1 H    0.982 --    10 C    0.963
    20   1 H    0.969 --    10 C    0.952
    21   1 H    0.969 --    10 C    0.952
    22   1 H    0.979 --    14 C    0.962
    23   1 H    0.979 --    14 C    0.962
    24   1 H    0.982 --    14 C    0.962
    25   1 H    0.952 --     4 N    0.924
 ---------------------------------------------------------------------------

molecular dipole:
                 x           y           z       tot (Debye)
 q only:        1.851      -0.947       0.029
   full:        1.723      -1.639       0.034       6.044

           -------------------------------------------------
          | TOTAL ENERGY              -42.135598700498 Eh   |
          | GRADIENT NORM               0.003091400471 Eh/α |
          | HOMO-LUMO GAP               1.096268896184 eV   |
           -------------------------------------------------

 * finished run on 2024/06/05 at 19:59:07.372
