   * xtb version 6.6.1 (8d0f1dd) compiled by 'conda@1efc2f54142f' on 2023-08-01
          program call               : xtb struc.xyz --opt loose --input .xc1 --gfn2

   ID    Z sym.   atoms
    1    7 N      1, 17
    2    6 C      2-6, 8, 9, 11-16, 18-23, 25, 26, 28-33
    3    8 O      7, 10, 24, 27
    4    1 H      34-72
constraining bond 19 30 to    6.0000000 Å, actual value:    3.1453292 Å

          :  Hamiltonian                  GFN2-xTB          :
 * total energy  :   -97.9490749 Eh     change       -0.4035485E-08 Eh
 * total energy  :   -98.3225727 Eh     change       -0.3734978E+00 Eh
 * total energy  :   -98.5535342 Eh     change       -0.2309614E+00 Eh
 * total energy  :   -98.7180774 Eh     change       -0.1645433E+00 Eh
 * total energy  :   -98.8543560 Eh     change       -0.1362786E+00 Eh
 * total energy  :   -98.9730153 Eh     change       -0.1186593E+00 Eh
 * total energy  :   -99.0639047 Eh     change       -0.9088946E-01 Eh
 * total energy  :   -99.1191081 Eh     change       -0.5520332E-01 Eh
 * total energy  :   -99.1496658 Eh     change       -0.3055775E-01 Eh
 * total energy  :   -99.1718062 Eh     change       -0.2214038E-01 Eh
 * total energy  :   -99.3641145 Eh     change       -0.1786641E-03 Eh
 * total energy  :   -99.3642884 Eh     change       -0.1738671E-03 Eh
 * total energy  :   -99.3644233 Eh     change       -0.1349740E-03 Eh
 * total energy  :   -99.3645288 Eh     change       -0.1054219E-03 Eh
 * total energy  :   -99.3646256 Eh     change       -0.9684004E-04 Eh
 * total energy  :   -99.3647058 Eh     change       -0.8022885E-04 Eh
 * total energy  :   -99.3647714 Eh     change       -0.6557862E-04 Eh
 * total energy  :   -99.3648331 Eh     change       -0.6165981E-04 Eh
 * total energy  :   -99.3648814 Eh     change       -0.4831084E-04 Eh
   *** GEOMETRY OPTIMIZATION CONVERGED AFTER 85 ITERATIONS ***

 final structure:
================
72
 xtb: 6.6.1 (8d0f1dd)
N           -1.82284679777463        3.28449658841528        2.10581749364750
C           -1.77414387108164        2.38286617498536        1.24171265293689
C           -2.90386974719588        2.07440292936757        0.29207886670631
C           -3.20735887535742        0.59747505181263        0.32986734120217
C           -3.96628987238095        0.00512782968545       -0.68724295950416
C           -4.21798168586796       -1.34475149249116       -0.71668487686334
O           -4.94030004979629       -1.98291702325224       -1.62514047816209
C           -5.59652034532813       -1.26293234911523       -2.64901017915007
C           -3.59490935470110       -2.28581779244436        0.29206990455344
O           -4.62221895440428       -3.20293335737061        0.63966401395869
C           -4.35739797927297       -4.15827180271018        1.63890078832149
C           -3.00795619766224       -1.53901894335392        1.44834343848131
C           -2.79440423897079       -0.20517258812920        1.41977693623418
C           -2.39373082801305        2.49619293837694       -1.11554887700831
C           -1.40219010522286        1.53323262554036       -1.78009549162542
C           -0.05433957519881        1.50714843165819       -1.14841974848836
N            0.51630132225419        0.42630566388873       -0.85956100161242
C            1.84239629240160        0.39583935245305       -0.32979836127356
C            2.80437495698491       -0.20842801546416       -1.37057996478824
C            4.22605461677652       -0.06938582997413       -0.91400021156942
C            4.87578756205436        1.15421989515949       -1.03560758079421
C            6.17826471980265        1.31915296512400       -0.59843903041494
C            6.87054616884400        0.25726799228598       -0.02855288970713
O            8.13365483670822        0.29890911382890        0.42552560675865
C            8.86307808179732        1.50118005558341        0.33223351406580
C            6.21732100657125       -1.00352162577387        0.09673493929726
O            6.96303714006598       -1.97645927288421        0.64818819235325
C            6.43065145653516       -3.27379184288758        0.77849587307278
C            4.90667519963780       -1.13929215786846       -0.34233968389650
C           -2.42382818589872       -3.00476335148333       -0.44360365365490
C           -4.22234231815916        2.84636715729989        0.62035957266087
C           -4.74225181506894        2.49304437415225        2.01162651268040
C           -4.08481013385762        4.36028233331003        0.49081922841873
H           -4.37778492374139        0.63429717874457       -1.46028956604343
H           -6.30697490511664       -0.54291559776097       -2.23477600169883
H           -6.13453158550000       -2.00718895875561       -3.23299407900507
H           -4.87837691068902       -0.74507603696924       -3.29145126152652
H           -4.37424592623498       -3.71370861967928        2.64178197368237
H           -5.16878997462302       -4.88103843508571        1.56092657510691
H           -3.40561795692697       -4.67645549347070        1.48651976184739
H           -2.69579762995953       -2.12754125946911        2.29562947186845
H           -2.32329237456026        0.27225924039344        2.26685481597440
H           -3.25487435110891        2.60479776643565       -1.77569311412175
H           -1.92515090904713        3.47783211670450       -1.02588324229699
H           -1.79428921937040        0.51676373438785       -1.81429696665427
H           -1.25800147152814        1.87621956650082       -2.81026065835127
H           -0.88840498296914        1.75774102298805        1.05738306342420
H            0.42094498713106        2.48796238699785       -0.99052797797056
H            1.83195076122845       -0.24028714409275        0.55981518920129
H            2.19856656553455        1.39983464526558       -0.04645772782971
H            2.66807386234600        0.32788832035220       -2.31230861838178
H            2.54324344825655       -1.25415948473463       -1.53121872921054
H            4.36269772525395        1.99021392482256       -1.48613254080004
H            6.65343545726208        2.28006190107185       -0.71015942960001
H            8.38921572983230        2.30206206983978        0.90777612785775
H            8.97967830319204        1.81852860369402       -0.70826153334650
H            9.84176002636147        1.28297998596501        0.75515672985820
H            7.22666240302727       -3.87239883211161        1.21734426563354
H            5.56071641215452       -3.28538681066993        1.44216947415235
H            6.15552558538564       -3.69273132120913       -0.19408928793572
H            4.40412612337766       -2.08927078964515       -0.25077014682065
H           -2.83883117061027       -3.58776052999200       -1.26168472673936
H           -1.72256525501364       -2.26854524722542       -0.82845598914433
H           -1.89764989859215       -3.66410211523771        0.24155430480560
H           -4.96457451151057        2.50692054410065       -0.11208076377828
H           -4.04871598472684        2.84317277954870        2.77016344116755
H           -4.87919702175453        1.41957588546107        2.12244946656887
H           -5.70122718155499        2.97759116899184        2.17595648049029
H           -3.30994859075570        4.72445623294260        1.15815539351735
H           -3.85546997476496        4.66396426992013       -0.52673682507256
H           -5.02554638175378        4.82640870947412        0.77302503161852
H           -0.99867513015303        3.44512011628356        2.67554257534137

          :  Hamiltonian                  GFN2-xTB          :
         :: total energy             -99.364881370121 Eh    ::
         :: gradient norm              0.002505811713 Eh/a0 ::
         :: HOMO-LUMO gap              1.108942046127 eV    ::
         :: SCC energy              -100.731533939982 Eh    ::
         :: -> dispersion             -0.074021144899 Eh    ::
         :: repulsion energy           1.365279577920 Eh    ::

    * Orbital Energies and Occupations

         #    Occupation            Energy/Eh            Energy/eV
      -------------------------------------------------------------
         1        2.0000           -0.8337078             -22.6863
       ...           ...                  ...                  ...
        78        1.9961           -0.5291437             -14.3987
        79        1.9957           -0.5278069             -14.3624
        80        1.9946           -0.5241512             -14.2629
        81        1.9937           -0.5217090             -14.1964
        82        1.9928           -0.5196116             -14.1394
        83        1.9916           -0.5170135             -14.0687
        84        1.9907           -0.5153636             -14.0238
        85        1.9799           -0.5031534             -13.6915
        86        1.9595           -0.4919080             -13.3855
        87        1.9557           -0.4904486             -13.3458
        88        1.9133           -0.4794577             -13.0467
        89        1.8808           -0.4741485             -12.9022
        90        1.7196           -0.4591851             -12.4951 (HOMO)
        91        0.6372           -0.4184322             -11.3861 (LUMO)
        92        0.0096           -0.3459877              -9.4148
        93        0.0052           -0.3363179              -9.1517
        94        0.0022           -0.3224594              -8.7746
        95        0.0014           -0.3150895              -8.5740
        96        0.0012           -0.3129005              -8.5145
        97        0.0000           -0.2524954              -6.8707
        98        0.0000           -0.1907794              -5.1914
        99                         -0.0924683              -2.5162
       100                         -0.0744393              -2.0256
       101                         -0.0681994              -1.8558
       ...                                ...                  ...
       171                          0.5680517              15.4575
      -------------------------------------------------------------
                  HL-Gap            0.0407529 Eh            1.1089 eV

     #   Z          covCN         q      C6AA      α(0)
     1   7 N        1.774    -0.263    27.643     7.786
     2   6 C        2.828     0.103    25.709     8.308
     3   6 C        3.907     0.009    20.365     6.414
     4   6 C        2.975     0.025    27.448     8.594
     5   6 C        2.905    -0.078    29.960     8.975
     6   6 C        2.859     0.153    24.683     8.143
     7   8 O        1.706    -0.184    17.076     5.579
     8   6 C        3.645     0.016    20.650     6.531
     9   6 C        3.793     0.147    18.230     6.080
    10   8 O        1.701    -0.290    18.828     5.858
    11   6 C        3.634     0.033    20.402     6.501
    12   6 C        2.908    -0.047    29.164     8.855
    13   6 C        2.905    -0.038    28.950     8.822
    14   6 C        3.811    -0.060    21.646     6.622
    15   6 C        3.807    -0.071    21.860     6.656
    16   6 C        2.846     0.082    26.156     8.382
    17   7 N        1.829    -0.213    26.482     7.626
    18   6 C        3.766     0.023    20.224     6.410
    19   6 C        3.810    -0.064    21.726     6.635
    20   6 C        2.967     0.012    27.734     8.638
    21   6 C        2.923    -0.042    29.035     8.836
    22   6 C        2.912    -0.065    29.606     8.922
    23   6 C        2.864     0.136    25.018     8.199
    24   8 O        1.706    -0.212    17.516     5.651
    25   6 C        3.645     0.023    20.529     6.512
    26   6 C        2.862     0.137    25.005     8.196
    27   8 O        1.706    -0.214    17.557     5.657
    28   6 C        3.644     0.024    20.513     6.510
    29   6 C        2.918    -0.074    29.848     8.959
    30   6 C        3.760    -0.115    22.745     6.799
    31   6 C        3.853    -0.006    20.642     6.462
    32   6 C        3.755    -0.117    22.799     6.808
    33   6 C        3.755    -0.122    22.892     6.822
    34   1 H        0.926     0.062     2.181     2.310
    35   1 H        0.924     0.068     2.104     2.268
    36   1 H        0.925     0.093     1.847     2.125
    37   1 H        0.924     0.063     2.163     2.300
    38   1 H        0.924     0.044     2.394     2.420
    39   1 H        0.925     0.078     1.999     2.211
    40   1 H        0.924     0.044     2.393     2.419
    41   1 H        0.926     0.065     2.141     2.288
    42   1 H        0.926     0.056     2.245     2.343
    43   1 H        0.924     0.058     2.226     2.333
    44   1 H        0.924     0.058     2.228     2.334
    45   1 H        0.925     0.062     2.178     2.308
    46   1 H        0.924     0.072     2.067     2.248
    47   1 H        0.923     0.020     2.735     2.586
    48   1 H        0.923     0.017     2.772     2.604
    49   1 H        0.924     0.053     2.283     2.363
    50   1 H        0.923     0.023     2.686     2.563
    51   1 H        0.924     0.057     2.239     2.340
    52   1 H        0.925     0.060     2.196     2.317
    53   1 H        0.926     0.053     2.278     2.360
    54   1 H        0.926     0.062     2.174     2.305
    55   1 H        0.924     0.059     2.211     2.325
    56   1 H        0.924     0.060     2.193     2.316
    57   1 H        0.925     0.086     1.919     2.167
    58   1 H        0.925     0.085     1.926     2.170
    59   1 H        0.924     0.056     2.246     2.344
    60   1 H        0.924     0.058     2.219     2.329
    61   1 H        0.926     0.058     2.228     2.334
    62   1 H        0.925     0.076     2.019     2.222
    63   1 H        0.925     0.054     2.267     2.355
    64   1 H        0.925     0.061     2.183     2.311
    65   1 H        0.924     0.039     2.460     2.453
    66   1 H        0.925     0.066     2.129     2.282
    67   1 H        0.925     0.035     2.516     2.481
    68   1 H        0.925     0.055     2.257     2.349
    69   1 H        0.925     0.072     2.066     2.248
    70   1 H        0.925     0.041     2.437     2.441
    71   1 H        0.925     0.058     2.218     2.329
    72   1 H        0.860     0.162     1.320     1.799

Wiberg/Mayer (AO) data.
largest (>0.10) Wiberg bond orders for each atom

     #   Z sym  total        # sym  WBO       # sym  WBO       # sym  WBO
 ---------------------------------------------------------------------------
     1   7 N    3.013 --     2 C    1.957    72 H    0.939
     2   6 C    3.939 --     1 N    1.957     3 C    0.989    47 H    0.921
     3   6 C    3.969 --     4 C    0.998     2 C    0.989    14 C    0.944
                            31 C    0.929
     4   6 C    3.710 --     5 C    1.341    13 C    1.250     3 C    0.998
     5   6 C    3.950 --     6 C    1.450     4 C    1.341    34 H    0.953
     6   6 C    3.749 --     5 C    1.450     7 O    1.189     9 C    0.973
     7   8 O    2.312 --     6 C    1.189     8 C    0.963
     8   6 C    3.919 --    36 H    0.976    35 H    0.971    37 H    0.971
                             7 O    0.963
     9   6 C    3.950 --    12 C    1.006     6 C    0.973    10 O    0.963
                            30 C    0.915
    10   8 O    2.062 --    11 C    0.989     9 C    0.963
    11   6 C    3.932 --    10 O    0.989    39 H    0.972    40 H    0.971
                            38 H    0.970
    12   6 C    3.759 --    13 C    1.661     9 C    1.006    41 H    0.963
    13   6 C    3.976 --    12 C    1.661     4 C    1.250    42 H    0.956
    14   6 C    3.978 --    15 C    0.993    44 H    0.970    43 H    0.967
                             3 C    0.944
    15   6 C    3.986 --    16 C    1.029    14 C    0.993    45 H    0.965
                            46 H    0.942
    16   6 C    3.948 --    17 N    1.879    15 C    1.029    48 H    0.930
    17   7 N    3.040 --    16 C    1.879    18 C    1.029
    18   6 C    3.967 --    17 N    1.029    19 C    0.960    49 H    0.959
                            50 H    0.957
    19   6 C    3.984 --    20 C    1.015    52 H    0.973    51 H    0.966
                            18 C    0.960
    20   6 C    3.918 --    29 C    1.391    21 C    1.379    19 C    1.015
    21   6 C    3.920 --    22 C    1.432    20 C    1.379    53 H    0.967
    22   6 C    3.946 --    21 C    1.432    23 C    1.367    54 H    0.962
    23   6 C    3.864 --    22 C    1.367    26 C    1.206    24 O    1.121
    24   8 O    2.246 --    23 C    1.121    25 C    0.974
    25   6 C    3.923 --    57 H    0.976    24 O    0.974    55 H    0.971
                            56 H    0.970
    26   6 C    3.872 --    29 C    1.380    23 C    1.206    27 O    1.117
    27   8 O    2.249 --    26 C    1.117    28 C    0.975
    28   6 C    3.925 --    58 H    0.976    27 O    0.975    60 H    0.971
                            59 H    0.971
    29   6 C    3.946 --    20 C    1.391    26 C    1.380    61 H    0.961
    30   6 C    3.932 --    63 H    0.984    62 H    0.977    64 H    0.977
                             9 C    0.915
    31   6 C    3.955 --    32 C    1.008    33 C    1.008    65 H    0.959
                             3 C    0.929
    32   6 C    3.976 --    31 C    1.008    67 H    0.980    68 H    0.980
                            66 H    0.974
    33   6 C    3.970 --    31 C    1.008    70 H    0.981    71 H    0.976
                            69 H    0.970
    34   1 H    0.995 --     5 C    0.953
    35   1 H    0.990 --     8 C    0.971
    36   1 H    0.991 --     8 C    0.976
    37   1 H    0.990 --     8 C    0.971
    38   1 H    0.989 --    11 C    0.970
    39   1 H    0.991 --    11 C    0.972
    40   1 H    0.992 --    11 C    0.971
    41   1 H    0.994 --    12 C    0.963
    42   1 H    0.995 --    13 C    0.956
    43   1 H    0.995 --    14 C    0.967
    44   1 H    0.995 --    14 C    0.970
    45   1 H    0.995 --    15 C    0.965
    46   1 H    0.992 --    15 C    0.942
    47   1 H    0.975 --     2 C    0.921
    48   1 H    0.982 --    16 C    0.930
    49   1 H    0.993 --    18 C    0.959
    50   1 H    0.987 --    18 C    0.957
    51   1 H    0.992 --    19 C    0.966
    52   1 H    0.994 --    19 C    0.973
    53   1 H    0.996 --    21 C    0.967
    54   1 H    0.994 --    22 C    0.962
    55   1 H    0.988 --    25 C    0.971
    56   1 H    0.988 --    25 C    0.970
    57   1 H    0.992 --    25 C    0.976
    58   1 H    0.992 --    28 C    0.976
    59   1 H    0.989 --    28 C    0.971
    60   1 H    0.989 --    28 C    0.971
    61   1 H    0.995 --    29 C    0.961
    62   1 H    0.991 --    30 C    0.977
    63   1 H    0.996 --    30 C    0.984
    64   1 H    0.994 --    30 C    0.977
    65   1 H    0.989 --    31 C    0.959
    66   1 H    0.990 --    32 C    0.974
    67   1 H    0.996 --    32 C    0.980
    68   1 H    0.993 --    32 C    0.980
    69   1 H    0.988 --    33 C    0.970
    70   1 H    0.995 --    33 C    0.981
    71   1 H    0.991 --    33 C    0.976
    72   1 H    0.965 --     1 N    0.939
 ---------------------------------------------------------------------------

molecular dipole:
                 x           y           z       tot (Debye)
 q only:        0.218       0.025      -0.651
   full:        0.727       0.214      -0.705       2.630

           -------------------------------------------------
          | TOTAL ENERGY              -99.364881370121 Eh   |
          | GRADIENT NORM               0.002505811713 Eh/α |
          | HOMO-LUMO GAP               1.108942046127 eV   |
           -------------------------------------------------

 * finished run on 2024/04/06 at 11:13:56.388
