   * xtb version 6.6.1 (8d0f1dd) compiled by 'conda@1efc2f54142f' on 2023-08-01
          program call               : xtb struc.xyz --opt loose --input .xc1 --gfn2

   ID    Z sym.   atoms
    1    6 C      1, 3, 5-7, 10, 11, 14
    2    7 N      2, 4, 9, 13
    3    8 O      8, 12
    4    1 H      15-25
constraining bond 3 16 to    5.1400000 Å, actual value:    2.7548643 Å

          :  Hamiltonian                  GFN2-xTB          :
 * total energy  :   -32.1023865 Eh     change       -0.2401990E-09 Eh
 * total energy  :   -36.1428012 Eh     change       -0.4040415E+01 Eh
 * total energy  :   -39.1494639 Eh     change       -0.3006663E+01 Eh
 * total energy  :   -40.9692753 Eh     change       -0.1819811E+01 Eh
 * total energy  :   -41.7647652 Eh     change       -0.7954899E+00 Eh
 * total energy  :   -41.9165110 Eh     change       -0.1517458E+00 Eh
 * total energy  :   -41.9326438 Eh     change       -0.1613281E-01 Eh
 * total energy  :   -41.9626656 Eh     change       -0.3002179E-01 Eh
 * total energy  :   -41.9763408 Eh     change       -0.1367523E-01 Eh
 * total energy  :   -41.9859449 Eh     change       -0.9604084E-02 Eh
 * total energy  :   -42.1260693 Eh     change       -0.1172709E-03 Eh
 * total energy  :   -42.1258130 Eh     change        0.2563345E-03 Eh
 * total energy  :   -42.1262358 Eh     change       -0.4228649E-03 Eh
 * total energy  :   -42.1262839 Eh     change       -0.4802872E-04 Eh
 * total energy  :   -42.1263651 Eh     change       -0.8121725E-04 Eh
 * total energy  :   -42.1263948 Eh     change       -0.2969971E-04 Eh
 * total energy  :   -42.1264796 Eh     change       -0.8484805E-04 Eh
 * total energy  :   -42.1265241 Eh     change       -0.4443799E-04 Eh
 * total energy  :   -42.1265574 Eh     change       -0.3333106E-04 Eh
   *** GEOMETRY OPTIMIZATION CONVERGED AFTER 67 ITERATIONS ***

 final structure:
================
25
 xtb: 6.6.1 (8d0f1dd)
C            3.13775541116154        1.54645913029071       -0.01435472675449
N            2.37612917521353        0.37395656233917        0.03408472245998
C            2.47820365030965       -2.60446269945962        0.35266798898536
N            1.23603937865849       -2.30881806235975        0.17759917755056
C            0.51562293816522       -1.11912441231971        0.05593866262911
C            1.09463917305074        0.18182150350455        0.02221457057285
C            0.15783558844246        1.34926697096094       -0.02974872240277
O            0.55357976905976        2.49672887111234       -0.02612151799861
N           -1.18467064363842        1.05804208338016       -0.07633669491798
C           -2.13651698715819        2.15839470866216       -0.11427295540473
C           -1.73689639051184       -0.20369222763578       -0.09731971390577
O           -2.92882499245414       -0.37257948804544       -0.16740841696153
N           -0.84739883731407       -1.27598724800999       -0.02742306713276
C           -1.46872842045160       -2.59124891172996       -0.03999078288945
H            3.88349574257374        1.42303496913053       -0.80861173427084
H            2.58683270050738        2.50102409940303       -0.17839915314053
H            3.69211685872567        1.62917759397366        0.92765447157233
H            3.24615868996810       -1.84596736379545        0.42213674580092
H           -1.58405525227956        3.09563772083485       -0.12916301629457
H           -2.76279711803717        2.07110518659385       -1.00307021854306
H           -2.78290609691633        2.11558205731961        0.76379189244240
H           -1.28277585233741       -3.13218286758023        0.89104216191118
H           -1.15295772941840       -3.17349988628627       -0.90884649684855
H           -2.54696745861631       -2.43129294179530       -0.12066834858223
H            0.61751821739761       -3.12313680688743        0.12577679002329

          :  Hamiltonian                  GFN2-xTB          :
         :: total energy             -42.126557395726 Eh    ::
         :: gradient norm              0.002654103452 Eh/a0 ::
         :: HOMO-LUMO gap              0.171909809873 eV    ::
         :: SCC energy               -42.628047511801 Eh    ::
         :: -> dispersion             -0.022081291266 Eh    ::
         :: repulsion energy           0.501300540936 Eh    ::

    * Orbital Energies and Occupations

         #    Occupation            Energy/Eh            Energy/eV
      -------------------------------------------------------------
         1        2.0000           -0.8954530             -24.3665
       ...           ...                  ...                  ...
        25        1.9981           -0.6735843             -18.3292
        26        1.9972           -0.6649633             -18.0946
        27        1.9947           -0.6493599             -17.6700
        28        1.9930           -0.6430103             -17.4972
        29        1.9902           -0.6348048             -17.2739
        30        1.9875           -0.6290273             -17.1167
        31        1.9836           -0.6225681             -16.9409
        32        1.9713           -0.6091878             -16.5768
        33        1.9587           -0.6003486             -16.3363
        34        1.9454           -0.5935783             -16.1521
        35        1.9188           -0.5838017             -15.8861
        36        1.6312           -0.5440155             -14.8034
        37        1.2790           -0.5223184             -14.2130 (HOMO)
        38        1.1525           -0.5160008             -14.0411 (LUMO)
        39        0.1733           -0.4527565             -12.3201
        40        0.0220           -0.4018557             -10.9350
        41        0.0106           -0.3843513             -10.4587
        42        0.0003           -0.2995797              -8.1520
        43        0.0000           -0.2098482              -5.7103
        44        0.0000           -0.1674955              -4.5578
        45        0.0000           -0.1522408              -4.1427
        46                         -0.0949814              -2.5846
        47                         -0.0863860              -2.3507
        48                         -0.0497553              -1.3539
       ...                                ...                  ...
        67                          0.5248571              14.2821
      -------------------------------------------------------------
                  HL-Gap            0.0063176 Eh            0.1719 eV

     #   Z          covCN         q      C6AA      α(0)
     1   6 C        3.685    -0.050    21.678     6.666
     2   7 N        1.831    -0.126    24.507     7.336
     3   6 C        1.841    -0.063    32.858     9.260
     4   7 N        2.687     0.001    21.254     6.847
     5   6 C        2.832     0.084    26.122     8.375
     6   6 C        2.884     0.053    26.817     8.490
     7   6 C        2.769     0.262    22.589     7.784
     8   8 O        0.859    -0.327    20.282     6.038
     9   7 N        2.739    -0.061    22.426     7.033
    10   6 C        3.709    -0.061    21.817     6.676
    11   6 C        2.726     0.315    21.639     7.615
    12   8 O        0.860    -0.347    20.651     6.093
    13   7 N        2.743    -0.047    22.144     6.989
    14   6 C        3.702    -0.082    22.224     6.741
    15   1 H        0.924     0.123     1.587     1.970
    16   1 H        0.921     0.139     1.470     1.896
    17   1 H        0.924     0.125     1.574     1.962
    18   1 H        0.925     0.129     1.541     1.941
    19   1 H        0.925     0.123     1.593     1.974
    20   1 H        0.924     0.115     1.652     2.010
    21   1 H        0.924     0.113     1.667     2.019
    22   1 H        0.924     0.096     1.822     2.111
    23   1 H        0.924     0.096     1.824     2.112
    24   1 H        0.924     0.142     1.448     1.882
    25   1 H        0.859     0.248     0.892     1.480

Wiberg/Mayer (AO) data.
largest (>0.10) Wiberg bond orders for each atom

     #   Z sym  total        # sym  WBO       # sym  WBO       # sym  WBO
 ---------------------------------------------------------------------------
     1   6 C    3.841 --     2 N    1.107    15 H    0.910    17 H    0.904
                            16 H    0.873
     2   7 N    2.755 --     6 C    1.513     1 C    1.107
     3   6 C    2.597 --     4 N    1.575    18 H    0.908
     4   7 N    3.625 --     3 C    1.575     5 C    1.098    25 H    0.866
     5   6 C    3.644 --     6 C    1.207    13 N    1.180     4 N    1.098
     6   6 C    3.872 --     2 N    1.513     5 C    1.207     7 C    0.957
     7   6 C    3.850 --     8 O    1.665     9 N    1.137     6 C    0.957
     8   8 O    1.947 --     7 C    1.665     9 N    0.119
     9   7 N    3.501 --     7 C    1.137    11 C    1.107    10 C    0.969
                             8 O    0.119    12 O    0.110
    10   6 C    3.862 --     9 N    0.969    19 H    0.956    20 H    0.947
                            21 H    0.947
    11   6 C    3.924 --    12 O    1.660     9 N    1.107    13 N    1.075
    12   8 O    1.955 --    11 C    1.660     9 N    0.110    13 N    0.108
    13   7 N    3.461 --     5 C    1.180    11 C    1.075    14 C    0.980
                            12 O    0.108
    14   6 C    3.902 --    13 N    0.980    23 H    0.955    22 H    0.955
                            24 H    0.946
    15   1 H    0.937 --     1 C    0.910
    16   1 H    0.905 --     1 C    0.873
    17   1 H    0.935 --     1 C    0.904
    18   1 H    0.935 --     3 C    0.908
    19   1 H    0.974 --    10 C    0.956
    20   1 H    0.965 --    10 C    0.947
    21   1 H    0.965 --    10 C    0.947
    22   1 H    0.977 --    14 C    0.955
    23   1 H    0.977 --    14 C    0.955
    24   1 H    0.974 --    14 C    0.946
    25   1 H    0.917 --     4 N    0.866
 ---------------------------------------------------------------------------

molecular dipole:
                 x           y           z       tot (Debye)
 q only:        1.191      -1.415       0.072
   full:        1.085      -1.235       0.058       4.180

           -------------------------------------------------
          | TOTAL ENERGY              -42.126557395726 Eh   |
          | GRADIENT NORM               0.002654103452 Eh/α |
          | HOMO-LUMO GAP               0.171909809873 eV   |
           -------------------------------------------------

 * finished run on 2024/06/05 at 19:58:45.226
