   * xtb version 6.6.1 (8d0f1dd) compiled by 'conda@1efc2f54142f' on 2023-08-01
          program call               : xtb xtbopt.xyz --opt crude --input .xc2 --gfn2

   ID    Z sym.   atoms
    1    6 C      1, 3, 5-7, 10, 11, 14
    2    7 N      2, 4, 9, 13
    3    8 O      8, 12
    4    1 H      15-25
########################################################################
[WARNING] Please study the warnings concerning your input carefully
-1- readin_getIntValue: could not parse ''
########################################################################

          :  Hamiltonian                  GFN2-xTB          :
 * total energy  :   -42.1266178 Eh     change       -0.1330136E-10 Eh
 * total energy  :   -42.1293457 Eh     change       -0.2727882E-02 Eh
 * total energy  :   -42.1313949 Eh     change       -0.2049201E-02 Eh
 * total energy  :   -42.1316794 Eh     change       -0.2845035E-03 Eh
   *** GEOMETRY OPTIMIZATION CONVERGED AFTER 4 ITERATIONS ***

 final structure:
================
25
 xtb: 6.6.1 (8d0f1dd)
C            3.16143114017204        1.41130554506926        0.01744229556062
N            2.35644640969452        0.27444224133278        0.05387494082107
C            2.54672136599234       -2.35161710819991        0.29346105221985
N            1.26569491587956       -2.24206695887439        0.16543719088238
C            0.46789953998886       -1.11357969620509        0.05998851741134
C            1.06304210197294        0.16792208278070        0.02903295715137
C            0.15280259409142        1.34917980604588       -0.03558511242117
O            0.56302761421886        2.49209374072790       -0.04483137371405
N           -1.19215715818861        1.06059782559064       -0.07913927010992
C           -2.13739618245690        2.16559195358692       -0.12398414300921
C           -1.76020345376642       -0.19832532150326       -0.09204515114515
O           -2.95335360694355       -0.35568509291490       -0.15931029168726
N           -0.88376590940749       -1.28169726240308       -0.01932197761839
C           -1.48914347386906       -2.60123978623825       -0.03181425674341
H            3.89579460589702        1.30635384998825       -0.78788191737516
H            2.57200724378453        2.32525811006431       -0.13659547383393
H            3.71528816438967        1.50281156196519        0.95849529419735
H            3.21941127436716       -1.50535074678352        0.34211747532008
H           -1.58045191901035        3.10012364200266       -0.14235630228888
H           -2.76339126475316        2.07811712397676       -1.01316208909209
H           -2.78603164115376        2.12993354145403        0.75285839080441
H           -1.28957453258364       -3.13737938534688        0.89798001108954
H           -1.15542280617258       -3.17919210013341       -0.89593956017066
H           -2.56801470599410       -2.45683045566449       -0.11562543933152
H            0.73977119795118       -3.12252856871751        0.13807585098289

          :  Hamiltonian                  GFN2-xTB          :
         :: total energy             -42.131679406157 Eh    ::
         :: gradient norm              0.007149378599 Eh/a0 ::
         :: HOMO-LUMO gap              0.111411767880 eV    ::
         :: SCC energy               -42.639264038720 Eh    ::
         :: -> dispersion             -0.022307150524 Eh    ::
         :: repulsion energy           0.507453742043 Eh    ::

    * Orbital Energies and Occupations

         #    Occupation            Energy/Eh            Energy/eV
      -------------------------------------------------------------
         1        2.0000           -0.8954467             -24.3663
       ...           ...                  ...                  ...
        25        1.9982           -0.6753233             -18.3765
        26        1.9981           -0.6732175             -18.3192
        27        1.9948           -0.6494502             -17.6724
        28        1.9931           -0.6427654             -17.4905
        29        1.9911           -0.6368638             -17.3299
        30        1.9879           -0.6294332             -17.1277
        31        1.9836           -0.6222763             -16.9330
        32        1.9725           -0.6098275             -16.5943
        33        1.9607           -0.6012038             -16.3596
        34        1.9494           -0.5950768             -16.1929
        35        1.9189           -0.5834870             -15.8775
        36        1.7205           -0.5514955             -15.0070
        37        1.2010           -0.5180139             -14.0959 (HOMO)
        38        1.1171           -0.5139196             -13.9845 (LUMO)
        39        0.1859           -0.4542227             -12.3600
        40        0.0226           -0.4021077             -10.9419
        41        0.0112           -0.3854075             -10.4875
        42        0.0003           -0.2985191              -8.1231
        43        0.0000           -0.2072676              -5.6400
        44        0.0000           -0.1627807              -4.4295
        45        0.0000           -0.1490896              -4.0569
        46                         -0.0934577              -2.5431
        47                         -0.0794889              -2.1630
        48                         -0.0378984              -1.0313
       ...                                ...                  ...
        67                          0.5250790              14.2881
      -------------------------------------------------------------
                  HL-Gap            0.0040943 Eh            0.1114 eV

     #   Z          covCN         q      C6AA      α(0)
     1   6 C        3.690    -0.051    21.688     6.665
     2   7 N        1.836    -0.130    24.601     7.350
     3   6 C        1.847    -0.068    32.991     9.279
     4   7 N        2.688     0.006    21.156     6.831
     5   6 C        2.850     0.085    26.092     8.372
     6   6 C        2.891     0.048    26.924     8.507
     7   6 C        2.768     0.262    22.584     7.783
     8   8 O        0.858    -0.328    20.298     6.041
     9   7 N        2.739    -0.063    22.453     7.038
    10   6 C        3.709    -0.061    21.813     6.675
    11   6 C        2.726     0.315    21.647     7.617
    12   8 O        0.860    -0.345    20.610     6.087
    13   7 N        2.741    -0.043    22.069     6.977
    14   6 C        3.700    -0.079    22.177     6.734
    15   1 H        0.924     0.120     1.613     1.986
    16   1 H        0.923     0.138     1.477     1.901
    17   1 H        0.924     0.121     1.603     1.980
    18   1 H        0.925     0.148     1.406     1.854
    19   1 H        0.925     0.122     1.594     1.974
    20   1 H        0.924     0.115     1.654     2.011
    21   1 H        0.924     0.113     1.669     2.020
    22   1 H        0.924     0.095     1.830     2.116
    23   1 H        0.924     0.095     1.834     2.118
    24   1 H        0.924     0.139     1.470     1.896
    25   1 H        0.859     0.245     0.905     1.490

Wiberg/Mayer (AO) data.
largest (>0.10) Wiberg bond orders for each atom

     #   Z sym  total        # sym  WBO       # sym  WBO       # sym  WBO
 ---------------------------------------------------------------------------
     1   6 C    3.845 --     2 N    1.099    15 H    0.915    17 H    0.909
                            16 H    0.876
     2   7 N    2.789 --     6 C    1.493     1 C    1.099
     3   6 C    2.607 --     4 N    1.560    18 H    0.878
     4   7 N    3.628 --     3 C    1.560     5 C    1.107    25 H    0.876
     5   6 C    3.669 --     6 C    1.214    13 N    1.188     4 N    1.107
     6   6 C    3.871 --     2 N    1.493     5 C    1.214     7 C    0.966
     7   6 C    3.852 --     8 O    1.661     9 N    1.136     6 C    0.966
     8   8 O    1.954 --     7 C    1.661     9 N    0.121
     9   7 N    3.502 --     7 C    1.136    11 C    1.104    10 C    0.970
                             8 O    0.121    12 O    0.111
    10   6 C    3.863 --     9 N    0.970    19 H    0.957    20 H    0.947
                            21 H    0.947
    11   6 C    3.924 --    12 O    1.664     9 N    1.104    13 N    1.071
    12   8 O    1.958 --    11 C    1.664     9 N    0.111    13 N    0.108
    13   7 N    3.466 --     5 C    1.188    11 C    1.071    14 C    0.979
                            12 O    0.108
    14   6 C    3.902 --    13 N    0.979    23 H    0.958    22 H    0.957
                            24 H    0.951
    15   1 H    0.941 --     1 C    0.915
    16   1 H    0.913 --     1 C    0.876
    17   1 H    0.938 --     1 C    0.909
    18   1 H    0.934 --     3 C    0.878
    19   1 H    0.974 --    10 C    0.957
    20   1 H    0.965 --    10 C    0.947
    21   1 H    0.965 --    10 C    0.947
    22   1 H    0.977 --    14 C    0.957
    23   1 H    0.977 --    14 C    0.958
    24   1 H    0.975 --    14 C    0.951
    25   1 H    0.919 --     4 N    0.876
 ---------------------------------------------------------------------------

molecular dipole:
                 x           y           z       tot (Debye)
 q only:        1.231      -1.511       0.094
   full:        1.087      -1.373       0.085       4.456

           -------------------------------------------------
          | TOTAL ENERGY              -42.131679406157 Eh   |
          | GRADIENT NORM               0.007149378599 Eh/α |
          | HOMO-LUMO GAP               0.111411767880 eV   |
           -------------------------------------------------

 * finished run on 2024/06/05 at 19:58:45.472
