   * xtb version 6.6.1 (8d0f1dd) compiled by 'conda@1efc2f54142f' on 2023-08-01
          program call               : xtb struc.xyz --opt loose --input .xc1 --gfn2

   ID    Z sym.   atoms
    1    6 C      1, 3, 5-7, 10, 11, 14
    2    7 N      2, 4, 9, 13
    3    8 O      8, 12
    4    1 H      15-25
constraining bond 2 7 to    4.9200000 Å, actual value:    2.5746944 Å

          :  Hamiltonian                  GFN2-xTB          :
 * total energy  :   -32.4266140 Eh     change       -0.6650680E-10 Eh
 * total energy  :   -36.1677528 Eh     change       -0.3741139E+01 Eh
 * total energy  :   -39.0630925 Eh     change       -0.2895340E+01 Eh
 * total energy  :   -40.8096021 Eh     change       -0.1746510E+01 Eh
 * total energy  :   -41.5810741 Eh     change       -0.7714721E+00 Eh
 * total energy  :   -41.7061473 Eh     change       -0.1250732E+00 Eh
 * total energy  :   -41.7318425 Eh     change       -0.2569517E-01 Eh
 * total energy  :   -41.7718873 Eh     change       -0.4004479E-01 Eh
 * total energy  :   -41.8016001 Eh     change       -0.2971283E-01 Eh
 * total energy  :   -41.8329120 Eh     change       -0.3131189E-01 Eh
 * total energy  :   -42.1547559 Eh     change       -0.1885867E-02 Eh
 * total energy  :   -42.1561437 Eh     change       -0.1387790E-02 Eh
 * total energy  :   -42.1574117 Eh     change       -0.1267979E-02 Eh
 * total energy  :   -42.1582541 Eh     change       -0.8424215E-03 Eh
 * total energy  :   -42.1587241 Eh     change       -0.4699703E-03 Eh
 * total energy  :   -42.1586816 Eh     change        0.4248279E-04 Eh
 * total energy  :   -42.1590305 Eh     change       -0.3489578E-03 Eh
 * total energy  :   -42.1592783 Eh     change       -0.2477159E-03 Eh
 * total energy  :   -42.1593140 Eh     change       -0.3572503E-04 Eh
   *** GEOMETRY OPTIMIZATION CONVERGED AFTER 47 ITERATIONS ***

 final structure:
================
25
 xtb: 6.6.1 (8d0f1dd)
C            4.42637286026575        0.28163882228641       -0.04317006485284
N            3.72281024820899       -0.73228675123947        0.20806347824133
C            2.78056186500996       -1.57431721790562        0.05404357355666
N            1.43476085324144       -1.46014182846184        0.04959436745057
C            0.45736997522547       -0.45205707600505        0.05209347704175
C            0.65754141208034        0.89211726003061        0.09669840310974
C           -0.45842335596501        1.84456218516583        0.07811706623967
O           -0.30941737734137        3.04255029412885        0.12063050981247
N           -1.71042174718122        1.25484465269180        0.00375570267011
C           -2.88115303414473        2.11409255387651       -0.03107185523867
C           -1.94738633947078       -0.09345971253289       -0.03672291214080
O           -3.06133024768741       -0.54589981937906       -0.09788777226234
N           -0.82567439062575       -0.94399305205200       -0.00625437173035
C           -1.13296577107559       -2.36437934483654       -0.04845237420908
H            5.06852682753146        0.67853329203243        0.73065152708986
H            4.46993709327655        0.72162752986534       -1.03385689719935
H            1.64297439529810        1.32040651074836        0.15230831685665
H            3.11098070232425       -2.61191227950144        0.03121449515096
H           -2.53942631431951        3.14697341331775       -0.02565211038732
H           -3.46307161222472        1.90817759106750       -0.92950665651926
H           -3.51129337229447        1.91901359065434        0.83704769195506
H           -0.80394777853435       -2.87553888053587        0.85901945088772
H           -0.72991169825666       -2.83877719138439       -0.94572981750667
H           -2.22133717311390       -2.44249085045581       -0.09439754017895
H            0.98435549387331       -2.37104514997555        0.05063593006309

          :  Hamiltonian                  GFN2-xTB          :
         :: total energy             -42.159313985804 Eh    ::
         :: gradient norm              0.002696616716 Eh/a0 ::
         :: HOMO-LUMO gap              2.120842847178 eV    ::
         :: SCC energy               -42.708120960357 Eh    ::
         :: -> dispersion             -0.021195593819 Eh    ::
         :: repulsion energy           0.548677924419 Eh    ::

    * Orbital Energies and Occupations

         #    Occupation            Energy/Eh            Energy/eV
      -------------------------------------------------------------
         1        2.0000           -0.8771956             -23.8697
       ...           ...                  ...                  ...
        25        1.9999           -0.6619730             -18.0132
        26        1.9999           -0.6547808             -17.8175
        27        1.9998           -0.6468246             -17.6010
        28        1.9998           -0.6420953             -17.4723
        29        1.9996           -0.6343037             -17.2603
        30        1.9991           -0.6210098             -16.8985
        31        1.9990           -0.6195538             -16.8589
        32        1.9944           -0.5922879             -16.1170
        33        1.9934           -0.5896964             -16.0465
        34        1.9779           -0.5703645             -15.5204
        35        1.9358           -0.5531517             -15.0520
        36        1.9141           -0.5483451             -14.9212
        37        1.9017           -0.5461166             -14.8606 (HOMO)
        38        0.2470           -0.4681771             -12.7397 (LUMO)
        39        0.0369           -0.4362735             -11.8716
        40        0.0013           -0.3827107             -10.4141
        41        0.0005           -0.3676050             -10.0030
        42        0.0000           -0.2786704              -7.5830
        43                         -0.2019936              -5.4965
        44                         -0.1732634              -4.7147
        45                         -0.1264814              -3.4417
        46                         -0.1132144              -3.0807
        47                         -0.0867204              -2.3598
        48                         -0.0453544              -1.2342
       ...                                ...                  ...
        67                          0.6438245              17.5194
      -------------------------------------------------------------
                  HL-Gap            0.0779395 Eh            2.1208 eV

     #   Z          covCN         q      C6AA      α(0)
     1   6 C        2.766     0.019    27.574     8.600
     2   7 N        1.823    -0.006    22.071     6.961
     3   6 C        2.751     0.109    25.577     8.281
     4   7 N        2.691    -0.100    23.206     7.155
     5   6 C        2.822     0.126    25.223     8.229
     6   6 C        2.905    -0.105    30.654     9.078
     7   6 C        2.768     0.278    22.305     7.735
     8   8 O        0.858    -0.338    20.482     6.068
     9   7 N        2.741    -0.068    22.556     7.054
    10   6 C        3.708    -0.061    21.811     6.675
    11   6 C        2.725     0.320    21.562     7.602
    12   8 O        0.860    -0.370    21.093     6.158
    13   7 N        2.750    -0.069    22.580     7.057
    14   6 C        3.699    -0.079    22.183     6.736
    15   1 H        0.926     0.144     1.434     1.873
    16   1 H        0.925     0.131     1.526     1.932
    17   1 H        0.926     0.091     1.869     2.138
    18   1 H        0.925     0.127     1.561     1.954
    19   1 H        0.925     0.115     1.655     2.012
    20   1 H        0.925     0.102     1.768     2.079
    21   1 H        0.924     0.102     1.771     2.081
    22   1 H        0.924     0.079     1.985     2.204
    23   1 H        0.924     0.079     1.986     2.204
    24   1 H        0.924     0.138     1.477     1.901
    25   1 H        0.860     0.237     0.934     1.514

Wiberg/Mayer (AO) data.
largest (>0.10) Wiberg bond orders for each atom

     #   Z sym  total        # sym  WBO       # sym  WBO       # sym  WBO
 ---------------------------------------------------------------------------
     1   6 C    3.717 --     2 N    1.754    15 H    0.935    16 H    0.925
     2   7 N    3.481 --     1 C    1.754     3 C    1.555     4 N    0.125
     3   6 C    3.878 --     2 N    1.555     4 N    1.268    18 H    0.916
     4   7 N    3.518 --     3 C    1.268     5 C    1.079    25 H    0.889
                             2 N    0.125
     5   6 C    3.926 --     6 C    1.544    13 N    1.166     4 N    1.079
     6   6 C    3.864 --     5 C    1.544     7 C    1.074    17 H    0.960
     7   6 C    3.947 --     8 O    1.691     9 N    1.099     6 C    1.074
     8   8 O    1.982 --     7 C    1.691     9 N    0.127
     9   7 N    3.532 --    11 C    1.142     7 C    1.099    10 C    0.974
                            12 O    0.128     8 O    0.127
    10   6 C    3.898 --     9 N    0.974    19 H    0.965    20 H    0.957
                            21 H    0.956
    11   6 C    3.959 --    12 O    1.674     9 N    1.142    13 N    1.056
    12   8 O    2.015 --    11 C    1.674     9 N    0.128    13 N    0.120
    13   7 N    3.512 --     5 C    1.166    11 C    1.056    14 C    0.983
                            12 O    0.120
    14   6 C    3.928 --    13 N    0.983    23 H    0.963    22 H    0.963
                            24 H    0.950
    15   1 H    0.975 --     1 C    0.935
    16   1 H    0.974 --     1 C    0.925
    17   1 H    0.991 --     6 C    0.960
    18   1 H    0.974 --     3 C    0.916
    19   1 H    0.983 --    10 C    0.965
    20   1 H    0.976 --    10 C    0.957
    21   1 H    0.976 --    10 C    0.956
    22   1 H    0.988 --    14 C    0.963
    23   1 H    0.988 --    14 C    0.963
    24   1 H    0.980 --    14 C    0.950
    25   1 H    0.943 --     4 N    0.889
 ---------------------------------------------------------------------------

molecular dipole:
                 x           y           z       tot (Debye)
 q only:        3.392      -2.064      -0.051
   full:        3.628      -2.310      -0.098      10.935

           -------------------------------------------------
          | TOTAL ENERGY              -42.159313985804 Eh   |
          | GRADIENT NORM               0.002696616716 Eh/α |
          | HOMO-LUMO GAP               2.120842847178 eV   |
           -------------------------------------------------

 * finished run on 2024/06/05 at 19:57:50.411
