   * xtb version 6.6.1 (8d0f1dd) compiled by 'conda@1efc2f54142f' on 2023-08-01
          program call               : xtb struc.xyz --opt loose --input .xc1 --gfn2

   ID    Z sym.   atoms
    1    6 C      1, 3, 5-7, 10, 11, 14
    2    7 N      2, 4, 9, 13
    3    8 O      8, 12
    4    1 H      15-25
constraining bond 6 10 to    6.0000000 Å, actual value:    3.7045483 Å

          :  Hamiltonian                  GFN2-xTB          :
 * total energy  :   -32.8397144 Eh     change       -0.6650680E-10 Eh
 * total energy  :   -36.6825629 Eh     change       -0.3842848E+01 Eh
 * total energy  :   -39.2887383 Eh     change       -0.2606175E+01 Eh
 * total energy  :   -40.8264170 Eh     change       -0.1537679E+01 Eh
 * total energy  :   -41.4261009 Eh     change       -0.5996838E+00 Eh
 * total energy  :   -41.5659981 Eh     change       -0.1398972E+00 Eh
 * total energy  :   -41.6252965 Eh     change       -0.5929849E-01 Eh
 * total energy  :   -41.7029689 Eh     change       -0.7767233E-01 Eh
 * total energy  :   -41.7769552 Eh     change       -0.7398637E-01 Eh
 * total energy  :   -41.8343354 Eh     change       -0.5738014E-01 Eh
 * total energy  :   -42.1124107 Eh     change       -0.1214114E-01 Eh
 * total energy  :   -42.1156404 Eh     change       -0.3229652E-02 Eh
 * total energy  :   -42.1170667 Eh     change       -0.1426355E-02 Eh
 * total energy  :   -42.1178941 Eh     change       -0.8274123E-03 Eh
 * total energy  :   -42.1183577 Eh     change       -0.4635837E-03 Eh
 * total energy  :   -42.1186098 Eh     change       -0.2521409E-03 Eh
 * total energy  :   -42.1186930 Eh     change       -0.8318983E-04 Eh
 * total energy  :   -42.1187504 Eh     change       -0.5738085E-04 Eh
 * total energy  :   -42.1187869 Eh     change       -0.3653145E-04 Eh
   *** GEOMETRY OPTIMIZATION CONVERGED AFTER 37 ITERATIONS ***

 final structure:
================
25
 xtb: 6.6.1 (8d0f1dd)
C            3.56664744632721        0.85581786462964        0.04006661559037
N            2.58106065935647       -0.19154562560058       -0.00126353842818
C            2.79422665714378       -1.49639159555406       -0.06775097925197
N            1.61455765254916       -2.15470632580919       -0.06198622308264
C            0.61012678700894       -1.22590505780669        0.01035032665541
C            1.23043631951339        0.01680307211927        0.04893559232783
C            0.41827201075281        1.25367760154612        0.08097451714672
O            0.91744985068814        2.35906865842185        0.08464608395612
N           -0.89613726898555        0.98524055912938        0.09083580787402
C           -3.86104942231929        3.18694801300968       -0.10155749243435
C           -1.53218068817044       -0.17605805543710        0.07559432749277
O           -2.72762979109887       -0.31505170448791        0.08628896477283
N           -0.71160784322514       -1.39369639600479        0.03448547969195
C           -1.35627232210637       -2.68407039753772        0.01962973406402
H            4.00656613374856        0.91959923273826        1.03645774368040
H            4.35518905196696        0.66657483507451       -0.68517775276229
H            3.06967283078417        1.80209773748479       -0.17790374620131
H            3.75609112361581       -1.96774132023886       -0.12328753953029
H           -3.10015056950617        3.94312566117226       -0.09448505114089
H           -4.19469736664169        2.76680906389672       -1.03062345410404
H           -4.27428168430656        2.82951096326971        0.82140746412268
H           -1.05693070679509       -3.27565485886417        0.88617069598791
H           -1.12558752473665       -3.22477474441806       -0.89975849086003
H           -2.43041601555243       -2.50314940071957        0.06493720824483
H            1.50707619412093       -3.15828923842967       -0.10581467589877

          :  Hamiltonian                  GFN2-xTB          :
         :: total energy             -42.118786944042 Eh    ::
         :: gradient norm              0.003224810294 Eh/a0 ::
         :: HOMO-LUMO gap              1.031625167896 eV    ::
         :: SCC energy               -42.650588359721 Eh    ::
         :: -> dispersion             -0.020851351632 Eh    ::
         :: repulsion energy           0.531760904035 Eh    ::

    * Orbital Energies and Occupations

         #    Occupation            Energy/Eh            Energy/eV
      -------------------------------------------------------------
         1        2.0000           -0.9095121             -24.7491
       ...           ...                  ...                  ...
        25        1.9998           -0.6529334             -17.7672
        26        1.9998           -0.6455818             -17.5672
        27        1.9994           -0.6306870             -17.1619
        28        1.9986           -0.6172409             -16.7960
        29        1.9985           -0.6164442             -16.7743
        30        1.9983           -0.6141144             -16.7109
        31        1.9981           -0.6123923             -16.6640
        32        1.9980           -0.6120750             -16.6554
        33        1.9707           -0.5692266             -15.4894
        34        1.9063           -0.5503065             -14.9746
        35        1.9054           -0.5501542             -14.9705
        36        1.8662           -0.5443410             -14.8123
        37        1.6859           -0.5292114             -14.4006 (HOMO)
        38        0.6574           -0.4912999             -13.3690 (LUMO)
        39        0.0165           -0.4267449             -11.6123
        40        0.0013           -0.3864332             -10.5154
        41        0.0002           -0.3572835              -9.7222
        42        0.0000           -0.2605339              -7.0895
        43                         -0.1950955              -5.3088
        44                         -0.1735900              -4.7236
        45                         -0.1387949              -3.7768
        46                         -0.0817066              -2.2233
        47                         -0.0554502              -1.5089
        48                         -0.0351788              -0.9573
       ...                                ...                  ...
        67                          0.5687745              15.4771
      -------------------------------------------------------------
                  HL-Gap            0.0379115 Eh            1.0316 eV

     #   Z          covCN         q      C6AA      α(0)
     1   6 C        3.692    -0.094    22.481     6.784
     2   7 N        2.834     0.089    19.692     6.591
     3   6 C        3.059     0.056    26.682     8.471
     4   7 N        2.799    -0.064    22.484     7.043
     5   6 C        3.031     0.123    25.274     8.246
     6   6 C        3.134    -0.018    28.227     8.697
     7   6 C        2.761     0.299    21.923     7.668
     8   8 O        0.858    -0.339    20.502     6.071
     9   7 N        1.843    -0.250    27.361     7.752
    10   6 C        2.779    -0.064    29.564     8.906
    11   6 C        2.708     0.337    21.278     7.550
    12   8 O        0.860    -0.348    20.671     6.096
    13   7 N        2.735    -0.070    22.603     7.061
    14   6 C        3.693    -0.066    21.957     6.705
    15   1 H        0.924     0.112     1.677     2.025
    16   1 H        0.925     0.105     1.738     2.062
    17   1 H        0.924     0.140     1.458     1.888
    18   1 H        0.926     0.125     1.573     1.961
    19   1 H        0.926     0.136     1.487     1.907
    20   1 H        0.926     0.135     1.495     1.912
    21   1 H        0.926     0.137     1.483     1.904
    22   1 H        0.924     0.080     1.975     2.198
    23   1 H        0.924     0.081     1.973     2.197
    24   1 H        0.924     0.126     1.562     1.955
    25   1 H        0.860     0.229     0.969     1.542

Wiberg/Mayer (AO) data.
largest (>0.10) Wiberg bond orders for each atom

     #   Z sym  total        # sym  WBO       # sym  WBO       # sym  WBO
 ---------------------------------------------------------------------------
     1   6 C    3.908 --     2 N    0.984    16 H    0.965    17 H    0.955
                            15 H    0.952
     2   7 N    3.717 --     3 C    1.406     6 C    1.182     1 C    0.984
     3   6 C    3.885 --     2 N    1.406     4 N    1.284    18 H    0.952
     4   7 N    3.590 --     3 C    1.284     5 C    1.171    25 H    0.919
     5   6 C    3.950 --     6 C    1.338    13 N    1.266     4 N    1.171
     6   6 C    3.807 --     5 C    1.338     2 N    1.182     7 C    0.990
     7   6 C    3.947 --     8 O    1.641     9 N    1.235     6 C    0.990
     8   8 O    1.933 --     7 C    1.641     9 N    0.133
     9   7 N    2.862 --    11 C    1.282     7 C    1.235     8 O    0.133
                            12 O    0.115
    10   6 C    2.937 --    20 H    0.979    19 H    0.979    21 H    0.978
    11   6 C    3.946 --    12 O    1.669     9 N    1.282    13 N    0.914
    12   8 O    1.968 --    11 C    1.669     9 N    0.115
    13   7 N    3.463 --     5 C    1.266    14 C    0.987    11 C    0.914
    14   6 C    3.918 --    13 N    0.987    22 H    0.964    23 H    0.964
                            24 H    0.960
    15   1 H    0.985 --     1 C    0.952
    16   1 H    0.987 --     1 C    0.965
    17   1 H    0.979 --     1 C    0.955
    18   1 H    0.983 --     3 C    0.952
    19   1 H    0.980 --    10 C    0.979
    20   1 H    0.980 --    10 C    0.979
    21   1 H    0.980 --    10 C    0.978
    22   1 H    0.982 --    14 C    0.964
    23   1 H    0.982 --    14 C    0.964
    24   1 H    0.981 --    14 C    0.960
    25   1 H    0.947 --     4 N    0.919
 ---------------------------------------------------------------------------

molecular dipole:
                 x           y           z       tot (Debye)
 q only:        1.806      -1.557      -0.162
   full:        2.219      -2.275      -0.178       8.091

           -------------------------------------------------
          | TOTAL ENERGY              -42.118786944042 Eh   |
          | GRADIENT NORM               0.003224810294 Eh/α |
          | HOMO-LUMO GAP               1.031625167896 eV   |
           -------------------------------------------------

 * finished run on 2024/06/05 at 19:58:00.514
