   * xtb version 6.6.1 (8d0f1dd) compiled by 'conda@1efc2f54142f' on 2023-08-01
          program call               : xtb struc.xyz --opt loose --input .xc1 --gfn2

   ID    Z sym.   atoms
    1    7 N      1, 17
    2    6 C      2-6, 8, 9, 11-16, 18-23, 25, 26, 28-33
    3    8 O      7, 10, 24, 27
    4    1 H      34-72
constraining bond 24 55 to    2.6333300 Å, actual value:    2.0771638 Å

          :  Hamiltonian                  GFN2-xTB          :
 * total energy  :   -99.4593612 Eh     change       -0.4035485E-08 Eh
 * total energy  :   -99.5632795 Eh     change       -0.1039183E+00 Eh
 * total energy  :   -99.7243733 Eh     change       -0.1610938E+00 Eh
 * total energy  :   -96.9827533 Eh     change        0.2741620E+01 Eh
 * total energy  :   -99.7883796 Eh     change       -0.2805626E+01 Eh
 * total energy  :   -99.8059620 Eh     change       -0.1758240E-01 Eh
 * total energy  :   -99.8099757 Eh     change       -0.4013711E-02 Eh
 * total energy  :   -99.8146428 Eh     change       -0.4667100E-02 Eh
 * total energy  :   -99.8189664 Eh     change       -0.4323643E-02 Eh
 * total energy  :   -99.8223989 Eh     change       -0.3432457E-02 Eh
 * total energy  :   -99.8444528 Eh     change       -0.1076116E-03 Eh
 * total energy  :   -99.8445589 Eh     change       -0.1061244E-03 Eh
 * total energy  :   -99.8446929 Eh     change       -0.1339726E-03 Eh
 * total energy  :   -99.8447925 Eh     change       -0.9961825E-04 Eh
 * total energy  :   -99.8448637 Eh     change       -0.7113233E-04 Eh
 * total energy  :   -99.8449383 Eh     change       -0.7468154E-04 Eh
 * total energy  :   -99.8449994 Eh     change       -0.6104511E-04 Eh
 * total energy  :   -99.8450768 Eh     change       -0.7736192E-04 Eh
 * total energy  :   -99.8450972 Eh     change       -0.2042294E-04 Eh
   *** GEOMETRY OPTIMIZATION CONVERGED AFTER 44 ITERATIONS ***

 final structure:
================
72
 xtb: 6.6.1 (8d0f1dd)
N           -2.04250575204922        3.02427383142601        2.18760588210726
C           -1.96350587258360        2.21912162487278        1.23385936882626
C           -3.06640772225789        1.94983697318376        0.24813368672654
C           -3.48660410132949        0.49141446217407        0.34079617355895
C           -4.33213148092762       -0.04984028019371       -0.63023017198396
C           -4.75934439180189       -1.36483041827517       -0.56686049643359
O           -5.58307150454532       -1.96089822531568       -1.45832982084081
C           -6.16702174830437       -1.18425443070705       -2.47684852335558
C           -4.32258807353483       -2.19114131173478        0.50105229886604
O           -4.78034503383186       -3.46260270646473        0.47837003109151
C           -4.47386430453820       -4.31510273579622        1.55572240768056
C           -3.48801109340679       -1.64826895882661        1.46347580189661
C           -3.07921749759532       -0.32215595798874        1.38498203251922
C           -2.45733346670984        2.24367855052132       -1.14899258838553
C           -1.48425600123765        1.16837592391779       -1.66571570955804
C           -0.18466865311195        1.15410270346113       -0.95864468750591
N            0.46134872263883        0.05565765076242       -0.54878829880990
C            1.82866268205269        0.14959566212186       -0.10248325485855
C            2.82688443616485       -0.12903929300172       -1.24655872814317
C            4.23425372433212        0.10169203725033       -0.77871742412064
C            4.76427335528023        1.38722839662248       -0.78121114767440
C            6.05330552118481        1.61033519638524       -0.33095109222257
C            6.80383809521425        0.54488585910057        0.13340246339004
O            8.13409317511487        0.75598133310858        0.61572178442555
C            9.20035488645122        0.50142019436851       -0.42325040143502
C            6.29959754280833       -0.76346869515283        0.15158312578240
O            7.12751041892911       -1.71535413494293        0.62477340412727
C            6.68258382362117       -3.05458035148479        0.66395198827083
C            5.00013635148524       -0.96157555916636       -0.30915421018581
C           -0.12500042706318       -1.25757945169654       -0.66258679316894
C           -4.32964204829122        2.83194858866355        0.47050782181276
C           -4.98020551047402        2.54315425783211        1.82143983005687
C           -4.05240553154882        4.32749159631487        0.34283898417045
H           -4.67142035432802        0.57365188955989       -1.44071981237350
H           -6.73727225814788       -0.34574540190511       -2.06542610741627
H           -6.84335930265306       -1.85469040813734       -3.00366897722624
H           -5.41546589792017       -0.80730409907750       -3.17867860216667
H           -4.83933048837142       -3.91022786871680        2.50429480737589
H           -4.98585126700534       -5.25136040658457        1.34225364252024
H           -3.39712195608531       -4.50072096287056        1.62889082157479
H           -3.15677590286265       -2.24602733513383        2.29720313551568
H           -2.45584417773170        0.07365194074089        2.17188824613902
H           -3.26846219880766        2.33789103691109       -1.87032721711259
H           -1.93868113943128        3.20229784253794       -1.10893122400129
H           -1.96747538914337        0.19372174107234       -1.63190904246772
H           -1.28765170758469        1.40640701996696       -2.72006632115169
H           -1.04628228940795        1.65500910157903        0.97964111096010
H            0.35916633414111        2.08361342845328       -0.88805211035034
H            1.99295711069060       -0.56569929945214        0.70741630947928
H            2.01079909989199        1.15365125436178        0.28773836407111
H            2.59802528387926        0.54395599586976       -2.07470378932102
H            2.70481774793786       -1.15583750993561       -1.59220486963450
H            4.18035199915803        2.21435550854920       -1.15184587429359
H            6.47609353130767        2.60312852494129       -0.34908697799442
H            8.22168595799704        1.49748970740902        0.84383705228551
H            9.13155754330989       -0.52969061934060       -0.73710701766358
H           10.14165914492781        0.76007812866763        0.04359689269641
H            7.51103451871162       -3.62361232024389        1.08102765475216
H            5.80697784993349       -3.16366426034739        1.30981174443070
H            6.45459175680569       -3.42774850156500       -0.33810865261462
H            4.58164880821001       -1.95470458014671       -0.31767498876801
H           -0.25184454253880       -1.54870721904029       -1.70813366537986
H           -1.10095202200648       -1.28163501024040       -0.17133563107828
H            0.52281597936593       -1.98348905382941       -0.17768938279392
H           -5.04371961093186        2.55180680343113       -0.31259928817873
H           -4.31688727419009        2.84547139572110        2.62517497942979
H           -5.20801961944656        1.48544963646425        1.92940301311925
H           -5.90756215106696        3.10348519881180        1.90710336071134
H           -3.31962998335569        4.63773027649647        1.08093218825398
H           -3.69758640905535        4.59182461796711       -0.64980331890436
H           -4.97288197731110        4.87647765977589        0.52401877135477
H           -1.21630167003729        3.14435333840725        2.76621188219856

          :  Hamiltonian                  GFN2-xTB          :
         :: total energy             -99.845097178431 Eh    ::
         :: gradient norm              0.003258569170 Eh/a0 ::
         :: HOMO-LUMO gap              0.971187182623 eV    ::
         :: SCC energy              -100.673658997176 Eh    ::
         :: -> dispersion             -0.075770367326 Eh    ::
         :: repulsion energy           1.440084566085 Eh    ::

    * Orbital Energies and Occupations

         #    Occupation            Energy/Eh            Energy/eV
      -------------------------------------------------------------
         1        2.0000           -0.8783976             -23.9024
       ...           ...                  ...                  ...
        78        1.9993           -0.5249652             -14.2850
        79        1.9989           -0.5176487             -14.0859
        80        1.9989           -0.5173654             -14.0782
        81        1.9988           -0.5161613             -14.0455
        82        1.9983           -0.5102705             -13.8852
        83        1.9973           -0.5029565             -13.6861
        84        1.9969           -0.5006025             -13.6221
        85        1.9963           -0.4976903             -13.5428
        86        1.9950           -0.4929174             -13.4130
        87        1.9867           -0.4775019             -12.9935
        88        1.9553           -0.4580312             -12.4637
        89        1.9130           -0.4471407             -12.1673
        90        1.5320           -0.4169902             -11.3469 (HOMO)
        91        0.5115           -0.3812998             -10.3757 (LUMO)
        92        0.0677           -0.3451420              -9.3918
        93        0.0292           -0.3315442              -9.0218
        94        0.0191           -0.3247271              -8.8363
        95        0.0051           -0.3035527              -8.2601
        96        0.0040           -0.2999831              -8.1630
        97        0.0000           -0.2168165              -5.8999
        98        0.0000           -0.1774030              -4.8274
        99        0.0000           -0.1636746              -4.4538
       100                         -0.1264481              -3.4408
       101                         -0.0806613              -2.1949
       ...                                ...                  ...
       171                          0.5860757              15.9479
      -------------------------------------------------------------
                  HL-Gap            0.0356905 Eh            0.9712 eV

     #   Z          covCN         q      C6AA      α(0)
     1   7 N        1.773    -0.279    28.049     7.843
     2   6 C        2.828     0.101    25.762     8.317
     3   6 C        3.908     0.006    20.419     6.423
     4   6 C        2.974     0.000    28.016     8.682
     5   6 C        2.921    -0.081    30.019     8.985
     6   6 C        2.863     0.127    25.219     8.231
     7   8 O        1.706    -0.237    17.935     5.718
     8   6 C        3.644     0.030    20.406     6.493
     9   6 C        2.864     0.125    25.246     8.236
    10   8 O        1.706    -0.237    17.920     5.715
    11   6 C        3.645     0.030    20.408     6.493
    12   6 C        2.914    -0.076    29.898     8.966
    13   6 C        2.922    -0.054    29.349     8.884
    14   6 C        3.813    -0.063    21.702     6.631
    15   6 C        3.802    -0.067    21.789     6.646
    16   6 C        2.842    -0.005    28.137     8.693
    17   7 N        2.729    -0.005    21.367     6.865
    18   6 C        3.755    -0.014    20.873     6.515
    19   6 C        3.808    -0.074    21.900     6.662
    20   6 C        2.969     0.011    27.777     8.645
    21   6 C        2.924    -0.050    29.251     8.869
    22   6 C        2.912    -0.053    29.327     8.880
    23   6 C        2.856     0.075    26.312     8.408
    24   8 O        2.489    -0.123    16.129     5.424
    25   6 C        2.690    -0.142    31.630     9.204
    26   6 C        2.858     0.143    24.877     8.175
    27   8 O        1.706    -0.240    17.970     5.723
    28   6 C        3.645     0.025    20.483     6.505
    29   6 C        2.924    -0.079    29.986     8.980
    30   6 C        3.698    -0.066    21.947     6.701
    31   6 C        3.853    -0.007    20.673     6.467
    32   6 C        3.756    -0.117    22.798     6.808
    33   6 C        3.755    -0.118    22.817     6.811
    34   1 H        0.926     0.049     2.332     2.388
    35   1 H        0.924     0.051     2.310     2.377
    36   1 H        0.925     0.077     2.006     2.215
    37   1 H        0.924     0.044     2.396     2.420
    38   1 H        0.924     0.052     2.300     2.372
    39   1 H        0.925     0.077     2.008     2.216
    40   1 H        0.924     0.044     2.397     2.421
    41   1 H        0.926     0.048     2.351     2.398
    42   1 H        0.926     0.036     2.503     2.474
    43   1 H        0.925     0.057     2.235     2.338
    44   1 H        0.924     0.051     2.313     2.378
    45   1 H        0.925     0.064     2.157     2.297
    46   1 H        0.923     0.071     2.070     2.250
    47   1 H        0.922     0.002     3.018     2.717
    48   1 H        0.926     0.059     2.212     2.326
    49   1 H        0.924     0.063     2.168     2.302
    50   1 H        0.924     0.064     2.153     2.294
    51   1 H        0.924     0.060     2.200     2.319
    52   1 H        0.924     0.059     2.216     2.328
    53   1 H        0.926     0.056     2.246     2.344
    54   1 H        0.926     0.062     2.172     2.305
    55   1 H        0.811     0.345     0.599     1.215
    56   1 H        0.926     0.047     2.362     2.403
    57   1 H        0.925     0.037     2.492     2.469
    58   1 H        0.925     0.082     1.954     2.186
    59   1 H        0.924     0.050     2.314     2.379
    60   1 H        0.924     0.055     2.254     2.348
    61   1 H        0.926     0.058     2.220     2.330
    62   1 H        0.924     0.071     2.079     2.255
    63   1 H        0.924     0.078     2.004     2.214
    64   1 H        0.925     0.073     2.054     2.241
    65   1 H        0.924     0.034     2.530     2.487
    66   1 H        0.925     0.066     2.132     2.283
    67   1 H        0.925     0.034     2.535     2.490
    68   1 H        0.925     0.047     2.353     2.399
    69   1 H        0.925     0.061     2.191     2.315
    70   1 H        0.925     0.032     2.552     2.498
    71   1 H        0.925     0.051     2.308     2.376
    72   1 H        0.860     0.149     1.405     1.857

Wiberg/Mayer (AO) data.
largest (>0.10) Wiberg bond orders for each atom

     #   Z sym  total        # sym  WBO       # sym  WBO       # sym  WBO
 ---------------------------------------------------------------------------
     1   7 N    3.030 --     2 C    1.948    72 H    0.945
     2   6 C    3.925 --     1 N    1.948     3 C    0.996    47 H    0.906
     3   6 C    3.979 --     2 C    0.996     4 C    0.971    14 C    0.955
                            31 C    0.945
     4   6 C    3.958 --    13 C    1.422     5 C    1.366     3 C    0.971
     5   6 C    3.967 --     6 C    1.406     4 C    1.366    34 H    0.958
     6   6 C    3.914 --     5 C    1.406     9 C    1.231     7 O    1.090
     7   8 O    2.251 --     6 C    1.090     8 C    0.980
     8   6 C    3.936 --     7 O    0.980    36 H    0.977    35 H    0.975
                            37 H    0.974
     9   6 C    3.911 --    12 C    1.398     6 C    1.231    10 O    1.091
    10   8 O    2.250 --     9 C    1.091    11 C    0.980
    11   6 C    3.936 --    10 O    0.980    39 H    0.978    40 H    0.975
                            38 H    0.974
    12   6 C    3.968 --    13 C    1.399     9 C    1.398    41 H    0.964
    13   6 C    3.963 --     4 C    1.422    12 C    1.399    42 H    0.963
    14   6 C    3.972 --    15 C    0.982    44 H    0.973    43 H    0.969
                             3 C    0.955
    15   6 C    3.988 --    16 C    1.059    14 C    0.982    45 H    0.961
                            46 H    0.930
    16   6 C    3.515 --    17 N    1.346    15 C    1.059    48 H    0.960
    17   7 N    3.427 --    16 C    1.346    30 C    1.001    18 C    0.996
    18   6 C    3.963 --    17 N    0.996    50 H    0.968    49 H    0.967
                            19 C    0.965
    19   6 C    3.977 --    20 C    1.014    52 H    0.972    51 H    0.969
                            18 C    0.965
    20   6 C    3.944 --    29 C    1.398    21 C    1.395    19 C    1.014
    21   6 C    3.964 --    22 C    1.426    20 C    1.395    53 H    0.967
    22   6 C    3.946 --    21 C    1.426    23 C    1.405    54 H    0.964
    23   6 C    3.814 --    22 C    1.405    26 C    1.302    24 O    0.894
    24   8 O    2.577 --    23 C    0.894    55 H    0.866    25 C    0.756
    25   6 C    2.741 --    56 H    0.977    57 H    0.972    24 O    0.756
    26   6 C    3.924 --    29 C    1.358    23 C    1.302    27 O    1.103
    27   8 O    2.270 --    26 C    1.103    28 C    0.972
    28   6 C    3.930 --    58 H    0.977    59 H    0.976    60 H    0.976
                            27 O    0.972
    29   6 C    3.946 --    20 C    1.398    26 C    1.358    61 H    0.962
    30   6 C    3.961 --    17 N    1.001    64 H    0.978    62 H    0.968
                            63 H    0.963
    31   6 C    3.977 --    33 C    1.009    32 C    1.009    65 H    0.962
                             3 C    0.945
    32   6 C    3.984 --    31 C    1.009    68 H    0.983    67 H    0.983
                            66 H    0.977
    33   6 C    3.986 --    31 C    1.009    70 H    0.984    71 H    0.981
                            69 H    0.978
    34   1 H    0.996 --     5 C    0.958
    35   1 H    0.995 --     8 C    0.975
    36   1 H    0.993 --     8 C    0.977
    37   1 H    0.995 --     8 C    0.974
    38   1 H    0.995 --    11 C    0.974
    39   1 H    0.993 --    11 C    0.978
    40   1 H    0.995 --    11 C    0.975
    41   1 H    0.996 --    12 C    0.964
    42   1 H    0.998 --    13 C    0.963
    43   1 H    0.995 --    14 C    0.969
    44   1 H    0.997 --    14 C    0.973
    45   1 H    0.995 --    15 C    0.961
    46   1 H    0.967 --    15 C    0.930
    47   1 H    0.990 --     2 C    0.906
    48   1 H    0.996 --    16 C    0.960
    49   1 H    0.992 --    18 C    0.967
    50   1 H    0.994 --    18 C    0.968
    51   1 H    0.995 --    19 C    0.969
    52   1 H    0.996 --    19 C    0.972
    53   1 H    0.996 --    21 C    0.967
    54   1 H    0.995 --    22 C    0.964
    55   1 H    0.880 --    24 O    0.866
    56   1 H    0.983 --    25 C    0.977
    57   1 H    0.986 --    25 C    0.972
    58   1 H    0.993 --    28 C    0.977
    59   1 H    0.997 --    28 C    0.976
    60   1 H    0.996 --    28 C    0.976
    61   1 H    0.997 --    29 C    0.962
    62   1 H    0.985 --    30 C    0.968
    63   1 H    0.987 --    30 C    0.963
    64   1 H    0.994 --    30 C    0.978
    65   1 H    0.995 --    31 C    0.962
    66   1 H    0.993 --    32 C    0.977
    67   1 H    0.998 --    32 C    0.983
    68   1 H    0.995 --    32 C    0.983
    69   1 H    0.994 --    33 C    0.978
    70   1 H    0.998 --    33 C    0.984
    71   1 H    0.995 --    33 C    0.981
    72   1 H    0.973 --     1 N    0.945
 ---------------------------------------------------------------------------

molecular dipole:
                 x           y           z       tot (Debye)
 q only:        3.222       0.076      -0.323
   full:        3.656      -0.069      -0.032       9.294

           -------------------------------------------------
          | TOTAL ENERGY              -99.845097178431 Eh   |
          | GRADIENT NORM               0.003258569170 Eh/α |
          | HOMO-LUMO GAP               0.971187182623 eV   |
           -------------------------------------------------

 * finished run on 2024/04/06 at 11:17:09.189
