   * xtb version 6.6.1 (8d0f1dd) compiled by 'conda@1efc2f54142f' on 2023-08-01
          program call               : xtb xtbopt.xyz --opt crude --input .xc2 --gfn2

   ID    Z sym.   atoms
    1    7 N      1, 17
    2    6 C      2-6, 8, 9, 11-16, 18-23, 25, 26, 28-33
    3    8 O      7, 10, 24, 27
    4    1 H      34-72
########################################################################
[WARNING] Please study the warnings concerning your input carefully
-1- readin_getIntValue: could not parse ''
########################################################################

          :  Hamiltonian                  GFN2-xTB          :
 * total energy  :   -99.2322819 Eh     change       -0.1299441E-09 Eh
 * total energy  :   -99.2803550 Eh     change       -0.4807311E-01 Eh
 * total energy  :   -99.2807313 Eh     change       -0.3763083E-03 Eh
 * total energy  :   -99.2809122 Eh     change       -0.1809606E-03 Eh
   *** GEOMETRY OPTIMIZATION CONVERGED AFTER 4 ITERATIONS ***

 final structure:
================
72
 xtb: 6.6.1 (8d0f1dd)
N           -2.04353909480286        3.02251639911968        2.18849141557486
C           -1.96338823956764        2.21970737648158        1.23282783708102
C           -3.06641296391066        1.95037306050395        0.24748444546979
C           -3.48602729645573        0.49168095498521        0.34066234228329
C           -4.33119019768631       -0.05014189746504       -0.63039575580674
C           -4.75819001081885       -1.36507053570690       -0.56653527941249
O           -5.58163972288940       -1.96169478145450       -1.45820428005241
C           -6.16341537793263       -1.18570941838494       -2.47828848174710
C           -4.32195352819372       -2.19077691968871        0.50188472967415
O           -4.77998423654157       -3.46237995404207        0.47961454407219
C           -4.47258829807026       -4.31481053632488        1.55676001927207
C           -3.48773280967939       -1.64750665426420        1.46428634326913
C           -3.07887531116503       -0.32136038025260        1.38524097761703
C           -2.45903734013631        2.24394519253748       -1.15025702791781
C           -1.48490383266990        1.16968769037513       -1.66698539184909
C           -0.18602382305703        1.15659441459497       -0.95861639733062
N            0.45965526623955        0.05788567222637       -0.54730298420761
C            1.82737271592806        0.15255857913921       -0.10281024890792
C            2.82508791065697       -0.12895472802838       -1.24686176069108
C            4.23322488670912        0.09809585912649       -0.77904664096476
C            4.76756974834175        1.38176240596568       -0.77988632959763
C            6.05800273882003        1.60151592261826       -0.33061066462604
C            6.80731246925012        0.53655960403688        0.13283255343633
O            8.13543172554416        0.72463047632834        0.61521500489672
C            9.19416339353253        0.48868503503714       -0.42769519050305
C            6.29600834378875       -0.77144123382929        0.15019906912836
O            7.12424485128211       -1.72434755074111        0.62272181363668
C            6.68000605069891       -3.06350964765120        0.66090176208691
C            4.99586007382760       -0.96763090022387       -0.30911429211015
C           -0.12546150271474       -1.25588926970872       -0.66112304909901
C           -4.32973271082095        2.83213257633512        0.47041059739667
C           -4.98141675274102        2.54139800591719        1.82045026995369
C           -4.05168326768708        4.32771467723512        0.34474669795341
H           -4.67032733392401        0.57299604522246       -1.44119132664699
H           -6.73636019635770       -0.34829393587315       -2.06852428641769
H           -6.83679330487148       -1.85713124669129       -3.00752960516591
H           -5.41021153078984       -0.80719651998189       -3.17750715643663
H           -4.83748109304960       -3.91009950072877        2.50559956794361
H           -4.98458427841868       -5.25112094073510        1.34350010960293
H           -3.39576090319268       -4.50022185313273        1.62911872166100
H           -3.15688874263690       -2.24486076202109        2.29843600113529
H           -2.45552464315175        0.07461308237399        2.17207352532322
H           -3.27114062164830        2.33688010996644       -1.87081540930001
H           -1.94138729626812        3.20328916530357       -1.11180312204148
H           -1.96697513214387        0.19450172052812       -1.63365614028954
H           -1.28802878621399        1.40812976083924       -2.72124138205536
H           -1.04548563304262        1.65725215005527        0.97683183483697
H            0.35763868253686        2.08600313039048       -0.88796456242901
H            1.99263154585658       -0.56060442069109        0.70883787456596
H            2.01035366794191        1.15752064822339        0.28466557414505
H            2.59681349774083        0.54338916692580       -2.07572908171784
H            2.70083793261299       -1.15577696957506       -1.59155884110968
H            4.18432934233594        2.21055006690075       -1.14777987185701
H            6.48218783901017        2.59394867071981       -0.34612204976928
H            8.24466114770764        1.65502815685490        0.88179249007822
H            9.12064465991549       -0.53911871392046       -0.75398953173613
H           10.13907720717127        0.73835781494568        0.03631996993253
H            7.51018709809984       -3.63281478422432        1.07395192538424
H            5.80669540148694       -3.17439079957061        1.30962273536086
H            6.44837323304055       -3.43491386977111       -0.34098102532333
H            4.57303903426366       -1.95924257753860       -0.31596484622380
H           -0.24992183545134       -1.54852069320132       -1.70651748062288
H           -1.10227643376065       -1.28040084196370       -0.17178864755509
H            0.52239917622578       -1.98016234041604       -0.17386472598278
H           -5.04339638656024        2.55326096991393       -0.31355477932674
H           -4.31777685837229        2.84004384488112        2.62532991607410
H           -5.21164656914938        1.48393876432060        1.92545928944831
H           -5.90748387416008        3.10370879757640        1.90701327468830
H           -3.31692816712270        4.63603069939623        1.08166206329263
H           -3.69887626664851        4.59321099671888       -0.64830982228793
H           -4.97117281039201        4.87731020514701        0.52893400316430
H           -1.21766902871637        3.14282683050245        2.76751301228298

          :  Hamiltonian                  GFN2-xTB          :
         :: total energy             -99.280912228846 Eh    ::
         :: gradient norm              0.003005323453 Eh/a0 ::
         :: HOMO-LUMO gap              0.963719910430 eV    ::
         :: SCC energy              -100.651180256720 Eh    ::
         :: -> dispersion             -0.075793795865 Eh    ::
         :: repulsion energy           1.368976345724 Eh    ::

    * Orbital Energies and Occupations

         #    Occupation            Energy/Eh            Energy/eV
      -------------------------------------------------------------
         1        2.0000           -0.8689426             -23.6451
       ...           ...                  ...                  ...
        78        1.9993           -0.5244956             -14.2723
        79        1.9990           -0.5171398             -14.0721
        80        1.9989           -0.5167995             -14.0628
        81        1.9989           -0.5156795             -14.0324
        82        1.9983           -0.5098130             -13.8727
        83        1.9974           -0.5025399             -13.6748
        84        1.9969           -0.5001700             -13.6103
        85        1.9963           -0.4972589             -13.5311
        86        1.9949           -0.4919175             -13.3858
        87        1.9869           -0.4770142             -12.9802
        88        1.9559           -0.4575519             -12.4506
        89        1.9142           -0.4466791             -12.1548
        90        1.5279           -0.4161103             -11.3229 (HOMO)
        91        0.5138           -0.3806942             -10.3592 (LUMO)
        92        0.0665           -0.3441481              -9.3647
        93        0.0296           -0.3310297              -9.0078
        94        0.0194           -0.3242493              -8.8233
        95        0.0051           -0.3030534              -8.2465
        96        0.0041           -0.2994648              -8.1489
        97        0.0000           -0.2159098              -5.8752
        98        0.0000           -0.1768731              -4.8130
        99        0.0000           -0.1726261              -4.6974
       100                         -0.1257723              -3.4224
       101                         -0.0786439              -2.1400
       ...                                ...                  ...
       171                          0.5866719              15.9642
      -------------------------------------------------------------
                  HL-Gap            0.0354161 Eh            0.9637 eV

     #   Z          covCN         q      C6AA      α(0)
     1   7 N        1.773    -0.279    28.055     7.843
     2   6 C        2.828     0.101    25.763     8.317
     3   6 C        3.908     0.006    20.419     6.423
     4   6 C        2.975     0.000    28.016     8.682
     5   6 C        2.921    -0.081    30.019     8.985
     6   6 C        2.863     0.127    25.220     8.232
     7   8 O        1.706    -0.238    17.939     5.718
     8   6 C        3.644     0.030    20.404     6.493
     9   6 C        2.864     0.125    25.247     8.236
    10   8 O        1.706    -0.237    17.924     5.716
    11   6 C        3.645     0.030    20.407     6.492
    12   6 C        2.914    -0.076    29.898     8.966
    13   6 C        2.922    -0.054    29.349     8.884
    14   6 C        3.813    -0.063    21.701     6.631
    15   6 C        3.802    -0.067    21.787     6.646
    16   6 C        2.842    -0.005    28.143     8.694
    17   7 N        2.729    -0.006    21.379     6.867
    18   6 C        3.755    -0.013    20.870     6.514
    19   6 C        3.808    -0.073    21.897     6.661
    20   6 C        2.969     0.010    27.786     8.646
    21   6 C        2.924    -0.050    29.252     8.869
    22   6 C        2.912    -0.055    29.356     8.885
    23   6 C        2.856     0.079    26.241     8.396
    24   8 O        2.486    -0.117    16.051     5.411
    25   6 C        2.692    -0.139    31.540     9.191
    26   6 C        2.859     0.144    24.866     8.173
    27   8 O        1.706    -0.240    17.974     5.724
    28   6 C        3.644     0.026    20.473     6.503
    29   6 C        2.923    -0.080    29.988     8.980
    30   6 C        3.698    -0.066    21.944     6.700
    31   6 C        3.853    -0.007    20.672     6.467
    32   6 C        3.756    -0.117    22.797     6.808
    33   6 C        3.755    -0.118    22.816     6.811
    34   1 H        0.926     0.049     2.333     2.389
    35   1 H        0.924     0.051     2.312     2.378
    36   1 H        0.925     0.077     2.007     2.216
    37   1 H        0.924     0.044     2.398     2.422
    38   1 H        0.924     0.051     2.302     2.373
    39   1 H        0.925     0.077     2.009     2.217
    40   1 H        0.924     0.044     2.398     2.422
    41   1 H        0.926     0.047     2.352     2.398
    42   1 H        0.926     0.036     2.504     2.474
    43   1 H        0.925     0.057     2.237     2.339
    44   1 H        0.924     0.050     2.315     2.379
    45   1 H        0.925     0.064     2.158     2.297
    46   1 H        0.923     0.071     2.074     2.252
    47   1 H        0.922     0.002     3.018     2.717
    48   1 H        0.926     0.059     2.216     2.328
    49   1 H        0.924     0.062     2.171     2.304
    50   1 H        0.924     0.064     2.156     2.296
    51   1 H        0.924     0.060     2.204     2.321
    52   1 H        0.924     0.058     2.219     2.329
    53   1 H        0.926     0.056     2.252     2.347
    54   1 H        0.926     0.060     2.197     2.318
    55   1 H        0.804     0.347     0.596     1.213
    56   1 H        0.926     0.046     2.374     2.409
    57   1 H        0.925     0.035     2.516     2.480
    58   1 H        0.925     0.082     1.959     2.189
    59   1 H        0.924     0.050     2.321     2.382
    60   1 H        0.924     0.055     2.262     2.352
    61   1 H        0.926     0.058     2.225     2.333
    62   1 H        0.924     0.070     2.081     2.256
    63   1 H        0.924     0.078     2.005     2.214
    64   1 H        0.925     0.073     2.056     2.242
    65   1 H        0.924     0.034     2.531     2.488
    66   1 H        0.925     0.066     2.133     2.284
    67   1 H        0.925     0.034     2.535     2.490
    68   1 H        0.925     0.047     2.354     2.399
    69   1 H        0.925     0.061     2.193     2.316
    70   1 H        0.925     0.032     2.553     2.499
    71   1 H        0.925     0.051     2.309     2.376
    72   1 H        0.860     0.149     1.406     1.858

Wiberg/Mayer (AO) data.
largest (>0.10) Wiberg bond orders for each atom

     #   Z sym  total        # sym  WBO       # sym  WBO       # sym  WBO
 ---------------------------------------------------------------------------
     1   7 N    3.030 --     2 C    1.948    72 H    0.945
     2   6 C    3.925 --     1 N    1.948     3 C    0.996    47 H    0.906
     3   6 C    3.979 --     2 C    0.996     4 C    0.971    14 C    0.955
                            31 C    0.945
     4   6 C    3.958 --    13 C    1.422     5 C    1.366     3 C    0.971
     5   6 C    3.967 --     6 C    1.406     4 C    1.366    34 H    0.958
     6   6 C    3.914 --     5 C    1.406     9 C    1.231     7 O    1.089
     7   8 O    2.251 --     6 C    1.089     8 C    0.980
     8   6 C    3.936 --     7 O    0.980    36 H    0.977    35 H    0.975
                            37 H    0.974
     9   6 C    3.911 --    12 C    1.399     6 C    1.231    10 O    1.090
    10   8 O    2.249 --     9 C    1.090    11 C    0.980
    11   6 C    3.936 --    10 O    0.980    39 H    0.978    40 H    0.975
                            38 H    0.974
    12   6 C    3.968 --    13 C    1.399     9 C    1.399    41 H    0.964
    13   6 C    3.963 --     4 C    1.422    12 C    1.399    42 H    0.963
    14   6 C    3.972 --    15 C    0.982    44 H    0.973    43 H    0.969
                             3 C    0.955
    15   6 C    3.988 --    16 C    1.059    14 C    0.982    45 H    0.961
                            46 H    0.931
    16   6 C    3.514 --    17 N    1.344    15 C    1.059    48 H    0.960
    17   7 N    3.426 --    16 C    1.344    30 C    1.001    18 C    0.996
    18   6 C    3.963 --    17 N    0.996    50 H    0.968    49 H    0.967
                            19 C    0.965
    19   6 C    3.977 --    20 C    1.014    52 H    0.972    51 H    0.969
                            18 C    0.965
    20   6 C    3.944 --    29 C    1.397    21 C    1.397    19 C    1.014
    21   6 C    3.963 --    22 C    1.424    20 C    1.397    53 H    0.967
    22   6 C    3.947 --    21 C    1.424    23 C    1.409    54 H    0.963
    23   6 C    3.820 --    22 C    1.409    26 C    1.298    24 O    0.901
    24   8 O    2.581 --    23 C    0.901    55 H    0.853    25 C    0.765
    25   6 C    2.747 --    56 H    0.975    57 H    0.972    24 O    0.765
    26   6 C    3.924 --    29 C    1.360    23 C    1.298    27 O    1.102
    27   8 O    2.269 --    26 C    1.102    28 C    0.972
    28   6 C    3.931 --    58 H    0.977    59 H    0.976    60 H    0.976
                            27 O    0.972
    29   6 C    3.946 --    20 C    1.397    26 C    1.360    61 H    0.962
    30   6 C    3.961 --    17 N    1.001    64 H    0.978    62 H    0.968
                            63 H    0.963
    31   6 C    3.977 --    33 C    1.009    32 C    1.009    65 H    0.962
                             3 C    0.945
    32   6 C    3.984 --    31 C    1.009    68 H    0.983    67 H    0.983
                            66 H    0.977
    33   6 C    3.986 --    31 C    1.009    70 H    0.984    71 H    0.981
                            69 H    0.978
    34   1 H    0.996 --     5 C    0.958
    35   1 H    0.995 --     8 C    0.975
    36   1 H    0.993 --     8 C    0.977
    37   1 H    0.995 --     8 C    0.974
    38   1 H    0.995 --    11 C    0.974
    39   1 H    0.993 --    11 C    0.978
    40   1 H    0.995 --    11 C    0.975
    41   1 H    0.996 --    12 C    0.964
    42   1 H    0.998 --    13 C    0.963
    43   1 H    0.995 --    14 C    0.969
    44   1 H    0.997 --    14 C    0.973
    45   1 H    0.995 --    15 C    0.961
    46   1 H    0.967 --    15 C    0.931
    47   1 H    0.990 --     2 C    0.906
    48   1 H    0.996 --    16 C    0.960
    49   1 H    0.992 --    18 C    0.967
    50   1 H    0.994 --    18 C    0.968
    51   1 H    0.995 --    19 C    0.969
    52   1 H    0.996 --    19 C    0.972
    53   1 H    0.997 --    21 C    0.967
    54   1 H    0.995 --    22 C    0.963
    55   1 H    0.878 --    24 O    0.853
    56   1 H    0.984 --    25 C    0.975
    57   1 H    0.985 --    25 C    0.972
    58   1 H    0.993 --    28 C    0.977
    59   1 H    0.997 --    28 C    0.976
    60   1 H    0.996 --    28 C    0.976
    61   1 H    0.997 --    29 C    0.962
    62   1 H    0.985 --    30 C    0.968
    63   1 H    0.987 --    30 C    0.963
    64   1 H    0.994 --    30 C    0.978
    65   1 H    0.995 --    31 C    0.962
    66   1 H    0.993 --    32 C    0.977
    67   1 H    0.998 --    32 C    0.983
    68   1 H    0.995 --    32 C    0.983
    69   1 H    0.994 --    33 C    0.978
    70   1 H    0.998 --    33 C    0.984
    71   1 H    0.995 --    33 C    0.981
    72   1 H    0.973 --     1 N    0.945
 ---------------------------------------------------------------------------

molecular dipole:
                 x           y           z       tot (Debye)
 q only:        3.353       0.192      -0.286
   full:        3.777       0.016      -0.025       9.600

           -------------------------------------------------
          | TOTAL ENERGY              -99.280912228846 Eh   |
          | GRADIENT NORM               0.003005323453 Eh/α |
          | HOMO-LUMO GAP               0.963719910430 eV   |
           -------------------------------------------------

 * finished run on 2024/04/06 at 11:17:10.134
