   * xtb version 6.6.1 (8d0f1dd) compiled by 'conda@1efc2f54142f' on 2023-08-01
          program call               : xtb struc.xyz --opt loose --input .xc1 --gfn2

   ID    Z sym.   atoms
    1    7 N      1, 17
    2    6 C      2-6, 8, 9, 11-16, 18-23, 25, 26, 28-33
    3    8 O      7, 10, 24, 27
    4    1 H      34-72
constraining bond 21 49 to    4.7133300 Å, actual value:    3.7183871 Å

          :  Hamiltonian                  GFN2-xTB          :
 * total energy  :   -99.5808828 Eh     change       -0.4035485E-08 Eh
 * total energy  :   -99.8438068 Eh     change       -0.2629241E+00 Eh
 * total energy  :  -100.1970161 Eh     change       -0.3532093E+00 Eh
 * total energy  :  -100.6518134 Eh     change       -0.4547973E+00 Eh
 * total energy  :  -101.2581280 Eh     change       -0.6063146E+00 Eh
 * total energy  :  -101.4489466 Eh     change       -0.1908185E+00 Eh
 * total energy  :  -101.6287612 Eh     change       -0.1798146E+00 Eh
 * total energy  :  -101.7579790 Eh     change       -0.1292178E+00 Eh
 * total energy  :  -101.8411634 Eh     change       -0.8318443E-01 Eh
 * total energy  :  -101.9029826 Eh     change       -0.6181914E-01 Eh
 * total energy  :  -101.9965218 Eh     change       -0.3293897E-03 Eh
 * total energy  :  -101.9968981 Eh     change       -0.3763720E-03 Eh
 * total energy  :  -101.9971242 Eh     change       -0.2260854E-03 Eh
 * total energy  :  -101.9972936 Eh     change       -0.1693470E-03 Eh
 * total energy  :  -101.9975419 Eh     change       -0.2483047E-03 Eh
 * total energy  :  -101.9976723 Eh     change       -0.1304276E-03 Eh
 * total energy  :  -101.9977989 Eh     change       -0.1265638E-03 Eh
 * total energy  :  -101.9978803 Eh     change       -0.8146103E-04 Eh
 * total energy  :  -101.9979196 Eh     change       -0.3925134E-04 Eh
   *** GEOMETRY OPTIMIZATION CONVERGED AFTER 42 ITERATIONS ***

 final structure:
================
72
 xtb: 6.6.1 (8d0f1dd)
N           -1.76645739958924        2.94993085233425        2.04518182972842
C           -1.83673828749646        2.13059903555716        1.10355211710402
C           -3.05527616540435        1.93169163287065        0.24420871938418
C           -3.49101368555554        0.47714658886219        0.31697841602014
C           -4.43428665193415       -0.01633851589086       -0.58650477990486
C           -4.89823924650914       -1.31901836155905       -0.50973657891840
O           -5.81871329412236       -1.86855473661111       -1.33113879797333
C           -6.47503323488148       -1.05334221572384       -2.27279221357382
C           -4.39892814846951       -2.18151148331904        0.50223491052999
O           -4.90644599891444       -3.43221032349573        0.50415066030786
C           -4.56023913144061       -4.30661557616683        1.55210295381217
C           -3.46225883965021       -1.68636975047288        1.39507604468103
C           -3.02026616310762       -0.37322358762466        1.30560602778666
C           -2.62278009391399        2.30668222001082       -1.19899816454725
C           -1.71798006772090        1.27763595505466       -1.89424221697960
C           -0.31901365597905        1.30153175244611       -1.39608295599225
N            0.48462388104129        0.24199465288011       -1.28585956379313
C            1.75644100972863        0.35470908114145       -0.88532897917654
C            2.72362737225081       -0.77435764801590       -0.80860456505457
C            4.13683009235854       -0.40224545674312       -0.44871358327798
C            4.61093993109313        1.00624473283281       -0.68885071713208
C            6.06186688480061        1.19092965064120       -0.32893891703675
C            6.85645881823414        0.20521942074241        0.15106390622809
O            8.15267609644975        0.32032223050368        0.50226777294481
C            8.78399197566097        1.57503720984247        0.38416783060441
C            6.32184014491894       -1.12180056405467        0.33200428182232
O            7.18988813980991       -2.02349186098528        0.79591201902164
C            6.78154538520925       -3.35411884232893        1.01679073054936
C            4.97595287495586       -1.36847145888628        0.02455643133767
C           -0.06739872475403       -1.06476912850759       -1.59794128139922
C           -4.26973943300259        2.80946840582328        0.67069624349869
C           -4.73857353469367        2.46908569903486        2.08354394841882
C           -4.00158221520046        4.30834933992873        0.56688201660642
H           -4.82367377193596        0.63447887462300       -1.35174266796026
H           -6.97122577315196       -0.20487186872782       -1.79212030500392
H           -7.22369686638334       -1.69104288924238       -2.73867633545921
H           -5.78544643896361       -0.68790895621542       -3.04078497668885
H           -4.82263374500619       -3.88608350453727        2.52744320363397
H           -5.13999878957624       -5.21166165022647        1.38166605668867
H           -3.49344838996155       -4.55251319584482        1.53577329708870
H           -3.07878295898066       -2.31196464723758        2.18468079769310
H           -2.31982679767829       -0.01397924111536        2.04346766433584
H           -3.52055027062507        2.43317587141203       -1.80391484618548
H           -2.11016391886094        3.26852642664658       -1.16912046770929
H           -2.16676903814062        0.28994101396330       -1.80091694223066
H           -1.71106673926136        1.53066949647816       -2.96381751772913
H           -0.99116923361940        1.50149179510636        0.77590989918753
H            0.13165819196979        2.26618001114675       -1.22417052765730
H            4.18827313360299        1.50883280317979       -0.34037743802545
H            2.06817537242897        1.34998278046584       -0.62171374104907
H            2.76724719345644       -1.28386151014818       -1.78388483533569
H            2.38657193746064       -1.52736022273858       -0.08428343080384
H            4.54799406453933        1.15608231136639       -1.79348213670692
H            6.43786133288769        2.19181612928601       -0.46496767122725
H            8.29949952851334        2.32652423472259        1.01477885625509
H            8.79688478735970        1.92042317816811       -0.65388913888881
H            9.80522075007008        1.41996262913160        0.72603978680064
H            7.65926222537871       -3.86798433296299        1.40514561891539
H            5.97500049326459       -3.40894467065568        1.75403359069789
H            6.46381675830373       -3.83442217064553        0.08617551861213
H            4.59095348058042       -2.36799351992759        0.16292680487666
H           -0.34965023265933       -1.11006896329618       -2.64934177509887
H           -0.95250438295093       -1.24882984043233       -0.98745797258724
H            0.65574159149998       -1.84624839133885       -1.39514885258480
H           -5.08387831977219        2.56167722536190       -0.02082832007655
H           -3.97218534228299        2.73575442081551        2.80440588563664
H           -4.96277635178740        1.40948178895320        2.18000573950846
H           -5.63995931814606        3.03102513805777        2.31376264752852
H           -3.15936047290057        4.58259883690366        1.19407340280625
H           -3.80442089406736        4.61610123806550       -0.45631599289373
H           -4.87706834544858        4.85085313546307        0.91423612595067
H           -0.88310748632303        3.02416080834933        2.54045229265967

          :  Hamiltonian                  GFN2-xTB          :
         :: total energy            -101.997919597647 Eh    ::
         :: gradient norm              0.003457775499 Eh/a0 ::
         :: HOMO-LUMO gap              0.900862024607 eV    ::
         :: SCC energy              -100.740710831015 Eh    ::
         :: -> dispersion             -0.073825873877 Eh    ::
         :: repulsion energy           1.555638873070 Eh    ::

    * Orbital Energies and Occupations

         #    Occupation            Energy/Eh            Energy/eV
      -------------------------------------------------------------
         1        2.0000           -0.8211702             -22.3452
       ...           ...                  ...                  ...
        78        1.9989           -0.5296340             -14.4121
        79        1.9982           -0.5219527             -14.2031
        80        1.9982           -0.5217069             -14.1964
        81        1.9975           -0.5170607             -14.0699
        82        1.9972           -0.5151555             -14.0181
        83        1.9956           -0.5076164             -13.8129
        84        1.9950           -0.5055979             -13.7580
        85        1.9937           -0.5021429             -13.6640
        86        1.9799           -0.4836286             -13.1602
        87        1.9734           -0.4791062             -13.0371
        88        1.9328           -0.4641166             -12.6293
        89        1.8702           -0.4531592             -12.3311
        90        1.5870           -0.4322401             -11.7619 (HOMO)
        91        0.6440           -0.3991340             -10.8610 (LUMO)
        92        0.0229           -0.3403439              -9.2612
        93        0.0109           -0.3285016              -8.9390
        94        0.0050           -0.3162419              -8.6054
        95        0.0033           -0.3097281              -8.4281
        96        0.0027           -0.3064009              -8.3376
        97        0.0000           -0.2270981              -6.1797
        98        0.0000           -0.1839935              -5.0067
        99                         -0.1082648              -2.9460
       100                         -0.0753812              -2.0512
       101                         -0.0724542              -1.9716
       ...                                ...                  ...
       171                          1.4263817              38.8138
      -------------------------------------------------------------
                  HL-Gap            0.0331061 Eh            0.9009 eV

     #   Z          covCN         q      C6AA      α(0)
     1   7 N        1.774    -0.273    27.905     7.822
     2   6 C        2.827     0.102    25.725     8.311
     3   6 C        3.907     0.007    20.411     6.422
     4   6 C        2.975     0.002    27.972     8.675
     5   6 C        2.921    -0.079    29.986     8.980
     6   6 C        2.862     0.128    25.184     8.226
     7   8 O        1.706    -0.233    17.858     5.706
     8   6 C        3.644     0.029    20.431     6.497
     9   6 C        2.864     0.128    25.198     8.228
    10   8 O        1.706    -0.231    17.834     5.702
    11   6 C        3.646     0.028    20.433     6.496
    12   6 C        2.914    -0.074    29.834     8.957
    13   6 C        2.922    -0.052    29.287     8.875
    14   6 C        3.812    -0.064    21.718     6.633
    15   6 C        3.801    -0.066    21.756     6.641
    16   6 C        2.872    -0.044    29.099     8.843
    17   7 N        2.730     0.074    19.957     6.635
    18   6 C        2.865    -0.059    29.450     8.895
    19   6 C        3.808    -0.065    21.738     6.637
    20   6 C        2.951     0.001    28.003     8.679
    21   6 C        3.811    -0.099    22.381     6.734
    22   6 C        2.900    -0.086    30.157     9.004
    23   6 C        2.848     0.134    25.057     8.204
    24   8 O        1.706    -0.234    17.880     5.709
    25   6 C        3.645     0.024    20.504     6.508
    26   6 C        2.861     0.137    25.012     8.198
    27   8 O        1.706    -0.197    17.282     5.613
    28   6 C        3.644     0.021    20.560     6.517
    29   6 C        2.904    -0.076    29.887     8.964
    30   6 C        3.714    -0.076    22.079     6.714
    31   6 C        3.853    -0.007    20.673     6.467
    32   6 C        3.756    -0.117    22.786     6.806
    33   6 C        3.755    -0.119    22.842     6.815
    34   1 H        0.926     0.052     2.301     2.372
    35   1 H        0.924     0.053     2.288     2.365
    36   1 H        0.925     0.080     1.984     2.202
    37   1 H        0.924     0.047     2.361     2.403
    38   1 H        0.924     0.054     2.275     2.359
    39   1 H        0.925     0.079     1.986     2.204
    40   1 H        0.924     0.047     2.356     2.400
    41   1 H        0.926     0.051     2.313     2.378
    42   1 H        0.926     0.040     2.453     2.449
    43   1 H        0.925     0.055     2.257     2.349
    44   1 H        0.924     0.053     2.286     2.364
    45   1 H        0.925     0.057     2.229     2.335
    46   1 H        0.923     0.063     2.159     2.298
    47   1 H        0.923     0.009     2.911     2.668
    48   1 H        0.926     0.051     2.308     2.376
    49   1 H        0.931     0.131     1.530     1.934
    50   1 H        0.926     0.051     2.303     2.373
    51   1 H        0.923     0.074     2.038     2.232
    52   1 H        0.924     0.066     2.125     2.280
    53   1 H        0.920     0.082     1.957     2.188
    54   1 H        0.926     0.059     2.205     2.322
    55   1 H        0.924     0.052     2.296     2.370
    56   1 H        0.924     0.052     2.290     2.366
    57   1 H        0.925     0.083     1.952     2.185
    58   1 H        0.925     0.088     1.898     2.155
    59   1 H        0.924     0.059     2.217     2.328
    60   1 H        0.924     0.059     2.207     2.323
    61   1 H        0.926     0.054     2.274     2.358
    62   1 H        0.925     0.082     1.963     2.191
    63   1 H        0.924     0.081     1.974     2.197
    64   1 H        0.925     0.083     1.945     2.181
    65   1 H        0.924     0.036     2.508     2.477
    66   1 H        0.925     0.065     2.144     2.290
    67   1 H        0.925     0.034     2.535     2.490
    68   1 H        0.925     0.049     2.330     2.387
    69   1 H        0.925     0.064     2.148     2.292
    70   1 H        0.925     0.035     2.511     2.478
    71   1 H        0.925     0.053     2.289     2.366
    72   1 H        0.860     0.153     1.381     1.841

Wiberg/Mayer (AO) data.
largest (>0.10) Wiberg bond orders for each atom

     #   Z sym  total        # sym  WBO       # sym  WBO       # sym  WBO
 ---------------------------------------------------------------------------
     1   7 N    3.020 --     2 C    1.952    72 H    0.943
     2   6 C    3.934 --     1 N    1.952     3 C    0.994    47 H    0.915
     3   6 C    3.974 --     2 C    0.994     4 C    0.974    14 C    0.952
                            31 C    0.944
     4   6 C    3.948 --    13 C    1.413     5 C    1.369     3 C    0.974
     5   6 C    3.962 --     6 C    1.401     4 C    1.369    34 H    0.958
     6   6 C    3.904 --     5 C    1.401     9 C    1.225     7 O    1.095
     7   8 O    2.249 --     6 C    1.095     8 C    0.979
     8   6 C    3.933 --     7 O    0.979    36 H    0.977    35 H    0.974
                            37 H    0.973
     9   6 C    3.900 --    12 C    1.392     6 C    1.225    10 O    1.097
    10   8 O    2.248 --     9 C    1.097    11 C    0.979
    11   6 C    3.933 --    10 O    0.979    39 H    0.977    38 H    0.974
                            40 H    0.974
    12   6 C    3.963 --    13 C    1.407     9 C    1.392    41 H    0.964
    13   6 C    3.953 --     4 C    1.413    12 C    1.407    42 H    0.962
    14   6 C    3.979 --    15 C    0.992    44 H    0.972    43 H    0.968
                             3 C    0.952
    15   6 C    3.987 --    16 C    1.050    14 C    0.992    45 H    0.958
                            46 H    0.936
    16   6 C    3.663 --    17 N    1.335    15 C    1.050    48 H    0.961
                            18 C    0.213
    17   7 N    3.719 --    16 C    1.335    18 C    1.322    30 C    0.987
    18   6 C    3.626 --    17 N    1.322    19 C    1.042    50 H    0.960
                            16 C    0.213
    19   6 C    3.989 --    18 C    1.042    20 C    1.019    52 H    0.936
                            51 H    0.922
    20   6 C    3.730 --    29 C    1.565    21 C    1.030    19 C    1.019
    21   6 C    3.973 --    22 C    1.031    20 C    1.030    49 H    0.938
                            53 H    0.903
    22   6 C    3.795 --    23 C    1.586    21 C    1.031    54 H    0.963
                            24 O    0.108
    23   6 C    3.936 --    22 C    1.586    26 C    1.129    24 O    1.095
    24   8 O    2.263 --    23 C    1.095    25 C    0.976    22 C    0.108
    25   6 C    3.931 --    57 H    0.977    24 O    0.976    55 H    0.974
                            56 H    0.974
    26   6 C    3.682 --    29 C    1.288    27 O    1.151    23 C    1.129
    27   8 O    2.268 --    26 C    1.151    28 C    0.972
    28   6 C    3.926 --    58 H    0.976    59 H    0.972    27 O    0.972
                            60 H    0.972
    29   6 C    3.974 --    20 C    1.565    26 C    1.288    61 H    0.958
    30   6 C    3.957 --    17 N    0.987    64 H    0.973    62 H    0.970
                            63 H    0.966
    31   6 C    3.973 --    32 C    1.008    33 C    1.008    65 H    0.960
                             3 C    0.944
    32   6 C    3.981 --    31 C    1.008    68 H    0.982    67 H    0.982
                            66 H    0.975
    33   6 C    3.980 --    31 C    1.008    70 H    0.983    71 H    0.980
                            69 H    0.975
    34   1 H    0.996 --     5 C    0.958
    35   1 H    0.994 --     8 C    0.974
    36   1 H    0.993 --     8 C    0.977
    37   1 H    0.994 --     8 C    0.973
    38   1 H    0.993 --    11 C    0.974
    39   1 H    0.993 --    11 C    0.977
    40   1 H    0.993 --    11 C    0.974
    41   1 H    0.996 --    12 C    0.964
    42   1 H    0.998 --    13 C    0.962
    43   1 H    0.995 --    14 C    0.968
    44   1 H    0.996 --    14 C    0.972
    45   1 H    0.994 --    15 C    0.958
    46   1 H    0.974 --    15 C    0.936
    47   1 H    0.982 --     2 C    0.915
    48   1 H    0.997 --    16 C    0.961
    49   1 H    0.969 --    21 C    0.938
    50   1 H    0.997 --    18 C    0.960
    51   1 H    0.967 --    19 C    0.922
    52   1 H    0.975 --    19 C    0.936
    53   1 H    0.949 --    21 C    0.903
    54   1 H    0.995 --    22 C    0.963
    55   1 H    0.995 --    25 C    0.974
    56   1 H    0.995 --    25 C    0.974
    57   1 H    0.993 --    25 C    0.977
    58   1 H    0.992 --    28 C    0.976
    59   1 H    0.990 --    28 C    0.972
    60   1 H    0.990 --    28 C    0.972
    61   1 H    0.996 --    29 C    0.958
    62   1 H    0.993 --    30 C    0.970
    63   1 H    0.993 --    30 C    0.966
    64   1 H    0.993 --    30 C    0.973
    65   1 H    0.992 --    31 C    0.960
    66   1 H    0.992 --    32 C    0.975
    67   1 H    0.997 --    32 C    0.982
    68   1 H    0.995 --    32 C    0.982
    69   1 H    0.992 --    33 C    0.975
    70   1 H    0.997 --    33 C    0.983
    71   1 H    0.994 --    33 C    0.980
    72   1 H    0.970 --     1 N    0.943
 ---------------------------------------------------------------------------

molecular dipole:
                 x           y           z       tot (Debye)
 q only:        1.867      -0.441      -1.026
   full:        2.104      -0.597      -1.194       6.333

           -------------------------------------------------
          | TOTAL ENERGY             -101.997919597647 Eh   |
          | GRADIENT NORM               0.003457775499 Eh/α |
          | HOMO-LUMO GAP               0.900862024607 eV   |
           -------------------------------------------------

 * finished run on 2024/04/06 at 11:16:58.310
