   * xtb version 6.6.1 (8d0f1dd) compiled by 'conda@1efc2f54142f' on 2023-08-01
          program call               : xtb xtbopt.xyz --opt crude --input .xc2 --gfn2

   ID    Z sym.   atoms
    1    7 N      1, 17
    2    6 C      2-6, 8, 9, 11-16, 18-23, 25, 26, 28-33
    3    8 O      7, 10, 24, 27
    4    1 H      34-72
########################################################################
[WARNING] Please study the warnings concerning your input carefully
-1- readin_getIntValue: could not parse ''
########################################################################

          :  Hamiltonian                  GFN2-xTB          :
 * total energy  :   -99.1838902 Eh     change       -0.6166090E-10 Eh
 * total energy  :   -99.3453535 Eh     change       -0.1614633E+00 Eh
 * total energy  :   -99.3470802 Eh     change       -0.1726619E-02 Eh
 * total energy  :   -99.3480422 Eh     change       -0.9619964E-03 Eh
 * total energy  :   -99.3482577 Eh     change       -0.2155698E-03 Eh
   *** GEOMETRY OPTIMIZATION CONVERGED AFTER 5 ITERATIONS ***

 final structure:
================
72
 xtb: 6.6.1 (8d0f1dd)
N           -1.76240563247673        2.94994296542567        2.04442524880082
C           -1.83501333912050        2.12927468281492        1.10408872593121
C           -3.05403163978780        1.93177570895207        0.24520699080097
C           -3.49058979824275        0.47759823076214        0.31742419831264
C           -4.43481437558887       -0.01492937658854       -0.58555047923934
C           -4.89841474131136       -1.31779947652425       -0.50994137273727
O           -5.81809756434957       -1.86717028525126       -1.33231342395423
C           -6.46890410751999       -1.05267145369636       -2.27850695772138
C           -4.39914354885014       -2.18090709677155        0.50166624266225
O           -4.90796171375855       -3.43084773660256        0.50358113536575
C           -4.55725840606198       -4.30881894322479        1.54736761315227
C           -3.46116893300915       -1.68679078986637        1.39376291667092
C           -3.01838708248329       -0.37399698308045        1.30441205552101
C           -2.62074830966468        2.30597108733334       -1.19800762438514
C           -1.71833655772713        1.27420133431508       -1.89246457850784
C           -0.32151543819237        1.29151737275052       -1.38785040269949
N            0.48254875445702        0.23188532329007       -1.28516468110210
C            1.75404386688420        0.34356996975260       -0.88759118841749
C            2.72906498303371       -0.77949018642642       -0.81937200939189
C            4.14204364799807       -0.40315605037584       -0.46008122086445
C            4.64955280270734        0.97216043864720       -0.72742121429267
C            6.08044716873934        1.17472813440860       -0.36661186355103
C            6.86771890683284        0.19254464205520        0.13882943476368
O            8.15964724086372        0.31261267487945        0.50599651524035
C            8.78566237074990        1.56920921307856        0.37888676671805
C            6.32362251204371       -1.12844155439497        0.33483944186932
O            7.18846625061367       -2.03040673687828        0.80571749875624
C            6.77975341002141       -3.36127932337300        1.02554258257436
C            4.97415850389195       -1.36754788342248        0.03814100880463
C           -0.07399527143586       -1.07497846757992       -1.59383208215596
C           -4.26731866462047        2.81065741884831        0.67197360647515
C           -4.73506945058932        2.47031578041895        2.08510402597098
C           -3.99780083488872        4.30934522290507        0.56790496761530
H           -4.82484047862796        0.63706463746177       -1.34953629605775
H           -6.97143310023936       -0.20627395228683       -1.80071739833495
H           -7.21197671352184       -1.69183852439816       -2.75147893982941
H           -5.77383320961257       -0.68432800127382       -3.04028184405015
H           -4.81969956761332       -3.89345498761438        2.52494238108828
H           -5.13438999951179       -5.21485970072719        1.37344791065577
H           -3.48974245438230       -4.55105566922475        1.52830935026689
H           -3.07742336660290       -2.31316270254258        2.18266131738467
H           -2.31624518752326       -0.01588050655199        2.04126425314470
H           -3.51786876745417        2.43498474299235       -1.80331531864770
H           -2.10522671619292        3.26632590585715       -1.16814372015713
H           -2.17238106030607        0.28832359438004       -1.80352343262422
H           -1.70528803121582        1.53113225705447       -2.96105238993700
H           -0.99065213602296        1.49921690717670        0.77505070102746
H            0.13243016751662        2.25567628711493       -1.21940054964451
H            4.04776552482496        1.71112798440984       -0.19210920129003
H            2.07188554203848        1.34015817743506       -0.64246367289245
H            2.77183034685199       -1.28269726718072       -1.79879340589700
H            2.39742778347420       -1.53955813032231       -0.09860823991330
H            4.50750886016050        1.20555495790564       -1.79611273609362
H            6.46303259152590        2.16990610372647       -0.52074576276210
H            8.29465839751997        2.32271483133451        1.00213919848061
H            8.79816093255863        1.90623145228340       -0.66163879937136
H            9.80683655875465        1.42369524452590        0.72485036903031
H            7.65939253841533       -3.87728922450751        1.40549611236318
H            5.97898573523360       -3.41734644342611        1.76862730704334
H            6.45402503139273       -3.83764582923130        0.09604276158026
H            4.57936864188961       -2.35843240927736        0.20932852505232
H           -0.37086277044449       -1.11322813715039       -2.64199620014334
H           -0.95048185114003       -1.26101512748988       -0.97160276183314
H            0.65198022171142       -1.85782576276685       -1.40684983828726
H           -5.08220398294205        2.56366448155086       -0.01888470156296
H           -3.96744588032392        2.73549881136910        2.80527028395068
H           -4.96050257021074        1.41084400129691        2.18110407334288
H           -5.63541089448008        3.03331989064066        2.31676940327196
H           -3.15546192128590        4.58296136300482        1.19529742344762
H           -3.79996818413941        4.61676033026184       -0.45535140058265
H           -4.87297667059294        4.85273979561160        0.91485632684783
H           -0.87821277163449        3.02405228449181        2.53825187754819

          :  Hamiltonian                  GFN2-xTB          :
         :: total energy             -99.348257726587 Eh    ::
         :: gradient norm              0.007227791737 Eh/a0 ::
         :: HOMO-LUMO gap              0.893504789401 eV    ::
         :: SCC energy              -100.715290756656 Eh    ::
         :: -> dispersion             -0.073825081390 Eh    ::
         :: repulsion energy           1.365842338258 Eh    ::

    * Orbital Energies and Occupations

         #    Occupation            Energy/Eh            Energy/eV
      -------------------------------------------------------------
         1        2.0000           -0.8209147             -22.3382
       ...           ...                  ...                  ...
        78        1.9989           -0.5294410             -14.4068
        79        1.9982           -0.5220496             -14.2057
        80        1.9982           -0.5218101             -14.1992
        81        1.9974           -0.5161062             -14.0440
        82        1.9972           -0.5152959             -14.0219
        83        1.9955           -0.5077087             -13.8155
        84        1.9949           -0.5057137             -13.7612
        85        1.9937           -0.5022754             -13.6676
        86        1.9799           -0.4837548             -13.1636
        87        1.9720           -0.4784421             -13.0191
        88        1.9331           -0.4643330             -12.6351
        89        1.8697           -0.4532617             -12.3339
        90        1.5848           -0.4322909             -11.7632 (HOMO)
        91        0.6485           -0.3994552             -10.8697 (LUMO)
        92        0.0226           -0.3403085              -9.2603
        93        0.0109           -0.3286235              -8.9423
        94        0.0050           -0.3161350              -8.6025
        95        0.0033           -0.3098260              -8.4308
        96        0.0027           -0.3065205              -8.3408
        97        0.0000           -0.2284815              -6.2173
        98        0.0000           -0.1840942              -5.0095
        99                         -0.1095949              -2.9822
       100                         -0.0744851              -2.0268
       101                         -0.0716296              -1.9491
       ...                                ...                  ...
       171                          0.5787110              15.7475
      -------------------------------------------------------------
                  HL-Gap            0.0328357 Eh            0.8935 eV

     #   Z          covCN         q      C6AA      α(0)
     1   7 N        1.774    -0.273    27.900     7.822
     2   6 C        2.827     0.102    25.727     8.311
     3   6 C        3.907     0.007    20.411     6.422
     4   6 C        2.975     0.002    27.970     8.675
     5   6 C        2.920    -0.079    29.986     8.980
     6   6 C        2.862     0.128    25.184     8.226
     7   8 O        1.706    -0.233    17.856     5.705
     8   6 C        3.644     0.029    20.432     6.497
     9   6 C        2.864     0.128    25.197     8.228
    10   8 O        1.706    -0.231    17.832     5.701
    11   6 C        3.645     0.028    20.435     6.497
    12   6 C        2.914    -0.074    29.835     8.957
    13   6 C        2.922    -0.052    29.287     8.875
    14   6 C        3.812    -0.064    21.718     6.633
    15   6 C        3.801    -0.065    21.755     6.641
    16   6 C        2.872    -0.045    29.105     8.844
    17   7 N        2.729     0.075    19.945     6.633
    18   6 C        2.865    -0.058    29.425     8.892
    19   6 C        3.808    -0.065    21.732     6.636
    20   6 C        2.951     0.006    27.897     8.663
    21   6 C        3.811    -0.065    21.734     6.636
    22   6 C        2.901    -0.081    30.030     8.985
    23   6 C        2.850     0.135    25.052     8.203
    24   8 O        1.706    -0.233    17.867     5.707
    25   6 C        3.646     0.024    20.501     6.507
    26   6 C        2.860     0.137    25.006     8.197
    27   8 O        1.706    -0.197    17.293     5.615
    28   6 C        3.644     0.021    20.559     6.518
    29   6 C        2.905    -0.075    29.871     8.962
    30   6 C        3.714    -0.076    22.081     6.714
    31   6 C        3.854    -0.007    20.673     6.467
    32   6 C        3.756    -0.117    22.786     6.806
    33   6 C        3.755    -0.119    22.842     6.815
    34   1 H        0.926     0.052     2.300     2.372
    35   1 H        0.924     0.053     2.286     2.365
    36   1 H        0.925     0.080     1.983     2.202
    37   1 H        0.924     0.047     2.362     2.403
    38   1 H        0.924     0.054     2.274     2.358
    39   1 H        0.925     0.079     1.985     2.203
    40   1 H        0.924     0.047     2.355     2.400
    41   1 H        0.926     0.051     2.313     2.378
    42   1 H        0.926     0.040     2.453     2.449
    43   1 H        0.925     0.055     2.256     2.349
    44   1 H        0.924     0.053     2.286     2.365
    45   1 H        0.925     0.057     2.230     2.335
    46   1 H        0.923     0.063     2.160     2.298
    47   1 H        0.923     0.009     2.904     2.665
    48   1 H        0.926     0.051     2.313     2.378
    49   1 H        0.924     0.079     1.985     2.203
    50   1 H        0.926     0.052     2.301     2.372
    51   1 H        0.923     0.075     2.033     2.230
    52   1 H        0.923     0.067     2.123     2.279
    53   1 H        0.923     0.083     1.953     2.185
    54   1 H        0.926     0.061     2.191     2.315
    55   1 H        0.924     0.052     2.296     2.369
    56   1 H        0.924     0.053     2.289     2.366
    57   1 H        0.925     0.083     1.950     2.183
    58   1 H        0.925     0.088     1.897     2.154
    59   1 H        0.924     0.058     2.217     2.329
    60   1 H        0.924     0.059     2.209     2.324
    61   1 H        0.926     0.054     2.269     2.356
    62   1 H        0.925     0.082     1.961     2.190
    63   1 H        0.924     0.081     1.970     2.195
    64   1 H        0.925     0.083     1.945     2.181
    65   1 H        0.924     0.036     2.507     2.476
    66   1 H        0.925     0.065     2.144     2.290
    67   1 H        0.925     0.034     2.535     2.490
    68   1 H        0.925     0.049     2.329     2.387
    69   1 H        0.925     0.064     2.148     2.292
    70   1 H        0.925     0.035     2.511     2.478
    71   1 H        0.925     0.053     2.288     2.366
    72   1 H        0.860     0.153     1.381     1.841

Wiberg/Mayer (AO) data.
largest (>0.10) Wiberg bond orders for each atom

     #   Z sym  total        # sym  WBO       # sym  WBO       # sym  WBO
 ---------------------------------------------------------------------------
     1   7 N    3.020 --     2 C    1.951    72 H    0.943
     2   6 C    3.933 --     1 N    1.951     3 C    0.994    47 H    0.914
     3   6 C    3.974 --     2 C    0.994     4 C    0.974    14 C    0.952
                            31 C    0.944
     4   6 C    3.948 --    13 C    1.413     5 C    1.369     3 C    0.974
     5   6 C    3.962 --     6 C    1.401     4 C    1.369    34 H    0.958
     6   6 C    3.904 --     5 C    1.401     9 C    1.225     7 O    1.095
     7   8 O    2.249 --     6 C    1.095     8 C    0.979
     8   6 C    3.933 --     7 O    0.979    36 H    0.977    35 H    0.974
                            37 H    0.973
     9   6 C    3.900 --    12 C    1.392     6 C    1.225    10 O    1.097
    10   8 O    2.248 --     9 C    1.097    11 C    0.978
    11   6 C    3.933 --    10 O    0.978    39 H    0.977    38 H    0.974
                            40 H    0.974
    12   6 C    3.963 --    13 C    1.407     9 C    1.392    41 H    0.964
    13   6 C    3.953 --     4 C    1.413    12 C    1.407    42 H    0.962
    14   6 C    3.979 --    15 C    0.992    44 H    0.972    43 H    0.968
                             3 C    0.952
    15   6 C    3.987 --    16 C    1.050    14 C    0.992    45 H    0.958
                            46 H    0.936
    16   6 C    3.661 --    17 N    1.334    15 C    1.050    48 H    0.960
                            18 C    0.212
    17   7 N    3.720 --    16 C    1.334    18 C    1.325    30 C    0.986
    18   6 C    3.628 --    17 N    1.325    19 C    1.042    50 H    0.957
                            16 C    0.212
    19   6 C    3.989 --    18 C    1.042    20 C    1.019    52 H    0.937
                            51 H    0.921
    20   6 C    3.731 --    29 C    1.557    21 C    1.042    19 C    1.019
    21   6 C    3.987 --    22 C    1.044    20 C    1.042    49 H    0.917
                            53 H    0.916
    22   6 C    3.797 --    23 C    1.580    21 C    1.044    54 H    0.963
                            24 O    0.107
    23   6 C    3.936 --    22 C    1.580    26 C    1.131    24 O    1.096
    24   8 O    2.262 --    23 C    1.096    25 C    0.976    22 C    0.107
    25   6 C    3.931 --    57 H    0.977    24 O    0.976    55 H    0.974
                            56 H    0.974
    26   6 C    3.686 --    29 C    1.291    27 O    1.150    23 C    1.131
    27   8 O    2.267 --    26 C    1.150    28 C    0.972
    28   6 C    3.926 --    58 H    0.976    60 H    0.972    59 H    0.972
                            27 O    0.972
    29   6 C    3.974 --    20 C    1.557    26 C    1.291    61 H    0.958
    30   6 C    3.957 --    17 N    0.986    64 H    0.974    62 H    0.970
                            63 H    0.967
    31   6 C    3.973 --    32 C    1.008    33 C    1.008    65 H    0.960
                             3 C    0.944
    32   6 C    3.981 --    31 C    1.008    68 H    0.982    67 H    0.982
                            66 H    0.975
    33   6 C    3.980 --    31 C    1.008    70 H    0.983    71 H    0.980
                            69 H    0.975
    34   1 H    0.996 --     5 C    0.958
    35   1 H    0.994 --     8 C    0.974
    36   1 H    0.993 --     8 C    0.977
    37   1 H    0.994 --     8 C    0.973
    38   1 H    0.993 --    11 C    0.974
    39   1 H    0.993 --    11 C    0.977
    40   1 H    0.993 --    11 C    0.974
    41   1 H    0.996 --    12 C    0.964
    42   1 H    0.998 --    13 C    0.962
    43   1 H    0.995 --    14 C    0.968
    44   1 H    0.996 --    14 C    0.972
    45   1 H    0.994 --    15 C    0.958
    46   1 H    0.974 --    15 C    0.936
    47   1 H    0.982 --     2 C    0.914
    48   1 H    0.997 --    16 C    0.960
    49   1 H    0.959 --    21 C    0.917
    50   1 H    0.997 --    18 C    0.957
    51   1 H    0.966 --    19 C    0.921
    52   1 H    0.976 --    19 C    0.937
    53   1 H    0.955 --    21 C    0.916
    54   1 H    0.995 --    22 C    0.963
    55   1 H    0.995 --    25 C    0.974
    56   1 H    0.995 --    25 C    0.974
    57   1 H    0.993 --    25 C    0.977
    58   1 H    0.992 --    28 C    0.976
    59   1 H    0.990 --    28 C    0.972
    60   1 H    0.990 --    28 C    0.972
    61   1 H    0.996 --    29 C    0.958
    62   1 H    0.993 --    30 C    0.970
    63   1 H    0.993 --    30 C    0.967
    64   1 H    0.993 --    30 C    0.974
    65   1 H    0.992 --    31 C    0.960
    66   1 H    0.992 --    32 C    0.975
    67   1 H    0.997 --    32 C    0.982
    68   1 H    0.995 --    32 C    0.982
    69   1 H    0.992 --    33 C    0.975
    70   1 H    0.997 --    33 C    0.983
    71   1 H    0.994 --    33 C    0.980
    72   1 H    0.970 --     1 N    0.943
 ---------------------------------------------------------------------------

molecular dipole:
                 x           y           z       tot (Debye)
 q only:        1.864      -0.478      -1.037
   full:        2.084      -0.601      -1.206       6.307

           -------------------------------------------------
          | TOTAL ENERGY              -99.348257726587 Eh   |
          | GRADIENT NORM               0.007227791737 Eh/α |
          | HOMO-LUMO GAP               0.893504789401 eV   |
           -------------------------------------------------

 * finished run on 2024/04/06 at 11:16:59.459
