   * xtb version 6.6.1 (8d0f1dd) compiled by 'conda@1efc2f54142f' on 2023-08-01
          program call               : xtb xtbopt.xyz --opt crude --input .xc2 --gfn2

   ID    Z sym.   atoms
    1    6 C      1, 3, 5-7, 10, 11, 14
    2    7 N      2, 4, 9, 13
    3    8 O      8, 12
    4    1 H      15-25
########################################################################
[WARNING] Please study the warnings concerning your input carefully
-1- readin_getIntValue: could not parse ''
########################################################################

          :  Hamiltonian                  GFN2-xTB          :
 * total energy  :   -42.1588848 Eh     change       -0.8810730E-12 Eh
 * total energy  :   -42.1621644 Eh     change       -0.3279561E-02 Eh
 * total energy  :   -42.1595107 Eh     change        0.2653692E-02 Eh
 * total energy  :   -42.1653726 Eh     change       -0.5861894E-02 Eh
 * total energy  :   -42.1661997 Eh     change       -0.8271336E-03 Eh
 * total energy  :   -42.1670274 Eh     change       -0.8276998E-03 Eh
 * total energy  :   -42.1672668 Eh     change       -0.2393490E-03 Eh
   *** GEOMETRY OPTIMIZATION CONVERGED AFTER 7 ITERATIONS ***

 final structure:
================
25
 xtb: 6.6.1 (8d0f1dd)
C            4.39794877370526        0.37558243804196       -0.01775663382188
N            3.39567846807544       -0.37579826609875       -0.15400769791284
C            2.71755085802899       -1.43417330735959        0.05364525016878
N            1.38031679400094       -1.55836551757886        0.03552114114084
C            0.40414107190105       -0.56429236375489        0.00101711461097
C            0.69153437148499        0.76230192836913       -0.00119156416932
C           -0.36034626541382        1.75888837567219       -0.00613811425520
O           -0.16362588150084        2.95225066865058       -0.00124504500278
N           -1.65068011018151        1.23235710151655       -0.00564328883568
C           -2.78086360486726        2.14619272798644        0.00903545750239
C           -1.96813458866495       -0.10159484009034       -0.01601082524627
O           -3.10452266154473       -0.49606929992147       -0.02188167139648
N           -0.88985375948312       -1.00522203861793       -0.01703404093773
C           -1.23786328875181       -2.41459183108276       -0.03910699320182
H            4.81253707346221        0.61092489365855        0.95582561541874
H            4.80785864109452        0.87006109106426       -0.89368510495968
H            1.69798190567143        1.13570122867661        0.01022281251636
H            3.25756788183499       -2.37671418590477        0.15113120092419
H           -2.39455904422803        3.16284838118444        0.02620799181043
H           -3.39469612451711        1.98405086114761       -0.87723622652929
H           -3.39411691568137        1.95360951653439        0.88962834093909
H           -0.91332949598317       -2.92140554732193        0.87199906431037
H           -0.84111715669341       -2.90762171774282       -0.92821485295672
H           -2.32760755218563       -2.46600616803278       -0.08001885098640
H            1.01863212453729       -2.50467558739508        0.08610853877005

          :  Hamiltonian                  GFN2-xTB          :
         :: total energy             -42.167266753202 Eh    ::
         :: gradient norm              0.008037722535 Eh/a0 ::
         :: HOMO-LUMO gap              2.107099884577 eV    ::
         :: SCC energy               -42.721355348493 Eh    ::
         :: -> dispersion             -0.021463733377 Eh    ::
         :: repulsion energy           0.554045836463 Eh    ::

    * Orbital Energies and Occupations

         #    Occupation            Energy/Eh            Energy/eV
      -------------------------------------------------------------
         1        2.0000           -0.8818000             -23.9950
       ...           ...                  ...                  ...
        25        1.9999           -0.6615423             -18.0015
        26        1.9999           -0.6567021             -17.8698
        27        1.9998           -0.6438033             -17.5188
        28        1.9997           -0.6399189             -17.4131
        29        1.9996           -0.6327426             -17.2178
        30        1.9991           -0.6198553             -16.8671
        31        1.9989           -0.6178277             -16.8119
        32        1.9942           -0.5911487             -16.0860
        33        1.9933           -0.5888365             -16.0231
        34        1.9775           -0.5694750             -15.4962
        35        1.9318           -0.5515207             -15.0076
        36        1.9121           -0.5473325             -14.8937
        37        1.9014           -0.5454194             -14.8416 (HOMO)
        38        0.2532           -0.4679849             -12.7345 (LUMO)
        39        0.0378           -0.4360504             -11.8655
        40        0.0013           -0.3818946             -10.3919
        41        0.0004           -0.3654802              -9.9452
        42        0.0000           -0.2757791              -7.5043
        43                         -0.1929916              -5.2516
        44                         -0.1707637              -4.6467
        45                         -0.1217349              -3.3126
        46                         -0.1069192              -2.9094
        47                         -0.0787062              -2.1417
        48                         -0.0409441              -1.1141
       ...                                ...                  ...
        67                          0.6055493              16.4778
      -------------------------------------------------------------
                  HL-Gap            0.0774345 Eh            2.1071 eV

     #   Z          covCN         q      C6AA      α(0)
     1   6 C        2.767     0.015    27.665     8.614
     2   7 N        1.826    -0.010    22.145     6.973
     3   6 C        2.757     0.110    25.545     8.277
     4   7 N        2.696    -0.086    22.927     7.111
     5   6 C        2.834     0.128    25.179     8.223
     6   6 C        2.908    -0.110    30.783     9.098
     7   6 C        2.768     0.277    22.316     7.737
     8   8 O        0.859    -0.342    20.546     6.077
     9   7 N        2.742    -0.072    22.640     7.067
    10   6 C        3.708    -0.060    21.804     6.674
    11   6 C        2.725     0.320    21.564     7.602
    12   8 O        0.860    -0.368    21.053     6.152
    13   7 N        2.748    -0.063    22.467     7.040
    14   6 C        3.698    -0.076    22.136     6.729
    15   1 H        0.925     0.134     1.508     1.920
    16   1 H        0.925     0.143     1.438     1.875
    17   1 H        0.926     0.096     1.822     2.111
    18   1 H        0.924     0.124     1.584     1.968
    19   1 H        0.925     0.115     1.655     2.012
    20   1 H        0.924     0.102     1.767     2.079
    21   1 H        0.924     0.101     1.773     2.082
    22   1 H        0.924     0.078     1.997     2.210
    23   1 H        0.924     0.079     1.986     2.204
    24   1 H        0.924     0.134     1.506     1.919
    25   1 H        0.860     0.232     0.958     1.534

Wiberg/Mayer (AO) data.
largest (>0.10) Wiberg bond orders for each atom

     #   Z sym  total        # sym  WBO       # sym  WBO       # sym  WBO
 ---------------------------------------------------------------------------
     1   6 C    3.702 --     2 N    1.731    16 H    0.932    15 H    0.925
     2   7 N    3.475 --     1 C    1.731     3 C    1.558     4 N    0.123
     3   6 C    3.888 --     2 N    1.558     4 N    1.275    18 H    0.910
     4   7 N    3.534 --     3 C    1.275     5 C    1.087    25 H    0.902
                             2 N    0.123
     5   6 C    3.930 --     6 C    1.528    13 N    1.179     4 N    1.087
     6   6 C    3.864 --     5 C    1.528     7 C    1.093    17 H    0.951
     7   6 C    3.947 --     8 O    1.683     6 C    1.093     9 N    1.088
     8   8 O    1.979 --     7 C    1.683     9 N    0.125
     9   7 N    3.525 --    11 C    1.142     7 C    1.088    10 C    0.975
                            12 O    0.130     8 O    0.125
    10   6 C    3.898 --     9 N    0.975    19 H    0.965    21 H    0.956
                            20 H    0.956
    11   6 C    3.959 --    12 O    1.677     9 N    1.142    13 N    1.052
    12   8 O    2.016 --    11 C    1.677     9 N    0.130    13 N    0.118
    13   7 N    3.520 --     5 C    1.179    11 C    1.052    14 C    0.983
                            12 O    0.118
    14   6 C    3.928 --    13 N    0.983    23 H    0.966    22 H    0.965
                            24 H    0.955
    15   1 H    0.974 --     1 C    0.925
    16   1 H    0.975 --     1 C    0.932
    17   1 H    0.989 --     6 C    0.951
    18   1 H    0.969 --     3 C    0.910
    19   1 H    0.983 --    10 C    0.965
    20   1 H    0.975 --    10 C    0.956
    21   1 H    0.975 --    10 C    0.956
    22   1 H    0.988 --    14 C    0.965
    23   1 H    0.988 --    14 C    0.966
    24   1 H    0.981 --    14 C    0.955
    25   1 H    0.946 --     4 N    0.902
 ---------------------------------------------------------------------------

molecular dipole:
                 x           y           z       tot (Debye)
 q only:        3.426      -2.071       0.070
   full:        3.731      -2.438       0.154      11.335

           -------------------------------------------------
          | TOTAL ENERGY              -42.167266753202 Eh   |
          | GRADIENT NORM               0.008037722535 Eh/α |
          | HOMO-LUMO GAP               2.107099884577 eV   |
           -------------------------------------------------

 * finished run on 2024/06/05 at 19:57:51.114
