   * xtb version 6.6.1 (8d0f1dd) compiled by 'conda@1efc2f54142f' on 2023-08-01
          program call               : xtb xtbopt.xyz --opt crude --input .xc2 --gfn2

   ID    Z sym.   atoms
    1    6 C      1, 3, 5-7, 10, 11, 14
    2    7 N      2, 4, 9, 13
    3    8 O      8, 12
    4    1 H      15-25

          :  Hamiltonian                  GFN2-xTB          :
 * total energy  :   -42.1045790 Eh     change       -0.3851142E-11 Eh
   *** GEOMETRY OPTIMIZATION CONVERGED AFTER 1 ITERATIONS ***

 final structure:
================
25
 xtb: 6.6.1 (8d0f1dd)
C            3.27942908553982        1.26647664555297        0.06877165959314
N            2.38109593257048        0.14278938952978        0.04082877594708
C            2.71756487148681       -1.14257563589275        0.04514826460915
N            1.60859524511834       -1.91136208659063        0.02260923382040
C            0.51848038657118       -1.07657970972129        0.00373521487779
C            1.00992630187140        0.22370527413485        0.01279914682059
C            0.14244153884486        1.38036420776661       -0.00911706363244
O            0.50020028472925        2.53656989639999       -0.00535266738222
N           -1.20365116182713        0.99939418674145       -0.03875573347277
C           -2.19641808348031        2.06857122435127       -0.08615915681402
C           -1.73352984420411       -0.26115441924297       -0.03414437129124
O           -2.90974343090060       -0.48771678012162       -0.05182918452606
N           -0.80228602767194       -1.38097759535527       -0.00995916000506
C           -1.31932591004553       -2.62119565188335       -0.00427825109504
H            3.89090512494518        1.23895597226060        0.97060032408410
H            3.93602409105200        1.24883913006367       -0.80113091326323
H            2.69133496508468        2.18376696663737        0.05890612516537
H            3.72124633073062       -1.51974855637443        0.06377289333906
H           -1.66743134032167        3.01798085648803       -0.07059240421429
H           -2.78827826022448        1.98009692271608       -0.99620044207227
H           -2.86360011218675        1.99167886897867        0.77087217335616
H           -0.68365413522406       -3.48097453796971       -0.03469365572750
H           -2.40090359561094       -2.71424323792796        0.00374727323534
H           -4.27013898880077       -2.94352863478436        0.08845194766091
H            1.60214824605392       -2.92089415415346        0.02314158888584

          :  Hamiltonian                  GFN2-xTB          :
         :: total energy             -42.104578994798 Eh    ::
         :: gradient norm              0.003208355322 Eh/a0 ::
         :: HOMO-LUMO gap              0.025011650969 eV    ::
         :: SCC energy               -42.625598666527 Eh    ::
         :: -> dispersion             -0.022890397204 Eh    ::
         :: repulsion energy           0.520939136669 Eh    ::

    * Orbital Energies and Occupations

         #    Occupation            Energy/Eh            Energy/eV
      -------------------------------------------------------------
         1        2.0000           -0.9160363             -24.9266
       ...           ...                  ...                  ...
        25        2.0000           -0.6682436             -18.1838
        26        2.0000           -0.6673572             -18.1597
        27        2.0000           -0.6591544             -17.9365
        28        1.9999           -0.6348014             -17.2738
        29        1.9999           -0.6322331             -17.2039
        30        1.9998           -0.6276589             -17.0795
        31        1.9997           -0.6190175             -16.8443
        32        1.9988           -0.5984696             -16.2852
        33        1.9977           -0.5884327             -16.0121
        34        1.9970           -0.5846967             -15.9104
        35        1.9885           -0.5631325             -15.3236
        36        1.9880           -0.5624046             -15.3038
        37        0.9718           -0.4806304             -13.0786 (HOMO)
        38        0.9428           -0.4797112             -13.0536 (LUMO)
        39        0.1034           -0.4354627             -11.8495
        40        0.0109           -0.3990676             -10.8592
        41        0.0021           -0.3727719             -10.1436
        42        0.0000           -0.2878145              -7.8318
        43                         -0.2123161              -5.7774
        44                         -0.2000037              -5.4424
        45                         -0.1494503              -4.0668
        46                         -0.1335933              -3.6353
        47                         -0.0665460              -1.8108
        48                         -0.0389636              -1.0603
       ...                                ...                  ...
        67                          0.5540139              15.0755
      -------------------------------------------------------------
                  HL-Gap            0.0009192 Eh            0.0250 eV

     #   Z          covCN         q      C6AA      α(0)
     1   6 C        3.691    -0.097    22.538     6.793
     2   7 N        2.831     0.084    19.780     6.605
     3   6 C        3.051     0.053    26.755     8.483
     4   7 N        2.789    -0.057    22.345     7.021
     5   6 C        3.038     0.092    25.916     8.350
     6   6 C        3.113    -0.016    28.262     8.709
     7   6 C        2.763     0.266    22.506     7.769
     8   8 O        0.858    -0.367    21.040     6.150
     9   7 N        2.744    -0.079    22.769     7.087
    10   6 C        3.713    -0.064    21.861     6.681
    11   6 C        2.735     0.310    21.733     7.632
    12   8 O        0.859    -0.342    20.553     6.078
    13   7 N        2.735     0.008    21.126     6.826
    14   6 C        2.796    -0.060    29.479     8.894
    15   1 H        0.925     0.108     1.714     2.047
    16   1 H        0.925     0.108     1.713     2.047
    17   1 H        0.925     0.139     1.465     1.893
    18   1 H        0.926     0.127     1.557     1.952
    19   1 H        0.925     0.116     1.646     2.006
    20   1 H        0.925     0.098     1.807     2.102
    21   1 H        0.925     0.099     1.796     2.096
    22   1 H        0.927     0.086     1.917     2.165
    23   1 H        0.925     0.132     1.518     1.926
    24   1 H        0.000     0.026     6.582     4.691
    25   1 H        0.860     0.229     0.970     1.543

Wiberg/Mayer (AO) data.
largest (>0.10) Wiberg bond orders for each atom

     #   Z sym  total        # sym  WBO       # sym  WBO       # sym  WBO
 ---------------------------------------------------------------------------
     1   6 C    3.912 --     2 N    0.984    17 H    0.959    16 H    0.959
                            15 H    0.959
     2   7 N    3.670 --     3 C    1.384     6 C    1.165     1 C    0.984
     3   6 C    3.838 --     2 N    1.384     4 N    1.287    18 H    0.952
     4   7 N    3.552 --     3 C    1.287     5 C    1.166    25 H    0.918
     5   6 C    3.884 --     6 C    1.338     4 N    1.166    13 N    1.162
     6   6 C    3.858 --     5 C    1.338     2 N    1.165     7 C    1.076
     7   6 C    3.915 --     8 O    1.672     9 N    1.081     6 C    1.076
     8   8 O    1.986 --     7 C    1.672     9 N    0.138
     9   7 N    3.569 --    11 C    1.170     7 C    1.081    10 C    0.963
                            12 O    0.151     8 O    0.138
    10   6 C    3.912 --    19 H    0.968    21 H    0.966    20 H    0.966
                             9 N    0.963
    11   6 C    3.923 --    12 O    1.720     9 N    1.170    13 N    0.937
    12   8 O    2.049 --    11 C    1.720     9 N    0.151
    13   7 N    3.621 --    14 C    1.296     5 C    1.162    11 C    0.937
    14   6 C    3.299 --    13 N    1.296    22 H    0.969    23 H    0.922
    15   1 H    0.985 --     1 C    0.959
    16   1 H    0.985 --     1 C    0.959
    17   1 H    0.980 --     1 C    0.959
    18   1 H    0.983 --     3 C    0.952
    19   1 H    0.985 --    10 C    0.968
    20   1 H    0.987 --    10 C    0.966
    21   1 H    0.987 --    10 C    0.966
    22   1 H    0.990 --    14 C    0.969
    23   1 H    0.982 --    14 C    0.922
    24   1 H    0.044
    25   1 H    0.947 --     4 N    0.918
 ---------------------------------------------------------------------------

molecular dipole:
                 x           y           z       tot (Debye)
 q only:        2.667      -1.873       0.045
   full:        2.971      -2.446       0.045       9.782

           -------------------------------------------------
          | TOTAL ENERGY              -42.104578994798 Eh   |
          | GRADIENT NORM               0.003208355322 Eh/α |
          | HOMO-LUMO GAP               0.025011650969 eV   |
           -------------------------------------------------

 * finished run on 2024/06/05 at 19:57:59.923
