   * xtb version 6.6.1 (8d0f1dd) compiled by 'conda@1efc2f54142f' on 2023-08-01
          program call               : xtb struc.xyz --opt loose --input .xc1 --gfn2

   ID    Z sym.   atoms
    1    7 N      1, 17
    2    6 C      2-6, 8, 9, 11-16, 18-23, 25, 26, 28-33
    3    8 O      7, 10, 24, 27
    4    1 H      34-72
constraining bond 70 71 to    3.2800000 Å, actual value:    1.7543624 Å

          :  Hamiltonian                  GFN2-xTB          :
 * total energy  :   -98.9885358 Eh     change       -0.4035485E-08 Eh
 * total energy  :   -99.1513083 Eh     change       -0.1627724E+00 Eh
 * total energy  :   -99.2250643 Eh     change       -0.7375600E-01 Eh
 * total energy  :   -99.2432771 Eh     change       -0.1821289E-01 Eh
 * total energy  :   -99.2461525 Eh     change       -0.2875331E-02 Eh
 * total energy  :   -99.2468014 Eh     change       -0.6489454E-03 Eh
 * total energy  :   -99.2473227 Eh     change       -0.5212886E-03 Eh
 * total energy  :   -99.2475496 Eh     change       -0.2268454E-03 Eh
 * total energy  :   -99.2477808 Eh     change       -0.2312228E-03 Eh
 * total energy  :   -99.2479782 Eh     change       -0.1974061E-03 Eh
 * total energy  :   -99.2481520 Eh     change       -0.1738122E-03 Eh
 * total energy  :   -99.2483007 Eh     change       -0.1487543E-03 Eh
 * total energy  :   -99.2484460 Eh     change       -0.1452236E-03 Eh
 * total energy  :   -99.2485708 Eh     change       -0.1248164E-03 Eh
 * total energy  :   -99.2486576 Eh     change       -0.8676567E-04 Eh
 * total energy  :   -99.2487127 Eh     change       -0.5512437E-04 Eh
 * total energy  :   -99.2487598 Eh     change       -0.4716952E-04 Eh
   *** GEOMETRY OPTIMIZATION CONVERGED AFTER 17 ITERATIONS ***

 final structure:
================
72
 xtb: 6.6.1 (8d0f1dd)
N           -1.87445303202735        2.82503404012324        2.17950889385000
C           -1.82940106106716        2.14356919341255        1.13345475771304
C           -2.98595673355342        1.93641068133247        0.19560518927973
C           -3.47609673693870        0.49715142010007        0.29463050787035
C           -4.44164449939802        0.02851725532725       -0.60019053500874
C           -4.90960387775872       -1.27367836435432       -0.54241865121815
O           -5.84175750281900       -1.80767120416200       -1.35781723752042
C           -6.48399053138834       -0.99102657147873       -2.30821596927585
C           -4.39325064265050       -2.16153535054661        0.44025056760193
O           -4.89758282120557       -3.41132831844713        0.41350675919296
C           -4.50588910856241       -4.33116160597390        1.40574338693444
C           -3.44273574553597       -1.68775756463399        1.32931581554895
C           -2.99271409241658       -0.37482284532735        1.25733591269240
C           -2.43857272809302        2.17078048854204       -1.23720617369074
C           -1.49306925630675        1.06506917172122       -1.74859082665015
C           -0.15985932981322        1.07402904195244       -1.10300693777121
N            0.49530801205126        0.00391548069366       -0.66475386607116
C            1.87268555422307        0.11201793222418       -0.24391019381339
C            2.84198439039206       -0.33515249109094       -1.35490438595016
C            4.26274708334398       -0.13161271826302       -0.90979193511907
C            4.90377086225885        1.07700566906859       -1.12677304049663
C            6.20511510670176        1.27782651674896       -0.69354884877845
C            6.89161360943805        0.27208922446726       -0.02840279430720
O            8.15368538197770        0.35610033353109        0.43162298121185
C            8.88337546004395        1.54299568725960        0.22019075519362
C            6.24034095179591       -0.97118532274762        0.20252783632653
O            6.97763202091011       -1.89494232410543        0.85091373672616
C            6.42723934160282       -3.16764025423002        1.09303550785132
C            4.93836196304340       -1.14771154278202       -0.23835020345755
C           -0.09372838358810       -1.31341083342153       -0.67020719045971
C           -4.18912796417127        2.88564847830893        0.52444681872527
C           -4.79848356939084        2.49390513439247        1.87353889518103
C           -3.84883712744800        4.36383979528743        0.50961181308813
H           -4.84630871158701        0.69628629969716       -1.34256453072501
H           -6.99880597477668       -0.15054261343414       -1.83328270669266
H           -7.21643771510847       -1.63263868594442       -2.79439396187769
H           -5.78043080601789       -0.61552219512004       -3.05824289708787
H           -4.74428994648041       -3.96481745696982        2.40855030005041
H           -5.07757522332196       -5.23561558491558        1.20716537428717
H           -3.43681103311217       -4.55869090188118        1.34363550678232
H           -3.04799201428556       -2.33162996922922        2.09824075171582
H           -2.27536471504428       -0.03442013626660        1.98795647088389
H           -3.28094514697278        2.23585454091298       -1.92542940291416
H           -1.90515794562686        3.12176372527739       -1.27108639874258
H           -1.97916658468455        0.09569319674994       -1.65572709867061
H           -1.33889016618506        1.26109654247304       -2.81783822673721
H           -0.91165018476150        1.64830023394184        0.76239056211160
H            0.39559777504917        2.00071912678067       -1.12220717263388
H            2.02623547502334       -0.50624856826171        0.64452490391813
H            2.09193255669293        1.14843424863576        0.02140102449424
H            2.64370663664446        0.25738285722635       -2.24963533123146
H            2.66741135847976       -1.38575713828750       -1.58981293231651
H            4.39543137379466        1.87241585026253       -1.65033474170051
H            6.68013509305371        2.22596173499302       -0.88439651262848
H            8.41222039879319        2.39685092734314        0.71661750791583
H            8.99796281579060        1.75751869278806       -0.84655168880796
H            9.86291099852412        1.36593186449796        0.65989903566108
H            7.20838527949490       -3.73327331062504        1.59700991079746
H            5.54847022496812       -3.10783533304631        1.74337157351175
H            6.15944744139764       -3.67320812778682        0.16000420353385
H            4.43813793730458       -2.08954115284131       -0.07579506402561
H           -0.24365011400583       -1.67478554956843       -1.68978032689608
H           -1.05770018095452       -1.30344619430631       -0.15536195234764
H            0.56798774163517       -2.00289022987126       -0.15224246518778
H           -4.94728942174038        2.70230632892340       -0.24584737832759
H           -4.08828551909653        2.69222315831579        2.66968661086778
H           -5.06502922586056        1.44112474927061        1.88804438735050
H           -5.70099700062475        3.07248361038266        2.05750677765271
H           -3.04401459828718        4.60365047715791        1.19551714013988
H           -3.17174391355536        4.55085946515560       -0.76196185605083
H           -5.00268292887387        4.88145587836246        1.37635545187045
H           -1.02534343233238        2.91142092877878        2.72872864925807

          :  Hamiltonian                  GFN2-xTB          :
         :: total energy             -99.248759848496 Eh    ::
         :: gradient norm              0.003071006655 Eh/a0 ::
         :: HOMO-LUMO gap              1.665662034915 eV    ::
         :: SCC energy              -100.629022193351 Eh    ::
         :: -> dispersion             -0.076548911582 Eh    ::
         :: repulsion energy           1.343529619190 Eh    ::

    * Orbital Energies and Occupations

         #    Occupation            Energy/Eh            Energy/eV
      -------------------------------------------------------------
         1        2.0000           -0.8091268             -22.0175
       ...           ...                  ...                  ...
        78        1.9985           -0.5297693             -14.4158
        79        1.9983           -0.5283677             -14.3776
        80        1.9980           -0.5259805             -14.3127
        81        1.9971           -0.5197416             -14.1429
        82        1.9971           -0.5194842             -14.1359
        83        1.9963           -0.5159801             -14.0405
        84        1.9927           -0.5049793             -13.7412
        85        1.9825           -0.4911550             -13.3650
        86        1.9790           -0.4881975             -13.2845
        87        1.9777           -0.4872373             -13.2584
        88        1.9343           -0.4698125             -12.7843
        89        1.8779           -0.4595216             -12.5042
        90        1.8459           -0.4555641             -12.3965 (HOMO)
        91        0.4011           -0.3943521             -10.7309 (LUMO)
        92        0.0179           -0.3416763              -9.2975
        93        0.0040           -0.3177106              -8.6453
        94        0.0033           -0.3149469              -8.5701
        95        0.0028           -0.3120354              -8.4909
        96        0.0024           -0.3096694              -8.4265
        97        0.0014           -0.3013565              -8.2003
        98        0.0000           -0.1918833              -5.2214
        99        0.0000           -0.1871308              -5.0921
       100        0.0000           -0.1767978              -4.8109
       101                         -0.1364772              -3.7137
       ...                                ...                  ...
       171                          0.5767549              15.6943
      -------------------------------------------------------------
                  HL-Gap            0.0612120 Eh            1.6657 eV

     #   Z          covCN         q      C6AA      α(0)
     1   7 N        1.774    -0.272    27.885     7.820
     2   6 C        2.826     0.098    25.818     8.326
     3   6 C        3.906     0.006    20.416     6.423
     4   6 C        2.974     0.002    27.968     8.675
     5   6 C        2.920    -0.080    29.998     8.982
     6   6 C        2.862     0.130    25.154     8.221
     7   8 O        1.706    -0.230    17.808     5.698
     8   6 C        3.644     0.027    20.454     6.501
     9   6 C        2.864     0.128    25.185     8.226
    10   8 O        1.706    -0.229    17.792     5.695
    11   6 C        3.645     0.027    20.457     6.501
    12   6 C        2.914    -0.075    29.882     8.964
    13   6 C        2.921    -0.054    29.354     8.885
    14   6 C        3.811    -0.062    21.690     6.629
    15   6 C        3.801    -0.069    21.814     6.650
    16   6 C        2.843     0.006    27.877     8.653
    17   7 N        2.729     0.009    21.106     6.823
    18   6 C        3.756    -0.016    20.915     6.521
    19   6 C        3.808    -0.070    21.841     6.653
    20   6 C        2.969    -0.000    28.036     8.685
    21   6 C        2.922    -0.049    29.213     8.863
    22   6 C        2.914    -0.068    29.682     8.934
    23   6 C        2.865     0.133    25.081     8.209
    24   8 O        1.706    -0.222    17.685     5.678
    25   6 C        3.646     0.025    20.487     6.505
    26   6 C        2.863     0.133    25.089     8.210
    27   8 O        1.706    -0.225    17.731     5.685
    28   6 C        3.645     0.027    20.450     6.499
    29   6 C        2.920    -0.080    29.991     8.981
    30   6 C        3.699    -0.071    22.020     6.711
    31   6 C        3.851    -0.012    20.764     6.481
    32   6 C        3.756    -0.120    22.851     6.816
    33   6 C        2.499    -0.058    29.633     8.891
    34   1 H        0.926     0.052     2.294     2.368
    35   1 H        0.924     0.054     2.274     2.358
    36   1 H        0.925     0.081     1.964     2.191
    37   1 H        0.924     0.048     2.349     2.397
    38   1 H        0.924     0.055     2.262     2.352
    39   1 H        0.925     0.081     1.965     2.192
    40   1 H        0.924     0.048     2.349     2.397
    41   1 H        0.926     0.052     2.301     2.372
    42   1 H        0.926     0.038     2.481     2.463
    43   1 H        0.925     0.060     2.199     2.319
    44   1 H        0.924     0.055     2.255     2.348
    45   1 H        0.925     0.065     2.137     2.286
    46   1 H        0.923     0.080     1.984     2.203
    47   1 H        0.922     0.010     2.890     2.658
    48   1 H        0.926     0.069     2.099     2.266
    49   1 H        0.924     0.067     2.117     2.275
    50   1 H        0.924     0.067     2.123     2.278
    51   1 H        0.924     0.055     2.260     2.351
    52   1 H        0.924     0.055     2.252     2.347
    53   1 H        0.926     0.045     2.384     2.415
    54   1 H        0.926     0.058     2.216     2.328
    55   1 H        0.924     0.054     2.269     2.355
    56   1 H        0.924     0.056     2.249     2.345
    57   1 H        0.925     0.082     1.955     2.187
    58   1 H        0.925     0.082     1.961     2.190
    59   1 H        0.924     0.048     2.340     2.392
    60   1 H        0.924     0.052     2.291     2.367
    61   1 H        0.926     0.047     2.358     2.401
    62   1 H        0.924     0.076     2.024     2.225
    63   1 H        0.924     0.080     1.983     2.202
    64   1 H        0.925     0.079     1.985     2.203
    65   1 H        0.924     0.045     2.386     2.415
    66   1 H        0.925     0.070     2.087     2.259
    67   1 H        0.925     0.042     2.420     2.433
    68   1 H        0.925     0.053     2.287     2.365
    69   1 H        0.925     0.060     2.198     2.318
    70   1 H        0.394    -0.006     6.414     4.513
    71   1 H        0.199     0.038     6.064     4.493
    72   1 H        0.860     0.158     1.345     1.817

Wiberg/Mayer (AO) data.
largest (>0.10) Wiberg bond orders for each atom

     #   Z sym  total        # sym  WBO       # sym  WBO       # sym  WBO
 ---------------------------------------------------------------------------
     1   7 N    3.041 --     2 C    1.952    72 H    0.941
     2   6 C    3.924 --     1 N    1.952     3 C    0.997    47 H    0.895
     3   6 C    3.975 --     2 C    0.997     4 C    0.966    14 C    0.960
                            31 C    0.930
     4   6 C    3.951 --    13 C    1.415     5 C    1.366     3 C    0.966
     5   6 C    3.963 --     6 C    1.403     4 C    1.366    34 H    0.958
     6   6 C    3.908 --     5 C    1.403     9 C    1.221     7 O    1.100
     7   8 O    2.257 --     6 C    1.100     8 C    0.978
     8   6 C    3.932 --     7 O    0.978    36 H    0.977    35 H    0.974
                            37 H    0.974
     9   6 C    3.904 --    12 C    1.394     6 C    1.221    10 O    1.101
    10   8 O    2.254 --     9 C    1.101    11 C    0.977
    11   6 C    3.932 --    10 O    0.977    39 H    0.977    40 H    0.974
                            38 H    0.974
    12   6 C    3.963 --    13 C    1.400     9 C    1.394    41 H    0.964
    13   6 C    3.955 --     4 C    1.415    12 C    1.400    42 H    0.962
    14   6 C    3.972 --    15 C    0.979    43 H    0.969    44 H    0.962
                             3 C    0.960
    15   6 C    3.987 --    16 C    1.059    14 C    0.979    45 H    0.962
                            46 H    0.929
    16   6 C    3.592 --    17 N    1.394    15 C    1.059    48 H    0.957
    17   7 N    3.474 --    16 C    1.394    30 C    0.999    18 C    0.988
    18   6 C    3.956 --    17 N    0.988    50 H    0.968    19 C    0.966
                            49 H    0.964
    19   6 C    3.976 --    20 C    1.008    51 H    0.972    52 H    0.972
                            18 C    0.966
    20   6 C    3.945 --    21 C    1.410    29 C    1.380    19 C    1.008
    21   6 C    3.950 --    22 C    1.417    20 C    1.410    53 H    0.968
    22   6 C    3.960 --    21 C    1.417    23 C    1.384    54 H    0.963
    23   6 C    3.896 --    22 C    1.384    26 C    1.220    24 O    1.110
    24   8 O    2.255 --    23 C    1.110    25 C    0.976
    25   6 C    3.928 --    57 H    0.977    24 O    0.976    55 H    0.973
                            56 H    0.973
    26   6 C    3.899 --    29 C    1.395    23 C    1.220    27 O    1.103
    27   8 O    2.254 --    26 C    1.103    28 C    0.979
    28   6 C    3.932 --    27 O    0.979    58 H    0.977    59 H    0.973
                            60 H    0.973
    29   6 C    3.959 --    26 C    1.395    20 C    1.380    61 H    0.962
    30   6 C    3.957 --    17 N    0.999    64 H    0.978    62 H    0.966
                            63 H    0.960
    31   6 C    3.970 --    33 C    1.028    32 C    1.000    65 H    0.956
                             3 C    0.930
    32   6 C    3.979 --    31 C    1.000    67 H    0.977    66 H    0.974
                            68 H    0.971
    33   6 C    3.910 --    31 C    1.028    69 H    0.971    70 H    0.933
                            71 H    0.918
    34   1 H    0.996 --     5 C    0.958
    35   1 H    0.994 --     8 C    0.974
    36   1 H    0.993 --     8 C    0.977
    37   1 H    0.994 --     8 C    0.974
    38   1 H    0.993 --    11 C    0.974
    39   1 H    0.993 --    11 C    0.977
    40   1 H    0.994 --    11 C    0.974
    41   1 H    0.996 --    12 C    0.964
    42   1 H    0.998 --    13 C    0.962
    43   1 H    0.995 --    14 C    0.969
    44   1 H    0.996 --    14 C    0.962
    45   1 H    0.995 --    15 C    0.962
    46   1 H    0.971 --    15 C    0.929
    47   1 H    0.988 --     2 C    0.895
    48   1 H    0.995 --    16 C    0.957
    49   1 H    0.991 --    18 C    0.964
    50   1 H    0.994 --    18 C    0.968
    51   1 H    0.996 --    19 C    0.972
    52   1 H    0.996 --    19 C    0.972
    53   1 H    0.997 --    21 C    0.968
    54   1 H    0.995 --    22 C    0.963
    55   1 H    0.992 --    25 C    0.973
    56   1 H    0.992 --    25 C    0.973
    57   1 H    0.992 --    25 C    0.977
    58   1 H    0.993 --    28 C    0.977
    59   1 H    0.993 --    28 C    0.973
    60   1 H    0.993 --    28 C    0.973
    61   1 H    0.997 --    29 C    0.962
    62   1 H    0.985 --    30 C    0.966
    63   1 H    0.987 --    30 C    0.960
    64   1 H    0.993 --    30 C    0.978
    65   1 H    0.991 --    31 C    0.956
    66   1 H    0.992 --    32 C    0.974
    67   1 H    0.996 --    32 C    0.977
    68   1 H    0.995 --    32 C    0.971
    69   1 H    0.988 --    33 C    0.971
    70   1 H    0.989 --    33 C    0.933
    71   1 H    0.977 --    33 C    0.918
    72   1 H    0.970 --     1 N    0.941
 ---------------------------------------------------------------------------

molecular dipole:
                 x           y           z       tot (Debye)
 q only:        0.521      -0.067      -0.696
   full:        0.862      -0.148      -0.833       3.071

           -------------------------------------------------
          | TOTAL ENERGY              -99.248759848496 Eh   |
          | GRADIENT NORM               0.003071006655 Eh/α |
          | HOMO-LUMO GAP               1.665662034915 eV   |
           -------------------------------------------------

 * finished run on 2024/04/06 at 11:15:20.721
