   * xtb version 6.6.1 (8d0f1dd) compiled by 'conda@1efc2f54142f' on 2023-08-01
          program call               : xtb xtbopt.xyz --opt crude --input .xc2 --gfn2

   ID    Z sym.   atoms
    1    7 N      1, 17
    2    6 C      2-6, 8, 9, 11-16, 18-23, 25, 26, 28-33
    3    8 O      7, 10, 24, 27
    4    1 H      34-72

          :  Hamiltonian                  GFN2-xTB          :
 * total energy  :   -99.2842073 Eh     change       -0.2415845E-12 Eh
 * total energy  :   -99.3613595 Eh     change       -0.7715211E-01 Eh
 * total energy  :   -99.3672127 Eh     change       -0.5853292E-02 Eh
 * total energy  :   -99.4017612 Eh     change       -0.3454846E-01 Eh
 * total energy  :   -99.4029676 Eh     change       -0.1206375E-02 Eh
 * total energy  :   -99.4047782 Eh     change       -0.1810611E-02 Eh
 * total energy  :   -99.4059100 Eh     change       -0.1131808E-02 Eh
 * total energy  :   -99.4062774 Eh     change       -0.3674178E-03 Eh
 * total energy  :   -99.4060269 Eh     change        0.2504993E-03 Eh
 * total energy  :   -99.4065295 Eh     change       -0.5025409E-03 Eh
 * total energy  :   -99.4065607 Eh     change       -0.3126953E-04 Eh
   *** GEOMETRY OPTIMIZATION CONVERGED AFTER 11 ITERATIONS ***

 final structure:
================
72
 xtb: 6.6.1 (8d0f1dd)
N           -1.86528440445652        2.79252164036336        2.21195569344674
C           -1.82508804152979        2.12108223978232        1.16029330489448
C           -2.98378618313407        1.91461625477748        0.22522319649898
C           -3.46349979787810        0.47296072796774        0.31092762005797
C           -4.42298642514105        0.00890434000866       -0.59140516381834
C           -4.89980317633243       -1.28991702571798       -0.53610213356276
O           -5.83256909737704       -1.81453782645067       -1.35678706076089
C           -6.46724534921820       -0.98582444163983       -2.30219241844543
C           -4.39335608480736       -2.17974848209011        0.44986957329859
O           -4.90491559039838       -3.42652740356031        0.42329443225721
C           -4.51321192225704       -4.34736453922033        1.41433398829209
C           -3.44248998316953       -1.71252944563990        1.34255234133725
C           -2.98671527570120       -0.40150610465604        1.27460309988998
C           -2.43847596245177        2.19357431706819       -1.19948972920595
C           -1.49568675179055        1.09989448413898       -1.73712257899549
C           -0.16283134799992        1.09448255939611       -1.09234064680338
N            0.49423638960896        0.01454031081185       -0.68370587881730
C            1.87169731192389        0.11481997152568       -0.26135115627856
C            2.84353183515351       -0.33784602934490       -1.36772606274326
C            4.26279535114034       -0.13409249294618       -0.91665092114399
C            4.90332878132464        1.07553964711313       -1.13084952036694
C            6.20378858660569        1.27738348054708       -0.69549084317600
C            6.89014792669408        0.27139094519589       -0.03058495436751
O            8.15161106746935        0.35390695712390        0.43068477128116
C            8.88379178744080        1.53979565226068        0.22241882303829
C            6.23886934260706       -0.97222444629399        0.19939171112219
O            6.97729708348964       -1.89396345164519        0.84874809122448
C            6.43122673746326       -3.16806649667828        1.09291004449254
C            4.93754567713234       -1.14971245191229       -0.24352372526727
C           -0.10325727656266       -1.29904740531150       -0.69553132917981
C           -4.18899453813839        2.85113807822889        0.53568766305443
C           -4.82317881903661        2.50829346207232        1.88214228372200
C           -3.82299331991368        4.33217922990659        0.49917303508793
H           -4.81517568822582        0.67890803993593       -1.33823375337760
H           -6.97494533913453       -0.14426145393232       -1.82132487850438
H           -7.20478361686340       -1.61723322729917       -2.79383321347681
H           -5.76008043839681       -0.61029530085966       -3.04891114164079
H           -4.75283613715830       -3.98235733719625        2.41738877294921
H           -5.08301297347733       -5.25239627599443        1.21385747226267
H           -3.44349611397269       -4.57217344949423        1.35267905576217
H           -3.05415608768525       -2.35906395915980        2.11259694921237
H           -2.27032247155763       -0.06421513635407        2.00775470323162
H           -3.27963450137492        2.27883883074582       -1.88644883131315
H           -1.91585806570479        3.15089642538581       -1.19878338980913
H           -1.98350845475223        0.12953079678658       -1.66031359152910
H           -1.34132813515899        1.31286805968378       -2.80286011270676
H           -0.90568033611477        1.63645385909922        0.77510832971131
H            0.39254991124709        2.02131098255724       -1.09538729769572
H            2.02051264426522       -0.50255517380855        0.62858967379400
H            2.09507392909549        1.15084065297361        0.00182744092131
H            2.65075889380960        0.25211031976815       -2.26540729522784
H            2.66895311687936       -1.38889255614461       -1.60052017181354
H            4.39500182858149        1.87117348660536       -1.65410549322097
H            6.67845504187229        2.22603674623591       -0.88488315139168
H            8.41332360485306        2.39374684755884        0.71924507112199
H            9.00109726532996        1.75567182981029       -0.84372822444218
H            9.86207045571514        1.36002651269843        0.66393847222527
H            7.21433737685692       -3.72941705130450        1.59874087787825
H            5.55182935172779       -3.11019945635268        1.74246828873298
H            6.16628125284683       -3.67664932570100        0.16075205813592
H            4.43777554699514       -2.09188450850767       -0.08113820396305
H           -0.26035605366951       -1.65336036809019       -1.71648806160359
H           -1.06512615738671       -1.28582083137331       -0.17647849370648
H            0.55584782788619       -1.99627559629982       -0.18456417336958
H           -4.93577373657005        2.66920707607613       -0.24524772286075
H           -4.12072988944279        2.70688359107023        2.68505018134005
H           -5.11799590422050        1.46241527470744        1.92221442031603
H           -5.70881878922837        3.11924807580097        2.03574077452503
H           -3.04399622967303        4.55095051347445        1.22330933070537
H           -3.50910858442782        4.63549289759249       -0.49486089990015
H           -4.69381046110162        4.92723495291942        0.76944090896635
H           -1.01031681642281        2.88722850370562        2.75072461229782

          :  Hamiltonian                  GFN2-xTB          :
         :: total energy             -99.406560730264 Eh    ::
         :: gradient norm              0.003662977587 Eh/a0 ::
         :: HOMO-LUMO gap              1.675007566606 eV    ::
         :: SCC energy              -100.785369132369 Eh    ::
         :: -> dispersion             -0.075178566729 Eh    ::
         :: repulsion energy           1.377570000164 Eh    ::

    * Orbital Energies and Occupations

         #    Occupation            Energy/Eh            Energy/eV
      -------------------------------------------------------------
         1        2.0000           -0.8089256             -22.0120
       ...           ...                  ...                  ...
        78        1.9983           -0.5290790             -14.3970
        79        1.9983           -0.5287840             -14.3889
        80        1.9982           -0.5279352             -14.3658
        81        1.9976           -0.5230647             -14.2333
        82        1.9971           -0.5201064             -14.1528
        83        1.9960           -0.5152311             -14.0202
        84        1.9953           -0.5127684             -13.9531
        85        1.9943           -0.5096101             -13.8672
        86        1.9812           -0.4906828             -13.3522
        87        1.9786           -0.4885524             -13.2942
        88        1.9406           -0.4721070             -12.8467
        89        1.8734           -0.4595673             -12.5055
        90        1.8434           -0.4559403             -12.4068 (HOMO)
        91        0.3888           -0.3943849             -10.7318 (LUMO)
        92        0.0155           -0.3401057              -9.2547
        93        0.0036           -0.3167180              -8.6183
        94        0.0030           -0.3137689              -8.5381
        95        0.0027           -0.3124634              -8.5026
        96        0.0024           -0.3101528              -8.4397
        97        0.0000           -0.1909922              -5.1972
        98        0.0000           -0.1876341              -5.1058
        99                         -0.1369397              -3.7263
       100                         -0.0689009              -1.8749
       101                         -0.0643426              -1.7509
       ...                                ...                  ...
       171                          0.5763265              15.6826
      -------------------------------------------------------------
                  HL-Gap            0.0615554 Eh            1.6750 eV

     #   Z          covCN         q      C6AA      α(0)
     1   7 N        1.773    -0.267    27.751     7.801
     2   6 C        2.826     0.101    25.764     8.317
     3   6 C        3.908     0.007    20.410     6.421
     4   6 C        2.974     0.003    27.956     8.673
     5   6 C        2.920    -0.080    29.990     8.980
     6   6 C        2.862     0.130    25.153     8.221
     7   8 O        1.706    -0.229    17.805     5.697
     8   6 C        3.644     0.027    20.452     6.500
     9   6 C        2.864     0.129    25.181     8.225
    10   8 O        1.706    -0.228    17.787     5.694
    11   6 C        3.646     0.027    20.454     6.500
    12   6 C        2.914    -0.075    29.872     8.962
    13   6 C        2.921    -0.054    29.338     8.882
    14   6 C        3.812    -0.065    21.736     6.636
    15   6 C        3.802    -0.069    21.820     6.651
    16   6 C        2.843     0.008    27.835     8.646
    17   7 N        2.729     0.010    21.091     6.821
    18   6 C        3.756    -0.016    20.918     6.521
    19   6 C        3.808    -0.070    21.842     6.653
    20   6 C        2.969    -0.000    28.033     8.685
    21   6 C        2.922    -0.049    29.212     8.863
    22   6 C        2.914    -0.067    29.680     8.933
    23   6 C        2.865     0.134    25.078     8.209
    24   8 O        1.706    -0.222    17.678     5.677
    25   6 C        3.645     0.025    20.490     6.506
    26   6 C        2.863     0.133    25.087     8.210
    27   8 O        1.706    -0.224    17.724     5.684
    28   6 C        3.645     0.027    20.453     6.500
    29   6 C        2.919    -0.080    29.988     8.980
    30   6 C        3.699    -0.071    22.023     6.712
    31   6 C        3.853    -0.007    20.673     6.467
    32   6 C        3.756    -0.119    22.835     6.814
    33   6 C        3.755    -0.118    22.821     6.812
    34   1 H        0.926     0.052     2.292     2.367
    35   1 H        0.924     0.054     2.271     2.356
    36   1 H        0.925     0.081     1.965     2.192
    37   1 H        0.924     0.048     2.349     2.397
    38   1 H        0.924     0.055     2.258     2.350
    39   1 H        0.925     0.081     1.966     2.193
    40   1 H        0.924     0.048     2.348     2.396
    41   1 H        0.926     0.052     2.300     2.372
    42   1 H        0.926     0.038     2.478     2.462
    43   1 H        0.925     0.060     2.198     2.319
    44   1 H        0.924     0.054     2.277     2.360
    45   1 H        0.925     0.066     2.133     2.284
    46   1 H        0.924     0.080     1.983     2.202
    47   1 H        0.922     0.009     2.913     2.669
    48   1 H        0.926     0.070     2.090     2.261
    49   1 H        0.924     0.067     2.117     2.275
    50   1 H        0.924     0.067     2.120     2.277
    51   1 H        0.924     0.055     2.256     2.349
    52   1 H        0.924     0.056     2.250     2.346
    53   1 H        0.926     0.045     2.382     2.414
    54   1 H        0.926     0.059     2.215     2.327
    55   1 H        0.924     0.054     2.267     2.354
    56   1 H        0.924     0.056     2.247     2.344
    57   1 H        0.925     0.082     1.954     2.186
    58   1 H        0.925     0.082     1.959     2.189
    59   1 H        0.924     0.049     2.337     2.391
    60   1 H        0.924     0.053     2.289     2.366
    61   1 H        0.926     0.047     2.356     2.400
    62   1 H        0.924     0.076     2.020     2.223
    63   1 H        0.924     0.080     1.980     2.200
    64   1 H        0.925     0.079     1.985     2.203
    65   1 H        0.924     0.038     2.483     2.464
    66   1 H        0.925     0.070     2.090     2.261
    67   1 H        0.925     0.036     2.508     2.477
    68   1 H        0.925     0.051     2.309     2.376
    69   1 H        0.925     0.059     2.207     2.323
    70   1 H        0.925     0.035     2.515     2.480
    71   1 H        0.925     0.054     2.265     2.354
    72   1 H        0.860     0.157     1.353     1.822

Wiberg/Mayer (AO) data.
largest (>0.10) Wiberg bond orders for each atom

     #   Z sym  total        # sym  WBO       # sym  WBO       # sym  WBO
 ---------------------------------------------------------------------------
     1   7 N    3.045 --     2 C    1.957    72 H    0.941
     2   6 C    3.925 --     1 N    1.957     3 C    0.995    47 H    0.892
     3   6 C    3.976 --     2 C    0.995     4 C    0.968    14 C    0.958
                            31 C    0.942
     4   6 C    3.950 --    13 C    1.414     5 C    1.368     3 C    0.968
     5   6 C    3.962 --     6 C    1.402     4 C    1.368    34 H    0.958
     6   6 C    3.906 --     5 C    1.402     9 C    1.221     7 O    1.100
     7   8 O    2.255 --     6 C    1.100     8 C    0.978
     8   6 C    3.932 --     7 O    0.978    36 H    0.977    35 H    0.974
                            37 H    0.973
     9   6 C    3.902 --    12 C    1.393     6 C    1.221    10 O    1.102
    10   8 O    2.253 --     9 C    1.102    11 C    0.978
    11   6 C    3.931 --    10 O    0.978    39 H    0.977    40 H    0.974
                            38 H    0.973
    12   6 C    3.963 --    13 C    1.401     9 C    1.393    41 H    0.964
    13   6 C    3.955 --     4 C    1.414    12 C    1.401    42 H    0.962
    14   6 C    3.972 --    15 C    0.981    44 H    0.973    43 H    0.969
                             3 C    0.958
    15   6 C    3.987 --    16 C    1.059    14 C    0.981    45 H    0.962
                            46 H    0.928
    16   6 C    3.601 --    17 N    1.397    15 C    1.059    48 H    0.957
    17   7 N    3.480 --    16 C    1.397    30 C    0.998    18 C    0.988
    18   6 C    3.956 --    17 N    0.988    50 H    0.968    19 C    0.967
                            49 H    0.964
    19   6 C    3.976 --    20 C    1.008    52 H    0.972    51 H    0.972
                            18 C    0.967
    20   6 C    3.944 --    21 C    1.409    29 C    1.380    19 C    1.008
    21   6 C    3.950 --    22 C    1.417    20 C    1.409    53 H    0.968
    22   6 C    3.959 --    21 C    1.417    23 C    1.383    54 H    0.963
    23   6 C    3.895 --    22 C    1.383    26 C    1.219    24 O    1.111
    24   8 O    2.255 --    23 C    1.111    25 C    0.976
    25   6 C    3.928 --    57 H    0.977    24 O    0.976    55 H    0.973
                            56 H    0.973
    26   6 C    3.899 --    29 C    1.395    23 C    1.219    27 O    1.104
    27   8 O    2.254 --    26 C    1.104    28 C    0.978
    28   6 C    3.932 --    27 O    0.978    58 H    0.977    59 H    0.973
                            60 H    0.973
    29   6 C    3.959 --    26 C    1.395    20 C    1.380    61 H    0.962
    30   6 C    3.957 --    17 N    0.998    64 H    0.978    62 H    0.966
                            63 H    0.960
    31   6 C    3.972 --    33 C    1.009    32 C    1.008    65 H    0.960
                             3 C    0.942
    32   6 C    3.979 --    31 C    1.008    67 H    0.981    68 H    0.981
                            66 H    0.974
    33   6 C    3.983 --    31 C    1.009    70 H    0.983    71 H    0.980
                            69 H    0.977
    34   1 H    0.996 --     5 C    0.958
    35   1 H    0.993 --     8 C    0.974
    36   1 H    0.993 --     8 C    0.977
    37   1 H    0.994 --     8 C    0.973
    38   1 H    0.993 --    11 C    0.973
    39   1 H    0.993 --    11 C    0.977
    40   1 H    0.993 --    11 C    0.974
    41   1 H    0.996 --    12 C    0.964
    42   1 H    0.998 --    13 C    0.962
    43   1 H    0.995 --    14 C    0.969
    44   1 H    0.996 --    14 C    0.973
    45   1 H    0.995 --    15 C    0.962
    46   1 H    0.971 --    15 C    0.928
    47   1 H    0.987 --     2 C    0.892
    48   1 H    0.995 --    16 C    0.957
    49   1 H    0.991 --    18 C    0.964
    50   1 H    0.994 --    18 C    0.968
    51   1 H    0.996 --    19 C    0.972
    52   1 H    0.996 --    19 C    0.972
    53   1 H    0.997 --    21 C    0.968
    54   1 H    0.995 --    22 C    0.963
    55   1 H    0.992 --    25 C    0.973
    56   1 H    0.992 --    25 C    0.973
    57   1 H    0.992 --    25 C    0.977
    58   1 H    0.993 --    28 C    0.977
    59   1 H    0.993 --    28 C    0.973
    60   1 H    0.993 --    28 C    0.973
    61   1 H    0.997 --    29 C    0.962
    62   1 H    0.985 --    30 C    0.966
    63   1 H    0.987 --    30 C    0.960
    64   1 H    0.993 --    30 C    0.978
    65   1 H    0.993 --    31 C    0.960
    66   1 H    0.991 --    32 C    0.974
    67   1 H    0.997 --    32 C    0.981
    68   1 H    0.994 --    32 C    0.981
    69   1 H    0.993 --    33 C    0.977
    70   1 H    0.997 --    33 C    0.983
    71   1 H    0.994 --    33 C    0.980
    72   1 H    0.970 --     1 N    0.941
 ---------------------------------------------------------------------------

molecular dipole:
                 x           y           z       tot (Debye)
 q only:        0.665      -0.049      -0.809
   full:        0.959      -0.094      -0.990       3.512

           -------------------------------------------------
          | TOTAL ENERGY              -99.406560730264 Eh   |
          | GRADIENT NORM               0.003662977587 Eh/α |
          | HOMO-LUMO GAP               1.675007566606 eV   |
           -------------------------------------------------

 * finished run on 2024/04/06 at 11:15:22.774
