   * xtb version 6.6.1 (8d0f1dd) compiled by 'conda@1efc2f54142f' on 2023-08-01
          program call               : xtb struc.xyz --opt loose --input .xc1 --gfn2

   ID    Z sym.   atoms
    1    7 N      1, 17
    2    6 C      2-6, 8, 9, 11-16, 18-23, 25, 26, 28-33
    3    8 O      7, 10, 24, 27
    4    1 H      34-72
constraining bond 20 53 to    2.7133300 Å, actual value:    2.1394549 Å

          :  Hamiltonian                  GFN2-xTB          :
 * total energy  :   -99.4629343 Eh     change       -0.4035485E-08 Eh
 * total energy  :   -99.5341268 Eh     change       -0.7119247E-01 Eh
 * total energy  :   -99.6142064 Eh     change       -0.8007958E-01 Eh
 * total energy  :   -99.6825002 Eh     change       -0.6829379E-01 Eh
 * total energy  :   -99.6922325 Eh     change       -0.9732338E-02 Eh
 * total energy  :   -99.7184130 Eh     change       -0.2618049E-01 Eh
 * total energy  :   -99.7263811 Eh     change       -0.7968124E-02 Eh
 * total energy  :   -99.7464794 Eh     change       -0.2009827E-01 Eh
 * total energy  :   -99.7593211 Eh     change       -0.1284171E-01 Eh
 * total energy  :   -99.7737685 Eh     change       -0.1444744E-01 Eh
 * total energy  :   -99.8597040 Eh     change       -0.1549352E-03 Eh
 * total energy  :   -99.8598551 Eh     change       -0.1511535E-03 Eh
 * total energy  :   -99.8599847 Eh     change       -0.1295352E-03 Eh
 * total energy  :   -99.8601074 Eh     change       -0.1226856E-03 Eh
 * total energy  :   -99.8602073 Eh     change       -0.9991516E-04 Eh
 * total energy  :   -99.8602623 Eh     change       -0.5506381E-04 Eh
 * total energy  :   -99.8603121 Eh     change       -0.4972457E-04 Eh
 * total energy  :   -99.8603697 Eh     change       -0.5767340E-04 Eh
 * total energy  :   -99.8604144 Eh     change       -0.4462197E-04 Eh
   *** GEOMETRY OPTIMIZATION CONVERGED AFTER 43 ITERATIONS ***

 final structure:
================
72
 xtb: 6.6.1 (8d0f1dd)
N           -1.66713942788107        2.80900272052880        2.29684400245745
C           -1.62755884777483        2.15046545618419        1.23662477203733
C           -2.79345978603101        1.94849605357323        0.30888147311337
C           -3.28040754780818        0.51027272531669        0.40363472909110
C           -4.18188687915324        0.02004907122389       -0.54354608031260
C           -4.66651028030894       -1.27541211456094       -0.47865460552185
O           -5.53483098549579       -1.82770991092473       -1.35177137740436
C           -6.06921121734077       -1.03714869105411       -2.38708298776536
C           -4.24126099912568       -2.12991052893823        0.57404895892374
O           -4.76280632300804       -3.37330817227204        0.55778145295171
C           -4.45722276613908       -4.25741808746641        1.61075315006296
C           -3.35080586675649       -1.63568912146538        1.51341588777710
C           -2.87622457868086       -0.33252000316729        1.42718161645582
C           -2.25178482473464        2.23621882654201       -1.11459114698550
C           -1.33533848392141        1.13532512082360       -1.67619138124072
C            0.02628403359277        1.11019593316501       -1.09232896327989
N            0.67672449968822        0.01637041736741       -0.70648370516169
C            2.11803249862296        0.02071764568875       -0.61571363189780
C            2.73485151822203       -0.52474287739395       -1.90695213807974
C            4.28675365456535       -0.40677713815098       -1.91249892250999
C            4.69115431107747        0.99492960313026       -1.65650617721143
C            5.66604215261127        1.35475481903265       -0.79713931608795
C            6.29451772140757        0.40311360852562        0.04000077599742
O            7.25813234281092        0.65360706353116        0.91894818367845
C            7.80367973747101        1.95064162699313        1.02156565210558
C            5.84859041037469       -0.96984198567128       -0.01634612834097
O            6.46963907494244       -1.77148213770123        0.87994459191575
C            6.16517087410564       -3.14592952745348        0.88457241664216
C            4.89312080507014       -1.35091594852829       -0.89855551811744
C            0.01101667130164       -1.25351094555861       -0.54467591516272
C           -3.99997399154940        2.88583402161094        0.61641285554142
C           -4.64212788424697        2.55199946245015        1.96073373547224
C           -3.63408452984874        4.36664436600378        0.57464313290796
H           -4.52027782590242        0.66684724270394       -1.33570560787396
H           -6.61571880720763       -0.17505604604293       -1.99312232485001
H           -6.75948767977347       -1.68608559209838       -2.92241919853697
H           -5.28985197103500       -0.69433198842495       -3.07567758498285
H           -4.77071838593267       -3.85255779920986        2.57752221774883
H           -5.01821794579970       -5.16597142268446        1.40102968639786
H           -3.38813288493664       -4.49118545519086        1.64161756412822
H           -3.02377184596133       -2.25538177398916        2.33236200130327
H           -2.20547673741855        0.02609521435429        2.19254811479856
H           -3.09443345103335        2.35570888102861       -1.79470502224361
H           -1.70548512083366        3.18010101628770       -1.10025786767112
H           -1.82755266913557        0.16849602443282       -1.58846239591878
H           -1.20893743749319        1.35108132990042       -2.74563424934429
H           -0.70770157507300        1.67376512989115        0.83985788074384
H            0.61586603413751        2.01242285120319       -1.16687493228653
H            2.43596942375015       -0.58455590651097        0.23700919162320
H            2.47518382637105        1.04220136180498       -0.46620639187420
H            2.34935809497337        0.05148625548200       -2.74993369028334
H            2.45641513445475       -1.57039982143839       -2.04521395506441
H            4.54311743936717       -0.62775677157465       -2.68762634983673
H            5.95628388061829        2.39236609165174       -0.71736657106450
H            7.05975518021134        2.66600719133932        1.38507584565915
H            8.20262213628864        2.29183227933922        0.06199993383530
H            8.61387297371746        1.87218331120533        1.74492828413785
H            6.80185549964352       -3.58535047473664        1.64830439359592
H            5.11758733203192       -3.32209813055349        1.14219268172716
H            6.38591779186711       -3.60673371794529       -0.08096970335285
H            4.56719743741898       -2.37742668211839       -0.96502475059433
H           -0.21718803425028       -1.71556501443543       -1.50806911580765
H           -0.92004073708058       -1.12447383994604        0.01122133752509
H            0.65863293702229       -1.92446113228337        0.01554625938813
H           -4.74295727570907        2.69739579283604       -0.16734164728551
H           -3.92937707189028        2.71197569978320        2.76315855818563
H           -4.98190537803570        1.51970839214281        1.98942134335325
H           -5.50004957609247        3.19877528985901        2.12435683696427
H           -2.88920289266436        4.59264501466827        1.33144758983312
H           -3.25773187677705        4.66564819686235       -0.40001189366049
H           -4.52103898719975        4.95879106083889        0.78428112701815
H           -0.80893844369836        2.90167611267175        2.83105785512420

          :  Hamiltonian                  GFN2-xTB          :
         :: total energy             -99.860414352436 Eh    ::
         :: gradient norm              0.003004416618 Eh/a0 ::
         :: HOMO-LUMO gap              0.764877346157 eV    ::
         :: SCC energy              -100.671264968689 Eh    ::
         :: -> dispersion             -0.075390668792 Eh    ::
         :: repulsion energy           1.431996254056 Eh    ::

    * Orbital Energies and Occupations

         #    Occupation            Energy/Eh            Energy/eV
      -------------------------------------------------------------
         1        2.0000           -0.8253960             -22.4602
       ...           ...                  ...                  ...
        78        1.9987           -0.5306929             -14.4409
        79        1.9984           -0.5269351             -14.3386
        80        1.9983           -0.5260809             -14.3154
        81        1.9975           -0.5202087             -14.1556
        82        1.9960           -0.5128604             -13.9556
        83        1.9953           -0.5101657             -13.8823
        84        1.9946           -0.5080215             -13.8240
        85        1.9944           -0.5074007             -13.8071
        86        1.9816           -0.4883972             -13.2900
        87        1.9731           -0.4823305             -13.1249
        88        1.9404           -0.4694437             -12.7742
        89        1.8766           -0.4573885             -12.4462
        90        1.3549           -0.4260437             -11.5932 (HOMO)
        91        0.5250           -0.3979350             -10.8284 (LUMO)
        92        0.3580           -0.3901744             -10.6172
        93        0.0149           -0.3368135              -9.1652
        94        0.0036           -0.3143305              -8.5534
        95        0.0030           -0.3113579              -8.4725
        96        0.0019           -0.3044133              -8.2835
        97        0.0000           -0.2259353              -6.1480
        98        0.0000           -0.1886077              -5.1323
        99                         -0.1344169              -3.6577
       100                         -0.0759882              -2.0677
       101                         -0.0652560              -1.7757
       ...                                ...                  ...
       171                          0.7954056              21.6441
      -------------------------------------------------------------
                  HL-Gap            0.0281087 Eh            0.7649 eV

     #   Z          covCN         q      C6AA      α(0)
     1   7 N        1.774    -0.269    27.794     7.807
     2   6 C        2.827     0.102    25.741     8.314
     3   6 C        3.908     0.006    20.413     6.422
     4   6 C        2.974     0.003    27.963     8.674
     5   6 C        2.920    -0.080    30.011     8.984
     6   6 C        2.862     0.129    25.171     8.224
     7   8 O        1.706    -0.231    17.829     5.701
     8   6 C        3.644     0.028    20.443     6.499
     9   6 C        2.864     0.128    25.188     8.227
    10   8 O        1.706    -0.230    17.806     5.697
    11   6 C        3.645     0.027    20.453     6.500
    12   6 C        2.914    -0.074    29.858     8.960
    13   6 C        2.921    -0.054    29.329     8.881
    14   6 C        3.813    -0.065    21.737     6.636
    15   6 C        3.802    -0.069    21.817     6.650
    16   6 C        2.843     0.005    27.909     8.658
    17   7 N        2.730     0.007    21.138     6.828
    18   6 C        3.754    -0.018    20.958     6.528
    19   6 C        3.806    -0.066    21.761     6.641
    20   6 C        3.864    -0.029    21.041     6.523
    21   6 C        1.984    -0.119    34.383     9.469
    22   6 C        2.898    -0.063    29.563     8.915
    23   6 C        2.864     0.145    24.851     8.171
    24   8 O        1.706    -0.191    17.190     5.598
    25   6 C        3.646     0.021    20.547     6.514
    26   6 C        2.848     0.131    25.137     8.217
    27   8 O        1.706    -0.243    18.024     5.732
    28   6 C        3.646     0.028    20.429     6.495
    29   6 C        2.902    -0.091    30.275     9.022
    30   6 C        3.700    -0.070    22.008     6.709
    31   6 C        3.853    -0.007    20.665     6.466
    32   6 C        3.756    -0.119    22.833     6.813
    33   6 C        3.755    -0.118    22.813     6.810
    34   1 H        0.926     0.052     2.298     2.370
    35   1 H        0.924     0.054     2.276     2.359
    36   1 H        0.925     0.081     1.972     2.196
    37   1 H        0.924     0.046     2.366     2.406
    38   1 H        0.924     0.055     2.260     2.351
    39   1 H        0.925     0.081     1.973     2.197
    40   1 H        0.924     0.048     2.350     2.397
    41   1 H        0.926     0.052     2.294     2.369
    42   1 H        0.926     0.040     2.452     2.449
    43   1 H        0.925     0.059     2.212     2.326
    44   1 H        0.924     0.053     2.278     2.360
    45   1 H        0.925     0.065     2.141     2.288
    46   1 H        0.923     0.079     1.989     2.206
    47   1 H        0.922     0.007     2.936     2.680
    48   1 H        0.926     0.070     2.088     2.259
    49   1 H        0.924     0.064     2.155     2.296
    50   1 H        0.924     0.074     2.040     2.233
    51   1 H        0.924     0.059     2.207     2.323
    52   1 H        0.924     0.052     2.301     2.372
    53   1 H        0.930     0.126     1.567     1.957
    54   1 H        0.926     0.059     2.208     2.324
    55   1 H        0.924     0.063     2.168     2.302
    56   1 H        0.924     0.066     2.131     2.283
    57   1 H        0.925     0.088     1.903     2.157
    58   1 H        0.925     0.081     1.970     2.195
    59   1 H        0.924     0.044     2.399     2.422
    60   1 H        0.924     0.052     2.300     2.371
    61   1 H        0.926     0.052     2.294     2.368
    62   1 H        0.924     0.073     2.057     2.243
    63   1 H        0.924     0.080     1.976     2.198
    64   1 H        0.925     0.077     2.014     2.219
    65   1 H        0.924     0.037     2.491     2.468
    66   1 H        0.925     0.069     2.095     2.264
    67   1 H        0.925     0.036     2.508     2.477
    68   1 H        0.925     0.051     2.306     2.375
    69   1 H        0.925     0.059     2.206     2.322
    70   1 H        0.925     0.034     2.526     2.485
    71   1 H        0.925     0.054     2.272     2.357
    72   1 H        0.860     0.157     1.357     1.825

Wiberg/Mayer (AO) data.
largest (>0.10) Wiberg bond orders for each atom

     #   Z sym  total        # sym  WBO       # sym  WBO       # sym  WBO
 ---------------------------------------------------------------------------
     1   7 N    3.041 --     2 C    1.957    72 H    0.942
     2   6 C    3.927 --     1 N    1.957     3 C    0.995    47 H    0.898
     3   6 C    3.976 --     2 C    0.995     4 C    0.968    14 C    0.959
                            31 C    0.940
     4   6 C    3.950 --    13 C    1.414     5 C    1.367     3 C    0.968
     5   6 C    3.963 --     6 C    1.402     4 C    1.367    34 H    0.958
     6   6 C    3.906 --     5 C    1.402     9 C    1.223     7 O    1.098
     7   8 O    2.254 --     6 C    1.098     8 C    0.978
     8   6 C    3.933 --     7 O    0.978    36 H    0.977    37 H    0.974
                            35 H    0.974
     9   6 C    3.903 --    12 C    1.393     6 C    1.223    10 O    1.100
    10   8 O    2.252 --     9 C    1.100    11 C    0.978
    11   6 C    3.932 --    10 O    0.978    39 H    0.977    40 H    0.974
                            38 H    0.974
    12   6 C    3.963 --    13 C    1.402     9 C    1.393    41 H    0.964
    13   6 C    3.956 --     4 C    1.414    12 C    1.402    42 H    0.963
    14   6 C    3.973 --    15 C    0.982    44 H    0.972    43 H    0.969
                             3 C    0.959
    15   6 C    3.985 --    16 C    1.057    14 C    0.982    45 H    0.962
                            46 H    0.927
    16   6 C    3.581 --    17 N    1.391    15 C    1.057    48 H    0.958
    17   7 N    3.470 --    16 C    1.391    30 C    0.999    18 C    0.986
    18   6 C    3.954 --    17 N    0.986    19 C    0.986    49 H    0.965
                            50 H    0.962
    19   6 C    3.945 --    18 C    0.986    52 H    0.975    51 H    0.975
                            20 C    0.940
    20   6 C    3.944 --    21 C    1.036    29 C    0.989    19 C    0.940
                            53 H    0.913
    21   6 C    2.799 --    22 C    1.614    20 C    1.036
    22   6 C    3.943 --    21 C    1.614    23 C    1.242    54 H    0.949
    23   6 C    3.659 --    22 C    1.242    24 O    1.170    26 C    1.128
    24   8 O    2.291 --    23 C    1.170    25 C    0.966
    25   6 C    3.920 --    57 H    0.976    56 H    0.971    55 H    0.970
                            24 O    0.966
    26   6 C    3.928 --    29 C    1.595    23 C    1.128    27 O    1.081
    27   8 O    2.245 --    26 C    1.081    28 C    0.979    29 C    0.108
    28   6 C    3.934 --    27 O    0.979    58 H    0.977    59 H    0.975
                            60 H    0.974
    29   6 C    3.773 --    26 C    1.595    20 C    0.989    61 H    0.957
                            27 O    0.108
    30   6 C    3.958 --    17 N    0.999    64 H    0.977    62 H    0.965
                            63 H    0.962
    31   6 C    3.972 --    33 C    1.009    32 C    1.008    65 H    0.960
                             3 C    0.940
    32   6 C    3.979 --    31 C    1.008    67 H    0.982    68 H    0.981
                            66 H    0.974
    33   6 C    3.984 --    31 C    1.009    70 H    0.983    71 H    0.980
                            69 H    0.977
    34   1 H    0.996 --     5 C    0.958
    35   1 H    0.993 --     8 C    0.974
    36   1 H    0.993 --     8 C    0.977
    37   1 H    0.994 --     8 C    0.974
    38   1 H    0.993 --    11 C    0.974
    39   1 H    0.993 --    11 C    0.977
    40   1 H    0.994 --    11 C    0.974
    41   1 H    0.996 --    12 C    0.964
    42   1 H    0.998 --    13 C    0.963
    43   1 H    0.995 --    14 C    0.969
    44   1 H    0.996 --    14 C    0.972
    45   1 H    0.995 --    15 C    0.962
    46   1 H    0.969 --    15 C    0.927
    47   1 H    0.987 --     2 C    0.898
    48   1 H    0.995 --    16 C    0.958
    49   1 H    0.992 --    18 C    0.965
    50   1 H    0.993 --    18 C    0.962
    51   1 H    0.995 --    19 C    0.975
    52   1 H    0.997 --    19 C    0.975
    53   1 H    0.965 --    20 C    0.913
    54   1 H    0.981 --    22 C    0.949
    55   1 H    0.990 --    25 C    0.970
    56   1 H    0.990 --    25 C    0.971
    57   1 H    0.991 --    25 C    0.976
    58   1 H    0.993 --    28 C    0.977
    59   1 H    0.996 --    28 C    0.975
    60   1 H    0.995 --    28 C    0.974
    61   1 H    0.987 --    29 C    0.957
    62   1 H    0.984 --    30 C    0.965
    63   1 H    0.989 --    30 C    0.962
    64   1 H    0.993 --    30 C    0.977
    65   1 H    0.993 --    31 C    0.960
    66   1 H    0.991 --    32 C    0.974
    67   1 H    0.997 --    32 C    0.982
    68   1 H    0.994 --    32 C    0.981
    69   1 H    0.994 --    33 C    0.977
    70   1 H    0.997 --    33 C    0.983
    71   1 H    0.994 --    33 C    0.980
    72   1 H    0.970 --     1 N    0.942
 ---------------------------------------------------------------------------

molecular dipole:
                 x           y           z       tot (Debye)
 q only:        1.225      -0.091      -0.810
   full:        1.764      -0.396      -0.888       5.120

           -------------------------------------------------
          | TOTAL ENERGY              -99.860414352436 Eh   |
          | GRADIENT NORM               0.003004416618 Eh/α |
          | HOMO-LUMO GAP               0.764877346157 eV   |
           -------------------------------------------------

 * finished run on 2024/04/06 at 11:16:56.294
