   * xtb version 6.6.1 (8d0f1dd) compiled by 'conda@1efc2f54142f' on 2023-08-01
          program call               : xtb xtbopt.xyz --opt crude --input .xc2 --gfn2

   ID    Z sym.   atoms
    1    7 N      1, 17
    2    6 C      2-6, 8, 9, 11-16, 18-23, 25, 26, 28-33
    3    8 O      7, 10, 24, 27
    4    1 H      34-72
########################################################################
[WARNING] Please study the warnings concerning your input carefully
-1- readin_getIntValue: could not parse ''
########################################################################

          :  Hamiltonian                  GFN2-xTB          :
 * total energy  :   -99.2376798 Eh     change       -0.2485478E-10 Eh
 * total energy  :   -99.2985081 Eh     change       -0.6082830E-01 Eh
 * total energy  :   -99.3000400 Eh     change       -0.1531943E-02 Eh
 * total energy  :   -99.3007635 Eh     change       -0.7234799E-03 Eh
 * total energy  :   -99.3008107 Eh     change       -0.4723188E-04 Eh
   *** GEOMETRY OPTIMIZATION CONVERGED AFTER 5 ITERATIONS ***

 final structure:
================
72
 xtb: 6.6.1 (8d0f1dd)
N           -1.66511096142590        2.81352412917233        2.29411926528878
C           -1.62790156465246        2.15086881713499        1.23634017568172
C           -2.79527835184814        1.94976018764525        0.31009335139148
C           -3.28179497874430        0.51155201224366        0.40559999792619
C           -4.18374726109259        0.02082037673710       -0.54090985356499
C           -4.66711920114713       -1.27508202191446       -0.47619978853491
O           -5.53529688327479       -1.82772477056776       -1.34929890774948
C           -6.07140465761824       -1.03638961756417       -2.38313406384435
C           -4.24035203937339       -2.12961179707699        0.57586814863535
O           -4.76082439495581       -3.37350468662386        0.55957130731409
C           -4.45565435349520       -4.25698735854083        1.61312775888141
C           -3.34954748238001       -1.63490929018376        1.51461101798131
C           -2.87601437733027       -0.33130921553437        1.42845572763994
C           -2.25664692566886        2.23839482160524       -1.11456691826286
C           -1.34732103296157        1.13538294700658       -1.68298754021522
C            0.01533862797482        1.10445204845192       -1.10354046560242
N            0.66233424887749        0.00884601568764       -0.71760426733576
C            2.10303960105213        0.01454628418326       -0.61463622820292
C            2.73688182843171       -0.52276669029062       -1.90384493091747
C            4.27309208222567       -0.39370669730122       -1.85674362334865
C            4.69848728284287        0.99791427088064       -1.64536823110901
C            5.67216203260616        1.35844802155320       -0.78509183810035
C            6.29475359385093        0.40754836306058        0.05580657022765
O            7.25947323056713        0.65869971824946        0.93397015535387
C            7.80958987787627        1.95505663264769        1.03054463187967
C            5.85227758601912       -0.96600407178842       -0.00052849915101
O            6.48122693341553       -1.77148036042448        0.88762473664774
C            6.17584129790782       -3.14597745749433        0.88751057762868
C            4.89123763049016       -1.34617234611066       -0.87842906238431
C           -0.00367512059492       -1.26170377569632       -0.56339028250431
C           -4.00070784438973        2.88753554658871        0.61969036363924
C           -4.63967616705944        2.55565135160686        1.96598504041041
C           -3.63421615429762        4.36820194861162        0.57517744573946
H           -4.52300614100786        0.66777071078302       -1.33257049177054
H           -6.61664212509238       -0.17418510227295       -1.98761541493549
H           -6.76309338075186       -1.68464484164573       -2.91748280240899
H           -5.29319333449142       -0.69364375021308       -3.07311088841274
H           -4.76894203739146       -3.85130229694422        2.57958349820122
H           -5.01711806911218       -5.16540695925283        1.40402918633447
H           -3.38672396386517       -4.49133209945650        1.64419919169994
H           -3.02110592352577       -2.25473040217529        2.33294903480799
H           -2.20455545888138        0.02728738037098        2.19317359882338
H           -3.10103035734110        2.36428216628124       -1.79112837705592
H           -1.70580893233891        3.17957441437858       -1.09917144941702
H           -1.84244078591618        0.16999299372910       -1.59593047174642
H           -1.22432209599530        1.35341599304589       -2.75227806748259
H           -0.71024321336682        1.66932691592573        0.84149658910226
H            0.60612505335298        2.00634108613172       -1.17358012169302
H            2.41350725171115       -0.59489076565288        0.23810904550915
H            2.45653178231612        1.03628842534990       -0.45521365492140
H            2.36145512013656        0.05946690045766       -2.74654334547267
H            2.46122675874312       -1.56779395074843       -2.05101817163952
H            4.62241069252103       -0.68083746836375       -2.86325813673096
H            5.97228956250581        2.39371579147780       -0.71608582752519
H            7.06723755350655        2.67569222455648        1.38552320927111
H            8.21466449607340        2.28816532435534        0.07121174357860
H            8.61527015318121        1.87785958278794        1.75805825632399
H            6.81483281113926       -3.58779820496177        1.64915102569029
H            5.12693575832534       -3.32309787975345        1.14698227980298
H            6.39480860266886       -3.60437498667290       -0.08158660826456
H            4.56821498613261       -2.37282911931829       -0.94680440446852
H           -0.22651288827640       -1.72050411112648       -1.52965414894265
H           -0.93755059099885       -1.13522482159641       -0.01155434937470
H            0.64146565860905       -1.93407409033180       -0.00207622592959
H           -4.74582123953103        2.69847927674536       -0.16185403560344
H           -3.92643526014050        2.72101014374653        2.76689149744761
H           -4.97526193628723        1.52203998887801        1.99850116858507
H           -5.49994868297608        3.19954221903136        2.12855876207230
H           -2.88655251032932        4.59438038746305        1.32917773650830
H           -3.26092283967181        4.66599332278825       -0.40105396161149
H           -4.52005400176097        4.96106502698001        0.78732059156518
H           -0.80662097670197        2.90524676175522        2.82809761125586

          :  Hamiltonian                  GFN2-xTB          :
         :: total energy             -99.300810716218 Eh    ::
         :: gradient norm              0.000847115100 Eh/a0 ::
         :: HOMO-LUMO gap              0.771370380994 eV    ::
         :: SCC energy              -100.651044472180 Eh    ::
         :: -> dispersion             -0.075354303162 Eh    ::
         :: repulsion energy           1.348645412258 Eh    ::

    * Orbital Energies and Occupations

         #    Occupation            Energy/Eh            Energy/eV
      -------------------------------------------------------------
         1        2.0000           -0.8250331             -22.4503
       ...           ...                  ...                  ...
        78        1.9987           -0.5302741             -14.4295
        79        1.9984           -0.5268726             -14.3369
        80        1.9983           -0.5260586             -14.3148
        81        1.9975           -0.5202061             -14.1555
        82        1.9961           -0.5128341             -13.9549
        83        1.9953           -0.5101235             -13.8812
        84        1.9945           -0.5075331             -13.8107
        85        1.9944           -0.5072962             -13.8042
        86        1.9817           -0.4884164             -13.2905
        87        1.9726           -0.4819546             -13.1147
        88        1.9401           -0.4693228             -12.7709
        89        1.8771           -0.4574224             -12.4471
        90        1.3561           -0.4260517             -11.5935 (HOMO)
        91        0.5202           -0.3977044             -10.8221 (LUMO)
        92        0.3623           -0.3903696             -10.6225
        93        0.0148           -0.3367271              -9.1628
        94        0.0036           -0.3143647              -8.5543
        95        0.0030           -0.3113814              -8.4731
        96        0.0019           -0.3040607              -8.2739
        97        0.0000           -0.2267441              -6.1700
        98        0.0000           -0.1886356              -5.1330
        99                         -0.1344496              -3.6586
       100                         -0.0752470              -2.0476
       101                         -0.0652383              -1.7752
       ...                                ...                  ...
       171                          0.5744492              15.6316
      -------------------------------------------------------------
                  HL-Gap            0.0283473 Eh            0.7714 eV

     #   Z          covCN         q      C6AA      α(0)
     1   7 N        1.774    -0.269    27.799     7.808
     2   6 C        2.827     0.102    25.739     8.313
     3   6 C        3.908     0.006    20.413     6.422
     4   6 C        2.974     0.003    27.965     8.674
     5   6 C        2.920    -0.080    30.013     8.984
     6   6 C        2.862     0.129    25.173     8.224
     7   8 O        1.706    -0.231    17.831     5.701
     8   6 C        3.644     0.028    20.442     6.499
     9   6 C        2.864     0.128    25.190     8.227
    10   8 O        1.706    -0.230    17.808     5.698
    11   6 C        3.645     0.027    20.452     6.500
    12   6 C        2.914    -0.075    29.859     8.960
    13   6 C        2.921    -0.054    29.329     8.881
    14   6 C        3.813    -0.065    21.736     6.636
    15   6 C        3.802    -0.069    21.817     6.650
    16   6 C        2.843     0.005    27.904     8.657
    17   7 N        2.730     0.007    21.133     6.828
    18   6 C        3.755    -0.018    20.947     6.526
    19   6 C        3.806    -0.065    21.744     6.638
    20   6 C        3.862    -0.005    20.634     6.460
    21   6 C        1.984    -0.117    34.298     9.458
    22   6 C        2.899    -0.063    29.556     8.914
    23   6 C        2.864     0.144    24.854     8.172
    24   8 O        1.706    -0.192    17.202     5.600
    25   6 C        3.646     0.021    20.551     6.515
    26   6 C        2.848     0.131    25.137     8.217
    27   8 O        1.706    -0.242    18.015     5.731
    28   6 C        3.645     0.028    20.428     6.496
    29   6 C        2.903    -0.088    30.203     9.011
    30   6 C        3.699    -0.070    22.006     6.709
    31   6 C        3.853    -0.007    20.666     6.466
    32   6 C        3.756    -0.119    22.832     6.813
    33   6 C        3.755    -0.118    22.814     6.811
    34   1 H        0.926     0.052     2.298     2.370
    35   1 H        0.924     0.054     2.276     2.359
    36   1 H        0.925     0.081     1.972     2.196
    37   1 H        0.924     0.046     2.367     2.406
    38   1 H        0.924     0.055     2.260     2.351
    39   1 H        0.925     0.081     1.973     2.197
    40   1 H        0.924     0.048     2.351     2.398
    41   1 H        0.926     0.052     2.295     2.369
    42   1 H        0.926     0.040     2.452     2.449
    43   1 H        0.925     0.059     2.211     2.325
    44   1 H        0.924     0.053     2.278     2.360
    45   1 H        0.925     0.065     2.140     2.288
    46   1 H        0.923     0.079     1.988     2.205
    47   1 H        0.922     0.007     2.946     2.684
    48   1 H        0.926     0.070     2.088     2.259
    49   1 H        0.924     0.064     2.157     2.297
    50   1 H        0.924     0.074     2.046     2.237
    51   1 H        0.924     0.060     2.194     2.316
    52   1 H        0.924     0.052     2.291     2.367
    53   1 H        0.923     0.093     1.847     2.125
    54   1 H        0.926     0.060     2.201     2.320
    55   1 H        0.924     0.063     2.168     2.302
    56   1 H        0.924     0.066     2.131     2.283
    57   1 H        0.925     0.088     1.901     2.156
    58   1 H        0.925     0.081     1.967     2.193
    59   1 H        0.924     0.044     2.401     2.423
    60   1 H        0.924     0.051     2.301     2.372
    61   1 H        0.926     0.053     2.287     2.365
    62   1 H        0.924     0.073     2.054     2.241
    63   1 H        0.924     0.080     1.975     2.198
    64   1 H        0.925     0.077     2.014     2.220
    65   1 H        0.924     0.037     2.492     2.468
    66   1 H        0.925     0.069     2.095     2.264
    67   1 H        0.925     0.036     2.508     2.477
    68   1 H        0.925     0.051     2.307     2.375
    69   1 H        0.925     0.060     2.204     2.322
    70   1 H        0.925     0.034     2.526     2.485
    71   1 H        0.925     0.054     2.272     2.357
    72   1 H        0.860     0.156     1.358     1.826

Wiberg/Mayer (AO) data.
largest (>0.10) Wiberg bond orders for each atom

     #   Z sym  total        # sym  WBO       # sym  WBO       # sym  WBO
 ---------------------------------------------------------------------------
     1   7 N    3.040 --     2 C    1.957    72 H    0.942
     2   6 C    3.928 --     1 N    1.957     3 C    0.995    47 H    0.900
     3   6 C    3.976 --     2 C    0.995     4 C    0.969    14 C    0.959
                            31 C    0.941
     4   6 C    3.950 --    13 C    1.414     5 C    1.367     3 C    0.969
     5   6 C    3.963 --     6 C    1.402     4 C    1.367    34 H    0.958
     6   6 C    3.906 --     5 C    1.402     9 C    1.223     7 O    1.098
     7   8 O    2.254 --     6 C    1.098     8 C    0.979
     8   6 C    3.933 --     7 O    0.979    36 H    0.977    37 H    0.974
                            35 H    0.974
     9   6 C    3.903 --    12 C    1.393     6 C    1.223    10 O    1.100
    10   8 O    2.252 --     9 C    1.100    11 C    0.978
    11   6 C    3.932 --    10 O    0.978    39 H    0.977    40 H    0.974
                            38 H    0.974
    12   6 C    3.963 --    13 C    1.402     9 C    1.393    41 H    0.964
    13   6 C    3.956 --     4 C    1.414    12 C    1.402    42 H    0.963
    14   6 C    3.973 --    15 C    0.982    44 H    0.972    43 H    0.969
                             3 C    0.959
    15   6 C    3.985 --    16 C    1.058    14 C    0.982    45 H    0.962
                            46 H    0.927
    16   6 C    3.581 --    17 N    1.392    15 C    1.058    48 H    0.958
    17   7 N    3.470 --    16 C    1.392    30 C    0.999    18 C    0.987
    18   6 C    3.955 --    17 N    0.987    19 C    0.983    49 H    0.965
                            50 H    0.962
    19   6 C    3.950 --    18 C    0.983    52 H    0.975    51 H    0.975
                            20 C    0.954
    20   6 C    3.950 --    21 C    1.045    29 C    1.001    19 C    0.954
                            53 H    0.889
    21   6 C    2.803 --    22 C    1.610    20 C    1.045
    22   6 C    3.943 --    21 C    1.610    23 C    1.244    54 H    0.949
    23   6 C    3.663 --    22 C    1.244    24 O    1.169    26 C    1.130
    24   8 O    2.291 --    23 C    1.169    25 C    0.966
    25   6 C    3.920 --    57 H    0.976    56 H    0.971    55 H    0.971
                            24 O    0.966
    26   6 C    3.928 --    29 C    1.590    23 C    1.130    27 O    1.082
    27   8 O    2.245 --    26 C    1.082    28 C    0.979    29 C    0.107
    28   6 C    3.934 --    27 O    0.979    58 H    0.977    59 H    0.975
                            60 H    0.974
    29   6 C    3.776 --    26 C    1.590    20 C    1.001    61 H    0.957
                            27 O    0.107
    30   6 C    3.958 --    17 N    0.999    64 H    0.977    62 H    0.965
                            63 H    0.962
    31   6 C    3.972 --    33 C    1.009    32 C    1.008    65 H    0.961
                             3 C    0.941
    32   6 C    3.979 --    31 C    1.008    67 H    0.982    68 H    0.981
                            66 H    0.974
    33   6 C    3.984 --    31 C    1.009    70 H    0.983    71 H    0.980
                            69 H    0.977
    34   1 H    0.996 --     5 C    0.958
    35   1 H    0.994 --     8 C    0.974
    36   1 H    0.993 --     8 C    0.977
    37   1 H    0.994 --     8 C    0.974
    38   1 H    0.993 --    11 C    0.974
    39   1 H    0.993 --    11 C    0.977
    40   1 H    0.994 --    11 C    0.974
    41   1 H    0.996 --    12 C    0.964
    42   1 H    0.998 --    13 C    0.963
    43   1 H    0.995 --    14 C    0.969
    44   1 H    0.996 --    14 C    0.972
    45   1 H    0.995 --    15 C    0.962
    46   1 H    0.969 --    15 C    0.927
    47   1 H    0.987 --     2 C    0.900
    48   1 H    0.995 --    16 C    0.958
    49   1 H    0.992 --    18 C    0.965
    50   1 H    0.993 --    18 C    0.962
    51   1 H    0.995 --    19 C    0.975
    52   1 H    0.997 --    19 C    0.975
    53   1 H    0.955 --    20 C    0.889
    54   1 H    0.982 --    22 C    0.949
    55   1 H    0.990 --    25 C    0.971
    56   1 H    0.990 --    25 C    0.971
    57   1 H    0.991 --    25 C    0.976
    58   1 H    0.993 --    28 C    0.977
    59   1 H    0.996 --    28 C    0.975
    60   1 H    0.995 --    28 C    0.974
    61   1 H    0.987 --    29 C    0.957
    62   1 H    0.984 --    30 C    0.965
    63   1 H    0.989 --    30 C    0.962
    64   1 H    0.993 --    30 C    0.977
    65   1 H    0.993 --    31 C    0.961
    66   1 H    0.991 --    32 C    0.974
    67   1 H    0.997 --    32 C    0.982
    68   1 H    0.994 --    32 C    0.981
    69   1 H    0.994 --    33 C    0.977
    70   1 H    0.997 --    33 C    0.983
    71   1 H    0.994 --    33 C    0.980
    72   1 H    0.970 --     1 N    0.942
 ---------------------------------------------------------------------------

molecular dipole:
                 x           y           z       tot (Debye)
 q only:        1.219      -0.092      -0.800
   full:        1.753      -0.405      -0.896       5.109

           -------------------------------------------------
          | TOTAL ENERGY              -99.300810716218 Eh   |
          | GRADIENT NORM               0.000847115100 Eh/α |
          | HOMO-LUMO GAP               0.771370380994 eV   |
           -------------------------------------------------

 * finished run on 2024/04/06 at 11:16:57.460
