   * xtb version 6.6.1 (8d0f1dd) compiled by 'conda@1efc2f54142f' on 2023-08-01
          program call               : xtb xtbopt.xyz --opt crude --input .xc2 --gfn2

   ID    Z sym.   atoms
    1    7 N      1, 17
    2    6 C      2-6, 8, 9, 11-16, 18-23, 25, 26, 28-33
    3    8 O      7, 10, 24, 27
    4    1 H      34-72

          :  Hamiltonian                  GFN2-xTB          :
 * total energy  :   -99.3746105 Eh     change       -0.2557954E-12 Eh
   *** GEOMETRY OPTIMIZATION CONVERGED AFTER 1 ITERATIONS ***

 final structure:
================
72
 xtb: 6.6.1 (8d0f1dd)
N           -1.71822754622683        1.34829795780335        2.07377478437220
C           -1.62752901370868        1.25998981774574        0.84020482390438
C           -2.81470291360058        1.28227798151365       -0.10740792317899
C           -3.68154611075804        0.04218221850299        0.07133355270169
C           -4.68377871170932       -0.20471421801759       -0.86904416819513
C           -5.50953591097882       -1.31402208305395       -0.77761502788651
O           -6.49628685532591       -1.62322131475728       -1.63730105813912
C           -6.75991363124239       -0.77352544406644       -2.72917412200442
C           -5.33596205278129       -2.22942584982614        0.30007356787733
O           -6.16636131486829       -3.28483606963177        0.30263252695890
C           -6.07820773874597       -4.22904496248670        1.34585881133594
C           -4.35531831256886       -1.96159426603474        1.24390883347502
C           -3.54544353832466       -0.84170541948909        1.13204312856649
C           -2.16304181939150        1.26152475601493       -1.51122106608146
C           -0.83456699372962        0.54059867837761       -1.30797368243975
C           -0.32736207846897        1.10687793109024        0.02810528698195
N            0.67219916900057        0.38341550502037        0.74792498175635
C            2.04635250486612        0.79486036901563        0.60421801025574
C            2.65123675778072        0.52819556028509       -0.79559448773297
C            4.14731822274368        0.56501793315661       -0.72022771566482
C            4.85765157639640        1.72495077426710       -0.99789474542730
C            6.23803539660435        1.75689631831908       -0.88500784313155
C            6.94241258747677        0.62801648042894       -0.48423995059406
O            8.27346170779570        0.54382273581996       -0.33343783672820
C            9.07400875799513        1.67712368328822       -0.58098224481502
C            6.22257370889561       -0.56906760570980       -0.19894545788236
O            6.97850909923765       -1.61668830243508        0.17397772530911
C            6.36093478666285       -2.84967337143113        0.45928789971911
C            4.84157378912591       -0.57423589899235       -0.31925467368391
C            0.45576468189205       -1.03258268177979        0.92349452899074
C           -3.68274506310521        2.55110658941239        0.13983885257240
C           -4.49461715916646        2.41944971706241        1.42474751056815
C           -2.84738076842169        3.82858902084652        0.20433887505853
H           -4.83706004436403        0.49498114061478       -1.67449102164762
H           -7.05643046785784        0.22600126926242       -2.39674033850051
H           -7.58745988060454       -1.23450595725357       -3.26471970825099
H           -5.89561340752532       -0.69770219845250       -3.39622418213103
H           -6.28420856539298       -3.77083470856187        2.31738978183054
H           -6.83954357813853       -4.97583510521351        1.12934832828741
H           -5.09504599954870       -4.70869485522258        1.36835682119995
H           -4.21453909902411       -2.62121592330308        2.08451723726333
H           -2.82327933936832       -0.65439369052103        1.90988088558532
H           -2.78043320621733        0.75110326879357       -2.24521521774742
H           -1.98539375685437        2.27721113240564       -1.86295261325351
H           -1.00733506640229       -0.53241056123408       -1.22016878504713
H           -0.13400039300637        0.71804532296092       -2.12256274554188
H            0.41169971345952        1.09477294031330        2.91528694145504
H            0.04480502791061        2.12678526071347       -0.13242150435988
H            2.63177572413405        0.25332256804935        1.35071983584936
H            2.12105549524576        1.86156558016384        0.82857790917060
H            2.29034209760470        1.27762746287441       -1.50046147536628
H            2.32787148590555       -0.45601698574917       -1.13817464024181
H            4.33444271069825        2.61476811440039       -1.31237221070570
H            6.76254186513798        2.67019658886375       -1.11356400141756
H            8.80246005003460        2.50958380395383        0.07480273360218
H            9.00354168270626        1.99546773573181       -1.62530246924601
H           10.09452463925048        1.36565363469873       -0.36614429745833
H            7.16983479066974       -3.52762251396189        0.72416189826313
H            5.66874144688158       -2.76572200614372        1.30286285209958
H            5.83001986670217       -3.24264159318107       -0.41321139044717
H            4.28679385705519       -1.47513585699025       -0.10823532228892
H            0.71823575988613       -1.61785992715394        0.03382299726939
H           -0.59099689699983       -1.21484581889255        1.15978598204977
H            1.06522608729784       -1.38331357047582        1.75535377570564
H           -4.37042460627817        2.62958173555680       -0.70916255790818
H           -3.82498963282982        2.22965481260403        2.26107389569603
H           -5.21003219970218        1.60391407171222        1.36157468813436
H           -5.03822155951441        3.34095621487836        1.61574944419976
H           -2.21122665752826        3.82363996959273        1.08599266922731
H           -2.22468101526477        3.96297205519576       -0.67669249442843
H           -3.50964466591235        4.68770871075129        0.27326183083814
H           -0.77634187853929        1.28852086047423        2.63711961402525

          :  Hamiltonian                  GFN2-xTB          :
         :: total energy             -99.374610514401 Eh    ::
         :: gradient norm              0.004683845808 Eh/a0 ::
         :: HOMO-LUMO gap              1.010232658064 eV    ::
         :: SCC energy              -100.725700436969 Eh    ::
         :: -> dispersion             -0.077444961460 Eh    ::
         :: repulsion energy           1.350066232599 Eh    ::

    * Orbital Energies and Occupations

         #    Occupation            Energy/Eh            Energy/eV
      -------------------------------------------------------------
         1        2.0000           -0.8159989             -22.2045
       ...           ...                  ...                  ...
        78        1.9971           -0.5354590             -14.5706
        79        1.9968           -0.5335432             -14.5184
        80        1.9949           -0.5261890             -14.3183
        81        1.9945           -0.5250757             -14.2880
        82        1.9941           -0.5240436             -14.2600
        83        1.9935           -0.5224082             -14.2155
        84        1.9906           -0.5165846             -14.0570
        85        1.9664           -0.4962176             -13.5028
        86        1.9646           -0.4953626             -13.4795
        87        1.9609           -0.4937570             -13.4358
        88        1.9128           -0.4806653             -13.0796
        89        1.7600           -0.4633246             -12.6077
        90        1.7262           -0.4609317             -12.5426 (HOMO)
        91        0.7535           -0.4238063             -11.5324 (LUMO)
        92        0.0067           -0.3414980              -9.2926
        93        0.0017           -0.3202098              -8.7134
        94        0.0016           -0.3184200              -8.6646
        95        0.0014           -0.3169932              -8.6258
        96        0.0013           -0.3159010              -8.5961
        97        0.0000           -0.1950444              -5.3074
        98        0.0000           -0.1936983              -5.2708
        99                         -0.1105246              -3.0075
       100                         -0.0709359              -1.9303
       101                         -0.0669434              -1.8216
       ...                                ...                  ...
       171                          0.5692187              15.4892
      -------------------------------------------------------------
                  HL-Gap            0.0371254 Eh            1.0102 eV

     #   Z          covCN         q      C6AA      α(0)
     1   7 N        1.763    -0.259    27.555     7.772
     2   6 C        2.899     0.121    25.348     8.255
     3   6 C        3.921     0.010    20.345     6.410
     4   6 C        2.970     0.013    27.712     8.635
     5   6 C        2.921    -0.075    29.869     8.962
     6   6 C        2.862     0.136    25.037     8.202
     7   8 O        1.706    -0.217    17.599     5.664
     8   6 C        3.644     0.024    20.501     6.508
     9   6 C        2.864     0.136    25.029     8.201
    10   8 O        1.706    -0.214    17.552     5.656
    11   6 C        3.646     0.023    20.526     6.511
    12   6 C        2.913    -0.067    29.660     8.930
    13   6 C        2.921    -0.045    29.117     8.849
    14   6 C        3.832    -0.070    21.806     6.644
    15   6 C        3.826    -0.066    21.745     6.635
    16   6 C        3.817     0.024    20.162     6.391
    17   7 N        2.727    -0.084    22.874     7.103
    18   6 C        3.749    -0.004    20.714     6.491
    19   6 C        3.807    -0.070    21.844     6.653
    20   6 C        2.968     0.009    27.809     8.650
    21   6 C        2.921    -0.043    29.056     8.840
    22   6 C        2.913    -0.064    29.593     8.920
    23   6 C        2.864     0.137    25.009     8.197
    24   8 O        1.706    -0.211    17.510     5.650
    25   6 C        3.645     0.022    20.538     6.513
    26   6 C        2.862     0.137    25.016     8.198
    27   8 O        1.706    -0.215    17.578     5.661
    28   6 C        3.645     0.025    20.494     6.506
    29   6 C        2.920    -0.077    29.912     8.969
    30   6 C        3.698    -0.047    21.594     6.646
    31   6 C        3.852    -0.007    20.670     6.466
    32   6 C        3.756    -0.120    22.853     6.816
    33   6 C        3.756    -0.112    22.696     6.793
    34   1 H        0.926     0.057     2.240     2.340
    35   1 H        0.924     0.057     2.229     2.335
    36   1 H        0.925     0.086     1.922     2.168
    37   1 H        0.924     0.054     2.272     2.357
    38   1 H        0.924     0.061     2.193     2.316
    39   1 H        0.925     0.086     1.921     2.167
    40   1 H        0.924     0.057     2.234     2.337
    41   1 H        0.926     0.061     2.186     2.312
    42   1 H        0.926     0.059     2.211     2.325
    43   1 H        0.925     0.054     2.267     2.355
    44   1 H        0.925     0.051     2.304     2.374
    45   1 H        0.924     0.046     2.365     2.405
    46   1 H        0.925     0.048     2.342     2.393
    47   1 H        0.000    -0.098    13.712     6.771
    48   1 H        0.924     0.066     2.128     2.282
    49   1 H        0.924     0.061     2.186     2.312
    50   1 H        0.924     0.057     2.230     2.335
    51   1 H        0.924     0.049     2.335     2.390
    52   1 H        0.924     0.052     2.300     2.372
    53   1 H        0.926     0.054     2.268     2.355
    54   1 H        0.926     0.063     2.159     2.298
    55   1 H        0.924     0.060     2.201     2.320
    56   1 H        0.924     0.061     2.189     2.314
    57   1 H        0.925     0.086     1.916     2.164
    58   1 H        0.925     0.085     1.926     2.170
    59   1 H        0.924     0.054     2.267     2.355
    60   1 H        0.924     0.056     2.243     2.342
    61   1 H        0.926     0.053     2.280     2.361
    62   1 H        0.924     0.045     2.379     2.412
    63   1 H        0.925     0.060     2.197     2.318
    64   1 H        0.925     0.065     2.138     2.287
    65   1 H        0.924     0.046     2.373     2.409
    66   1 H        0.925     0.071     2.080     2.255
    67   1 H        0.925     0.041     2.431     2.438
    68   1 H        0.925     0.056     2.242     2.341
    69   1 H        0.925     0.047     2.362     2.404
    70   1 H        0.925     0.035     2.513     2.479
    71   1 H        0.925     0.056     2.245     2.343
    72   1 H        0.848     0.190     1.160     1.688

Wiberg/Mayer (AO) data.
largest (>0.10) Wiberg bond orders for each atom

     #   Z sym  total        # sym  WBO       # sym  WBO       # sym  WBO
 ---------------------------------------------------------------------------
     1   7 N    2.916 --     2 C    1.965    72 H    0.688
     2   6 C    3.933 --     1 N    1.965     3 C    0.952    16 C    0.907
     3   6 C    3.944 --    14 C    0.970     4 C    0.968     2 C    0.952
                            31 C    0.934
     4   6 C    3.921 --    13 C    1.400     5 C    1.371     3 C    0.968
     5   6 C    3.946 --     6 C    1.392     4 C    1.371    34 H    0.956
     6   6 C    3.881 --     5 C    1.392     9 C    1.205     7 O    1.113
     7   8 O    2.250 --     6 C    1.113     8 C    0.976
     8   6 C    3.926 --    36 H    0.976     7 O    0.976    37 H    0.972
                            35 H    0.971
     9   6 C    3.875 --    12 C    1.377     6 C    1.205    10 O    1.119
    10   8 O    2.250 --     9 C    1.119    11 C    0.974
    11   6 C    3.923 --    39 H    0.976    10 O    0.974    40 H    0.971
                            38 H    0.971
    12   6 C    3.947 --    13 C    1.416     9 C    1.377    41 H    0.962
    13   6 C    3.927 --    12 C    1.416     4 C    1.400    42 H    0.957
    14   6 C    3.984 --    15 C    1.007     3 C    0.970    44 H    0.969
                            43 H    0.969
    15   6 C    3.973 --    14 C    1.007    45 H    0.974    46 H    0.973
                            16 C    0.963
    16   6 C    3.939 --    17 N    1.031    15 C    0.963    48 H    0.938
                             2 C    0.907
    17   7 N    3.245 --    16 C    1.031    30 C    1.012    18 C    1.007
    18   6 C    3.958 --    17 N    1.007    50 H    0.968    49 H    0.967
                            19 C    0.957
    19   6 C    3.973 --    20 C    1.017    51 H    0.973    52 H    0.966
                            18 C    0.957
    20   6 C    3.921 --    21 C    1.389    29 C    1.380    19 C    1.017
    21   6 C    3.923 --    22 C    1.425    20 C    1.389    53 H    0.967
    22   6 C    3.945 --    21 C    1.425    23 C    1.371    54 H    0.962
    23   6 C    3.867 --    22 C    1.371    26 C    1.204    24 O    1.123
    24   8 O    2.249 --    23 C    1.123    25 C    0.974
    25   6 C    3.922 --    57 H    0.976    24 O    0.974    55 H    0.971
                            56 H    0.970
    26   6 C    3.877 --    29 C    1.389    23 C    1.204    27 O    1.115
    27   8 O    2.250 --    26 C    1.115    28 C    0.976
    28   6 C    3.927 --    27 O    0.976    58 H    0.976    59 H    0.972
                            60 H    0.971
    29   6 C    3.947 --    26 C    1.389    20 C    1.380    61 H    0.961
    30   6 C    3.968 --    17 N    1.012    64 H    0.976    63 H    0.975
                            62 H    0.962
    31   6 C    3.973 --    32 C    1.010    33 C    1.008    65 H    0.956
                             3 C    0.934
    32   6 C    3.971 --    31 C    1.010    67 H    0.981    68 H    0.979
                            66 H    0.967
    33   6 C    3.985 --    31 C    1.008    69 H    0.982    71 H    0.981
                            70 H    0.978
    34   1 H    0.995 --     5 C    0.956
    35   1 H    0.990 --     8 C    0.971
    36   1 H    0.992 --     8 C    0.976
    37   1 H    0.990 --     8 C    0.972
    38   1 H    0.989 --    11 C    0.971
    39   1 H    0.992 --    11 C    0.976
    40   1 H    0.989 --    11 C    0.971
    41   1 H    0.994 --    12 C    0.962
    42   1 H    0.995 --    13 C    0.957
    43   1 H    0.993 --    14 C    0.969
    44   1 H    0.996 --    14 C    0.969
    45   1 H    0.997 --    15 C    0.974
    46   1 H    0.994 --    15 C    0.973
    47   1 H    0.459 --    72 H    0.251
    48   1 H    0.994 --    16 C    0.938
    49   1 H    0.994 --    18 C    0.967
    50   1 H    0.992 --    18 C    0.968
    51   1 H    0.996 --    19 C    0.973
    52   1 H    0.994 --    19 C    0.966
    53   1 H    0.996 --    21 C    0.967
    54   1 H    0.994 --    22 C    0.962
    55   1 H    0.988 --    25 C    0.971
    56   1 H    0.988 --    25 C    0.970
    57   1 H    0.992 --    25 C    0.976
    58   1 H    0.992 --    28 C    0.976
    59   1 H    0.990 --    28 C    0.972
    60   1 H    0.990 --    28 C    0.971
    61   1 H    0.995 --    29 C    0.961
    62   1 H    0.983 --    30 C    0.962
    63   1 H    0.994 --    30 C    0.975
    64   1 H    0.992 --    30 C    0.976
    65   1 H    0.988 --    31 C    0.956
    66   1 H    0.990 --    32 C    0.967
    67   1 H    0.995 --    32 C    0.981
    68   1 H    0.993 --    32 C    0.979
    69   1 H    0.996 --    33 C    0.982
    70   1 H    0.997 --    33 C    0.978
    71   1 H    0.994 --    33 C    0.981
    72   1 H    0.962 --     1 N    0.688    47 H    0.251
 ---------------------------------------------------------------------------

molecular dipole:
                 x           y           z       tot (Debye)
 q only:        0.377      -0.155      -0.550
   full:        0.674      -0.106      -0.904       2.879

           -------------------------------------------------
          | TOTAL ENERGY              -99.374610514401 Eh   |
          | GRADIENT NORM               0.004683845808 Eh/α |
          | HOMO-LUMO GAP               1.010232658064 eV   |
           -------------------------------------------------

 * finished run on 2024/04/06 at 11:13:15.232
