   * xtb version 6.6.1 (8d0f1dd) compiled by 'conda@1efc2f54142f' on 2023-08-01
          program call               : xtb struc.xyz --opt loose --input .xc1 --gfn2

   ID    Z sym.   atoms
    1    7 N      1, 17
    2    6 C      2-6, 8, 9, 11-16, 18-23, 25, 26, 28-33
    3    8 O      7, 10, 24, 27
    4    1 H      34-72
constraining bond 4 45 to    4.7133300 Å, actual value:    2.4919995 Å

          :  Hamiltonian                  GFN2-xTB          :
 * total energy  :  -100.2851676 Eh     change       -0.4035485E-08 Eh
 * total energy  :  -100.9076723 Eh     change       -0.6225047E+00 Eh
 * total energy  :  -101.6448544 Eh     change       -0.7371821E+00 Eh
 * total energy  :   -99.4346092 Eh     change        0.2210245E+01 Eh
 * total energy  :  -101.8667940 Eh     change       -0.2432185E+01 Eh
 * total energy  :  -101.9109307 Eh     change       -0.4413664E-01 Eh
 * total energy  :  -101.9329977 Eh     change       -0.2206707E-01 Eh
 * total energy  :  -101.9436667 Eh     change       -0.1066894E-01 Eh
 * total energy  :  -101.9512062 Eh     change       -0.7539557E-02 Eh
 * total energy  :  -101.9590898 Eh     change       -0.7883607E-02 Eh
 * total energy  :  -102.0246229 Eh     change       -0.1613104E-03 Eh
 * total energy  :  -102.0247605 Eh     change       -0.1376143E-03 Eh
 * total energy  :  -102.0248925 Eh     change       -0.1320451E-03 Eh
 * total energy  :  -102.0250136 Eh     change       -0.1210160E-03 Eh
 * total energy  :  -102.0251039 Eh     change       -0.9037608E-04 Eh
 * total energy  :  -102.0251938 Eh     change       -0.8986466E-04 Eh
 * total energy  :  -102.0252597 Eh     change       -0.6594036E-04 Eh
 * total energy  :  -102.0253508 Eh     change       -0.9107898E-04 Eh
 * total energy  :  -102.0253814 Eh     change       -0.3058855E-04 Eh
   *** GEOMETRY OPTIMIZATION CONVERGED AFTER 68 ITERATIONS ***

 final structure:
================
72
 xtb: 6.6.1 (8d0f1dd)
N           -2.19995970586694        2.49416891669522        2.42270349702354
C           -2.07312952127567        1.53317414968048        1.63028052707241
C           -2.99143859213530        1.29224038943989        0.46790214542818
C           -3.34625842869394       -0.27625509986272        0.48271312956877
C           -4.34049380003454       -0.59379636811982       -0.59413369629598
C           -5.50624674312249       -1.25760735738479       -0.38537884102376
O           -6.41564530158280       -1.57605434322736       -1.33084667059150
C           -6.20581424139420       -1.14327241429997       -2.65471105874731
C           -5.86527874406319       -1.70416988649080        0.93693333226295
O           -7.01427933357659       -2.36991919326426        1.02433621876313
C           -7.47201097450214       -2.82819898875423        2.27927555480718
C           -5.00559903953655       -1.40482869226306        2.00737018436012
C           -3.85779439223996       -0.70108170516077        1.82242480042047
C           -2.11577217362165        1.55125227210800       -0.80144259415200
C           -1.06966434999671        0.51741469625610       -1.06299857024944
C            0.21612086539424        0.67808980552296       -0.69971735056393
N            1.21669239108881       -0.22252811028600       -0.86225301814645
C            2.56365926461070        0.06967170080878       -0.45260315156827
C            3.49465263474621        0.41607702643464       -1.63383634890823
C            4.91738600819008        0.51125395809368       -1.16338308077373
C            5.56501667246402        1.73152046214784       -1.05103063106606
C            6.87247967580670        1.80403954644675       -0.59435958717984
C            7.55820074499057        0.65496558995757       -0.22552860183367
O            8.82084698335555        0.60362248672668        0.23603399014626
C            9.56347060244991        1.79540158603218        0.35145352085628
C            6.90088407363824       -0.60328198549018       -0.33198507775613
O            7.63525431013704       -1.66743638655897        0.04886798322631
C            7.07215966324610       -2.95535781203408       -0.02247178900075
C            5.59882257022896       -0.65027799774151       -0.80215137887645
C            0.97364722218947       -1.46316209460287       -1.55302411780434
C           -4.24635915748520        2.19304193204004        0.43413320803118
C           -5.07172031382725        2.13034782311019        1.71669861988956
C           -3.90637380833062        3.65907749373151        0.15599854301447
H           -4.06122207543043       -0.29587866067573       -1.59148675851988
H           -6.14970123253154       -0.05190069246598       -2.71294482349084
H           -7.07073189059392       -1.49075692304670       -3.21561136987697
H           -5.29837254134479       -1.58111224240408       -3.08206943114802
H           -7.63982836262522       -1.99604614531534        2.96876804048390
H           -8.41728729790836       -3.32919095638069        2.08036462375904
H           -6.76995253130071       -3.53918937715386        2.72455818725108
H           -5.27568746737202       -1.71415855336639        3.00493866665427
H           -3.23212141823288       -0.47512950459771        2.67232657494101
H           -2.78372175448197        1.61632217431175       -1.66193713614452
H           -1.63624645853561        2.52209715048890       -0.67256472649512
H           -2.69182980406183       -0.60540206241433        0.35124365658259
H           -1.38578851285839       -0.37653650488185       -1.57623738372527
H           -1.25061682855743        0.80175798297915        1.68190947456411
H            0.51563040602604        1.59414248009563       -0.20730830964999
H            2.96822755028095       -0.80242540755136        0.07256544207829
H            2.55249549315175        0.90704412553548        0.24786575677644
H            3.17693515272943        1.36021359318262       -2.07710710854214
H            3.41089126967844       -0.36330063076089       -2.39365251792659
H            5.05493769531223        2.64060290436163       -1.33048173317454
H            7.35204838464434        2.76697536725272       -0.52836342211797
H            9.09619131412491        2.49292035015726        1.05327967203786
H            9.68986785723093        2.28331329298747       -0.61975549759760
H           10.53717591506283        1.49572410120039        0.73465455691443
H            7.84573611991907       -3.63279471498042        0.33413509507761
H            6.19045466669642       -3.04382563546386        0.62046670809040
H            6.80512090302224       -3.22073189180661       -1.05020042279364
H            5.10092982487547       -1.60205069176275       -0.90408088377552
H            0.66948504943918       -1.28667706559866       -2.58838966009873
H            0.18419972784702       -2.03044445184794       -1.05315429234491
H            1.87914066098018       -2.06410214416400       -1.55300500661002
H           -4.87131253837997        1.82258744870034       -0.38825147630550
H           -4.50035809293213        2.53863525122463        2.54439770877751
H           -5.36523907584476        1.11375593898908        1.95386691765528
H           -5.97414110746242        2.72347683516112        1.59334039343591
H           -3.20489321786942        4.02452723195025        0.89962376750236
H           -3.49047554609932        3.80417017231483       -0.83674590446233
H           -4.81408503979021        4.25282387123235        0.22397043488490
H           -1.50479466105688        2.58657210731370        3.15706733958501

          :  Hamiltonian                  GFN2-xTB          :
         :: total energy            -102.025381412587 Eh    ::
         :: gradient norm              0.003992977401 Eh/a0 ::
         :: HOMO-LUMO gap              1.157961652280 eV    ::
         :: SCC energy              -100.776972858773 Eh    ::
         :: -> dispersion             -0.073228093504 Eh    ::
         :: repulsion energy           1.563686565077 Eh    ::

    * Orbital Energies and Occupations

         #    Occupation            Energy/Eh            Energy/eV
      -------------------------------------------------------------
         1        2.0000           -0.8245188             -22.4363
       ...           ...                  ...                  ...
        78        1.9981           -0.5284857             -14.3808
        79        1.9980           -0.5273341             -14.3495
        80        1.9977           -0.5253182             -14.2946
        81        1.9976           -0.5247175             -14.2783
        82        1.9960           -0.5165013             -14.0547
        83        1.9957           -0.5153275             -14.0228
        84        1.9950           -0.5128818             -13.9562
        85        1.9910           -0.5033644             -13.6972
        86        1.9699           -0.4841336             -13.1739
        87        1.9655           -0.4819640             -13.1149
        88        1.9219           -0.4686487             -12.7526
        89        1.8232           -0.4548792             -12.3779
        90        1.7317           -0.4474602             -12.1760 (HOMO)
        91        0.6103           -0.4049059             -11.0181 (LUMO)
        92        0.0114           -0.3362365              -9.1495
        93        0.0035           -0.3173658              -8.6360
        94        0.0020           -0.3089359              -8.4066
        95        0.0017           -0.3055483              -8.3144
        96        0.0006           -0.2883738              -7.8471
        97        0.0000           -0.2327440              -6.3333
        98        0.0000           -0.1831104              -4.9827
        99                         -0.1060395              -2.8855
       100                         -0.0766595              -2.0860
       101                         -0.0734913              -1.9998
       ...                                ...                  ...
       171                          1.4234721              38.7346
      -------------------------------------------------------------
                  HL-Gap            0.0425543 Eh            1.1580 eV

     #   Z          covCN         q      C6AA      α(0)
     1   7 N        1.774    -0.275    27.944     7.828
     2   6 C        2.827     0.099    25.796     8.323
     3   6 C        3.894     0.013    20.312     6.407
     4   6 C        3.859    -0.054    21.508     6.595
     5   6 C        2.903    -0.081    30.030     8.985
     6   6 C        2.848     0.134    25.056     8.204
     7   8 O        1.706    -0.235    17.890     5.711
     8   6 C        3.645     0.026    20.471     6.503
     9   6 C        2.863     0.142    24.910     8.181
    10   8 O        1.706    -0.191    17.199     5.599
    11   6 C        3.645     0.019    20.599     6.523
    12   6 C        2.898    -0.063    29.571     8.916
    13   6 C        2.906    -0.034    28.844     8.806
    14   6 C        3.816    -0.064    21.716     6.632
    15   6 C        2.890    -0.082    30.058     8.989
    16   6 C        2.842     0.009    27.810     8.643
    17   7 N        2.732    -0.045    22.104     6.983
    18   6 C        3.750    -0.007    20.769     6.500
    19   6 C        3.807    -0.072    21.869     6.657
    20   6 C        2.968     0.006    27.888     8.662
    21   6 C        2.921    -0.045    29.114     8.848
    22   6 C        2.913    -0.066    29.640     8.927
    23   6 C        2.864     0.134    25.065     8.206
    24   8 O        1.706    -0.219    17.640     5.671
    25   6 C        3.645     0.024    20.499     6.507
    26   6 C        2.862     0.134    25.073     8.208
    27   8 O        1.706    -0.223    17.700     5.680
    28   6 C        3.645     0.027    20.451     6.500
    29   6 C        2.920    -0.078    29.957     8.976
    30   6 C        3.699    -0.057    21.767     6.673
    31   6 C        3.850    -0.009    20.697     6.471
    32   6 C        3.757    -0.122    22.884     6.820
    33   6 C        3.757    -0.120    22.844     6.815
    34   1 H        0.926     0.058     2.225     2.332
    35   1 H        0.924     0.051     2.308     2.376
    36   1 H        0.925     0.083     1.948     2.183
    37   1 H        0.924     0.049     2.326     2.385
    38   1 H        0.924     0.065     2.146     2.291
    39   1 H        0.925     0.090     1.880     2.144
    40   1 H        0.924     0.063     2.161     2.299
    41   1 H        0.926     0.064     2.158     2.297
    42   1 H        0.926     0.054     2.271     2.357
    43   1 H        0.924     0.057     2.234     2.338
    44   1 H        0.924     0.057     2.230     2.335
    45   1 H        0.931     0.138     1.478     1.901
    46   1 H        0.926     0.037     2.488     2.467
    47   1 H        0.923     0.009     2.913     2.669
    48   1 H        0.925     0.047     2.353     2.399
    49   1 H        0.924     0.055     2.264     2.353
    50   1 H        0.924     0.058     2.225     2.333
    51   1 H        0.924     0.054     2.267     2.355
    52   1 H        0.924     0.057     2.239     2.340
    53   1 H        0.926     0.052     2.300     2.371
    54   1 H        0.926     0.060     2.201     2.320
    55   1 H        0.924     0.056     2.248     2.345
    56   1 H        0.924     0.057     2.230     2.336
    57   1 H        0.925     0.083     1.952     2.185
    58   1 H        0.925     0.082     1.960     2.190
    59   1 H        0.924     0.049     2.329     2.387
    60   1 H        0.924     0.053     2.280     2.361
    61   1 H        0.926     0.047     2.356     2.400
    62   1 H        0.924     0.062     2.174     2.306
    63   1 H        0.924     0.059     2.211     2.325
    64   1 H        0.925     0.066     2.130     2.282
    65   1 H        0.924     0.035     2.512     2.479
    66   1 H        0.925     0.068     2.104     2.268
    67   1 H        0.925     0.034     2.530     2.488
    68   1 H        0.925     0.051     2.303     2.373
    69   1 H        0.925     0.065     2.144     2.290
    70   1 H        0.925     0.039     2.464     2.455
    71   1 H        0.925     0.054     2.270     2.356
    72   1 H        0.860     0.157     1.352     1.821

Wiberg/Mayer (AO) data.
largest (>0.10) Wiberg bond orders for each atom

     #   Z sym  total        # sym  WBO       # sym  WBO       # sym  WBO
 ---------------------------------------------------------------------------
     1   7 N    3.003 --     2 C    1.944    72 H    0.942
     2   6 C    3.941 --     1 N    1.944     3 C    1.003    47 H    0.932
     3   6 C    3.900 --     2 C    1.003    31 C    0.972    14 C    0.929
                             4 C    0.861
     4   6 C    3.972 --    13 C    1.047     5 C    1.039    45 H    0.917
                             3 C    0.861
     5   6 C    3.802 --     6 C    1.570     4 C    1.039    34 H    0.959
                             7 O    0.104
     6   6 C    3.932 --     5 C    1.570     9 C    1.136     7 O    1.092
     7   8 O    2.259 --     6 C    1.092     8 C    0.977     5 C    0.104
     8   6 C    3.932 --     7 O    0.977    36 H    0.977    35 H    0.974
                            37 H    0.974
     9   6 C    3.694 --    12 C    1.273    10 O    1.164     6 C    1.136
    10   8 O    2.276 --     9 C    1.164    11 C    0.968
    11   6 C    3.921 --    39 H    0.976    40 H    0.971    38 H    0.971
                            10 O    0.968
    12   6 C    3.976 --    13 C    1.601     9 C    1.273    41 H    0.958
    13   6 C    3.744 --    12 C    1.601     4 C    1.047    42 H    0.965
    14   6 C    3.984 --    15 C    1.037    44 H    0.964    43 H    0.959
                             3 C    0.929
    15   6 C    3.820 --    16 C    1.669    14 C    1.037    46 H    0.963
    16   6 C    3.936 --    15 C    1.669    17 N    1.220    48 H    0.955
    17   7 N    3.382 --    16 C    1.220    30 C    1.007    18 C    1.004
    18   6 C    3.963 --    17 N    1.004    50 H    0.970    19 C    0.966
                            49 H    0.962
    19   6 C    3.976 --    20 C    1.013    51 H    0.975    18 C    0.966
                            52 H    0.964
    20   6 C    3.932 --    21 C    1.404    29 C    1.376    19 C    1.013
    21   6 C    3.937 --    22 C    1.417    20 C    1.404    53 H    0.967
    22   6 C    3.952 --    21 C    1.417    23 C    1.381    54 H    0.963
    23   6 C    3.882 --    22 C    1.381    26 C    1.212    24 O    1.112
    24   8 O    2.248 --    23 C    1.112    25 C    0.976
    25   6 C    3.927 --    57 H    0.977    24 O    0.976    55 H    0.972
                            56 H    0.972
    26   6 C    3.888 --    29 C    1.397    23 C    1.212    27 O    1.105
    27   8 O    2.249 --    26 C    1.105    28 C    0.979
    28   6 C    3.931 --    27 O    0.979    58 H    0.977    59 H    0.973
                            60 H    0.973
    29   6 C    3.954 --    26 C    1.397    20 C    1.376    61 H    0.962
    30   6 C    3.968 --    17 N    1.007    64 H    0.980    63 H    0.971
                            62 H    0.970
    31   6 C    3.977 --    32 C    1.007    33 C    1.002     3 C    0.972
                            65 H    0.957
    32   6 C    3.976 --    31 C    1.007    68 H    0.980    66 H    0.974
                            67 H    0.972
    33   6 C    3.976 --    31 C    1.002    70 H    0.982    71 H    0.981
                            69 H    0.976
    34   1 H    0.995 --     5 C    0.959
    35   1 H    0.995 --     8 C    0.974
    36   1 H    0.992 --     8 C    0.977
    37   1 H    0.995 --     8 C    0.974
    38   1 H    0.989 --    11 C    0.971
    39   1 H    0.991 --    11 C    0.976
    40   1 H    0.989 --    11 C    0.971
    41   1 H    0.994 --    12 C    0.958
    42   1 H    0.997 --    13 C    0.965
    43   1 H    0.990 --    14 C    0.959
    44   1 H    0.992 --    14 C    0.964
    45   1 H    0.962 --     4 C    0.917
    46   1 H    0.998 --    15 C    0.963
    47   1 H    0.982 --     2 C    0.932
    48   1 H    0.997 --    16 C    0.955
    49   1 H    0.990 --    18 C    0.962
    50   1 H    0.996 --    18 C    0.970
    51   1 H    0.996 --    19 C    0.975
    52   1 H    0.993 --    19 C    0.964
    53   1 H    0.996 --    21 C    0.967
    54   1 H    0.994 --    22 C    0.963
    55   1 H    0.990 --    25 C    0.972
    56   1 H    0.990 --    25 C    0.972
    57   1 H    0.992 --    25 C    0.977
    58   1 H    0.993 --    28 C    0.977
    59   1 H    0.992 --    28 C    0.973
    60   1 H    0.992 --    28 C    0.973
    61   1 H    0.996 --    29 C    0.962
    62   1 H    0.986 --    30 C    0.970
    63   1 H    0.988 --    30 C    0.971
    64   1 H    0.995 --    30 C    0.980
    65   1 H    0.992 --    31 C    0.957
    66   1 H    0.991 --    32 C    0.974
    67   1 H    0.996 --    32 C    0.972
    68   1 H    0.994 --    32 C    0.980
    69   1 H    0.992 --    33 C    0.976
    70   1 H    0.996 --    33 C    0.982
    71   1 H    0.994 --    33 C    0.981
    72   1 H    0.968 --     1 N    0.942
 ---------------------------------------------------------------------------

molecular dipole:
                 x           y           z       tot (Debye)
 q only:       -0.220      -0.622      -0.007
   full:        0.131      -0.828       0.020       2.131

           -------------------------------------------------
          | TOTAL ENERGY             -102.025381412587 Eh   |
          | GRADIENT NORM               0.003992977401 Eh/α |
          | HOMO-LUMO GAP               1.157961652280 eV   |
           -------------------------------------------------

 * finished run on 2024/04/06 at 11:15:49.906
