   * xtb version 6.6.1 (8d0f1dd) compiled by 'conda@1efc2f54142f' on 2023-08-01
          program call               : xtb xtbopt.xyz --opt crude --input .xc2 --gfn2

   ID    Z sym.   atoms
    1    7 N      1, 17
    2    6 C      2-6, 8, 9, 11-16, 18-23, 25, 26, 28-33
    3    8 O      7, 10, 24, 27
    4    1 H      34-72
########################################################################
[WARNING] Please study the warnings concerning your input carefully
-1- readin_getIntValue: could not parse ''
########################################################################

          :  Hamiltonian                  GFN2-xTB          :
 * total energy  :   -99.2125175 Eh     change       -0.1364242E-11 Eh
 * total energy  :   -99.3737154 Eh     change       -0.1611979E+00 Eh
 * total energy  :   -99.3760378 Eh     change       -0.2322339E-02 Eh
 * total energy  :   -99.3770715 Eh     change       -0.1033717E-02 Eh
 * total energy  :   -99.3773842 Eh     change       -0.3126570E-03 Eh
   *** GEOMETRY OPTIMIZATION CONVERGED AFTER 5 ITERATIONS ***

 final structure:
================
72
 xtb: 6.6.1 (8d0f1dd)
N           -2.19929834781985        2.50526347579195        2.41941802450335
C           -2.07933113488663        1.53772991172006        1.63497482915020
C           -2.99649983171036        1.29403156467619        0.47012498619881
C           -3.40029945978296       -0.23419980829019        0.49947254822663
C           -4.35423697211542       -0.57938347295859       -0.58842990331389
C           -5.51535112552480       -1.25677485752962       -0.38384224272675
O           -6.41731451020904       -1.58715597892212       -1.33272882479063
C           -6.20498083600673       -1.15415254083608       -2.65613707293026
C           -5.87260742716051       -1.70644464654568        0.93733034193610
O           -7.02206028664323       -2.37277498173375        1.02352592712911
C           -7.47870261192959       -2.83586336317213        2.27601455624249
C           -5.01106560489472       -1.41403796896704        2.00853671836918
C           -3.87171898916340       -0.69195726037158        1.82820977245848
C           -2.11945153910294        1.55064711126932       -0.79940668489377
C           -1.07442912224981        0.51668981306758       -1.06631815451997
C            0.20921827040626        0.66976942646663       -0.68777306020729
N            1.21162367790795       -0.22695597225076       -0.85575707473540
C            2.55919535901431        0.06600959169604       -0.44613091842412
C            3.48960413477682        0.40749254475884       -1.62920690299644
C            4.91278771668653        0.50619586386207       -1.16043505152854
C            5.55637668796686        1.72827245842539       -1.04523363029098
C            6.86473426839638        1.80368912711159       -0.59151767063627
C            7.55536494445156        0.65593550769046       -0.22815418899319
O            8.81942970243174        0.60795459303117        0.23006628810725
C            9.55730275388657        1.80239986155203        0.34806104244730
C            6.90198340107182       -0.60408634812228       -0.33676149120497
O            7.64013302852168       -1.66711930022541        0.03952304390005
C            7.07858175774010       -2.95571289610452       -0.03008120165485
C            5.59903048873804       -0.65396209662510       -0.80430007881138
C            0.97099987014382       -1.46776651924486       -1.54737960468977
C           -4.24387801042215        2.21229304306261        0.43397768655621
C           -5.07327977139403        2.15150281214543        1.71450061177440
C           -3.89536213995884        3.67618850458737        0.15710119403944
H           -4.07382232351009       -0.27768437402308       -1.58362028091521
H           -6.14479322372446       -0.06304027881113       -2.71418599357279
H           -7.07033286492800       -1.49800168033679       -3.21891663724180
H           -5.29840667271660       -1.59496703632159       -3.08198482431537
H           -7.64437178226950       -2.00717904634473        2.97020647643504
H           -8.42509362109410       -3.33428509083368        2.07573994328633
H           -6.77848038374251       -3.55036616389785        2.71751655323378
H           -5.27229575683712       -1.74573050116675        3.00146048296017
H           -3.24694476246103       -0.46417382876704        2.67773591872603
H           -2.78637928423886        1.61909166383559       -1.66024376966138
H           -1.63766810634475        2.51985969337934       -0.66764901564162
H           -2.44378965966541       -0.73689178596145        0.30398339006717
H           -1.38137374195583       -0.35738251444069       -1.61983151451280
H           -1.26322999843999        0.80009012150861        1.69247293305384
H            0.50401727975480        1.57646958966469       -0.17487488904663
H            2.96356430786306       -0.80433658329578        0.08202494196403
H            2.54821875697319        0.90621706409540        0.25094214649801
H            3.17097866293340        1.34904509790100       -2.07737910268215
H            3.40655396460779       -0.37588761551618       -2.38515908994197
H            5.04271692217259        2.63657268495844       -1.32038399608992
H            7.34124128766647        2.76796901290095       -0.52356638534068
H            9.08906701862461        2.49502490036568        1.05389229565255
H            9.67900581395771        2.29458446445330       -0.62140181244993
H           10.53329006275800        1.50564253324910        0.72752069902032
H            7.85364682968018       -3.63221263949475        0.32477342776049
H            6.19852345580544       -3.04492294941073        0.61512704402951
H            6.80908684899249       -3.22163296114483       -1.05694325951454
H            5.10388038782831       -1.60690029293420       -0.90843144381895
H            0.66828703074721       -1.29215780836678       -2.58325814600935
H            0.18157446017431       -2.03596013924587       -1.04855868797642
H            1.87708252598385       -2.06760099305737       -1.54565882877428
H           -4.87015298653886        1.84766406446813       -0.39037941052807
H           -4.50258076678847        2.55597231673751        2.54476293898307
H           -5.37099200910154        1.13509549883457        1.94934648976468
H           -5.97332603013427        2.74859353057061        1.59092232435431
H           -3.19438974459668        4.03970386639572        0.90207714111966
H           -3.47607186886552        3.81908924325365       -0.83472123035155
H           -4.80043230355445        4.27469075013334        0.22158366666099
H           -1.50579046917902        2.60036051013983        3.15508053371275

          :  Hamiltonian                  GFN2-xTB          :
         :: total energy             -99.377384157013 Eh    ::
         :: gradient norm              0.009538947187 Eh/a0 ::
         :: HOMO-LUMO gap              1.178842668741 eV    ::
         :: SCC energy              -100.752273188712 Eh    ::
         :: -> dispersion             -0.073188853622 Eh    ::
         :: repulsion energy           1.374114199380 Eh    ::

    * Orbital Energies and Occupations

         #    Occupation            Energy/Eh            Energy/eV
      -------------------------------------------------------------
         1        2.0000           -0.8244059             -22.4332
       ...           ...                  ...                  ...
        78        1.9981           -0.5282598             -14.3747
        79        1.9980           -0.5272901             -14.3483
        80        1.9977           -0.5252147             -14.2918
        81        1.9976           -0.5247449             -14.2790
        82        1.9959           -0.5158418             -14.0368
        83        1.9956           -0.5149908             -14.0136
        84        1.9948           -0.5122839             -13.9400
        85        1.9911           -0.5036629             -13.7054
        86        1.9700           -0.4842088             -13.1760
        87        1.9647           -0.4816210             -13.1056
        88        1.9205           -0.4683911             -12.7456
        89        1.8253           -0.4551162             -12.3843
        90        1.7392           -0.4480041             -12.1908 (HOMO)
        91        0.6036           -0.4046824             -11.0120 (LUMO)
        92        0.0111           -0.3358387              -9.1386
        93        0.0034           -0.3172174              -8.6319
        94        0.0021           -0.3090072              -8.4085
        95        0.0017           -0.3056414              -8.3169
        96        0.0006           -0.2894496              -7.8763
        97        0.0000           -0.2328901              -6.3373
        98        0.0000           -0.1831595              -4.9840
        99                         -0.1068122              -2.9065
       100                         -0.0750989              -2.0435
       101                         -0.0657528              -1.7892
       ...                                ...                  ...
       171                          0.5808273              15.8051
      -------------------------------------------------------------
                  HL-Gap            0.0433217 Eh            1.1788 eV

     #   Z          covCN         q      C6AA      α(0)
     1   7 N        1.774    -0.273    27.913     7.824
     2   6 C        2.827     0.100    25.768     8.318
     3   6 C        3.899     0.013    20.310     6.406
     4   6 C        3.862    -0.020    20.882     6.499
     5   6 C        2.904    -0.077    29.929     8.970
     6   6 C        2.849     0.135    25.051     8.203
     7   8 O        1.706    -0.234    17.877     5.709
     8   6 C        3.645     0.026    20.470     6.503
     9   6 C        2.863     0.142    24.909     8.181
    10   8 O        1.706    -0.192    17.202     5.600
    11   6 C        3.645     0.019    20.595     6.522
    12   6 C        2.899    -0.063    29.570     8.916
    13   6 C        2.906    -0.030    28.737     8.790
    14   6 C        3.815    -0.064    21.714     6.632
    15   6 C        2.890    -0.081    30.019     8.983
    16   6 C        2.842     0.009    27.800     8.641
    17   7 N        2.732    -0.044    22.098     6.982
    18   6 C        3.750    -0.007    20.771     6.500
    19   6 C        3.807    -0.072    21.869     6.657
    20   6 C        2.968     0.006    27.889     8.662
    21   6 C        2.921    -0.045    29.115     8.849
    22   6 C        2.913    -0.066    29.640     8.927
    23   6 C        2.864     0.134    25.065     8.206
    24   8 O        1.706    -0.219    17.640     5.671
    25   6 C        3.645     0.024    20.498     6.507
    26   6 C        2.862     0.134    25.073     8.208
    27   8 O        1.706    -0.223    17.698     5.680
    28   6 C        3.645     0.027    20.450     6.500
    29   6 C        2.920    -0.078    29.958     8.976
    30   6 C        3.699    -0.057    21.760     6.671
    31   6 C        3.850    -0.009    20.696     6.471
    32   6 C        3.757    -0.120    22.853     6.816
    33   6 C        3.756    -0.119    22.838     6.814
    34   1 H        0.926     0.059     2.211     2.325
    35   1 H        0.924     0.051     2.309     2.376
    36   1 H        0.925     0.083     1.946     2.182
    37   1 H        0.924     0.050     2.325     2.384
    38   1 H        0.924     0.064     2.149     2.292
    39   1 H        0.925     0.090     1.880     2.144
    40   1 H        0.924     0.063     2.164     2.300
    41   1 H        0.926     0.064     2.150     2.293
    42   1 H        0.926     0.055     2.259     2.351
    43   1 H        0.924     0.056     2.241     2.341
    44   1 H        0.924     0.058     2.228     2.334
    45   1 H        0.923     0.086     1.922     2.168
    46   1 H        0.926     0.038     2.475     2.460
    47   1 H        0.923     0.008     2.919     2.672
    48   1 H        0.925     0.048     2.350     2.397
    49   1 H        0.924     0.055     2.262     2.352
    50   1 H        0.924     0.058     2.222     2.331
    51   1 H        0.924     0.054     2.266     2.354
    52   1 H        0.924     0.057     2.239     2.340
    53   1 H        0.926     0.052     2.300     2.372
    54   1 H        0.926     0.060     2.201     2.320
    55   1 H        0.924     0.056     2.248     2.345
    56   1 H        0.924     0.057     2.230     2.336
    57   1 H        0.925     0.083     1.952     2.185
    58   1 H        0.925     0.082     1.960     2.189
    59   1 H        0.924     0.049     2.330     2.387
    60   1 H        0.924     0.053     2.280     2.361
    61   1 H        0.926     0.047     2.356     2.400
    62   1 H        0.924     0.062     2.173     2.305
    63   1 H        0.924     0.058     2.219     2.330
    64   1 H        0.925     0.066     2.126     2.280
    65   1 H        0.924     0.035     2.520     2.482
    66   1 H        0.925     0.067     2.113     2.273
    67   1 H        0.925     0.033     2.541     2.493
    68   1 H        0.925     0.051     2.308     2.376
    69   1 H        0.925     0.065     2.144     2.290
    70   1 H        0.925     0.039     2.467     2.456
    71   1 H        0.925     0.054     2.274     2.358
    72   1 H        0.860     0.158     1.349     1.819

Wiberg/Mayer (AO) data.
largest (>0.10) Wiberg bond orders for each atom

     #   Z sym  total        # sym  WBO       # sym  WBO       # sym  WBO
 ---------------------------------------------------------------------------
     1   7 N    3.006 --     2 C    1.948    72 H    0.941
     2   6 C    3.941 --     1 N    1.948     3 C    1.000    47 H    0.931
     3   6 C    3.914 --     2 C    1.000    31 C    0.968    14 C    0.929
                             4 C    0.891
     4   6 C    3.982 --    13 C    1.056     5 C    1.046     3 C    0.891
                            45 H    0.883
     5   6 C    3.803 --     6 C    1.565     4 C    1.046    34 H    0.959
                             7 O    0.104
     6   6 C    3.932 --     5 C    1.565     9 C    1.139     7 O    1.093
     7   8 O    2.259 --     6 C    1.093     8 C    0.977     5 C    0.104
     8   6 C    3.932 --     7 O    0.977    36 H    0.977    35 H    0.974
                            37 H    0.974
     9   6 C    3.697 --    12 C    1.275    10 O    1.163     6 C    1.139
    10   8 O    2.276 --     9 C    1.163    11 C    0.968
    11   6 C    3.921 --    39 H    0.976    40 H    0.971    38 H    0.971
                            10 O    0.968
    12   6 C    3.975 --    13 C    1.596     9 C    1.275    41 H    0.959
    13   6 C    3.748 --    12 C    1.596     4 C    1.056    42 H    0.965
    14   6 C    3.985 --    15 C    1.036    44 H    0.964    43 H    0.959
                             3 C    0.929
    15   6 C    3.824 --    16 C    1.661    14 C    1.036    46 H    0.961
    16   6 C    3.934 --    15 C    1.661    17 N    1.223    48 H    0.955
    17   7 N    3.386 --    16 C    1.223    30 C    1.006    18 C    1.004
    18   6 C    3.962 --    17 N    1.004    50 H    0.970    19 C    0.967
                            49 H    0.962
    19   6 C    3.976 --    20 C    1.013    51 H    0.975    18 C    0.967
                            52 H    0.964
    20   6 C    3.932 --    21 C    1.404    29 C    1.376    19 C    1.013
    21   6 C    3.937 --    22 C    1.417    20 C    1.404    53 H    0.967
    22   6 C    3.952 --    21 C    1.417    23 C    1.381    54 H    0.963
    23   6 C    3.882 --    22 C    1.381    26 C    1.212    24 O    1.112
    24   8 O    2.248 --    23 C    1.112    25 C    0.976
    25   6 C    3.927 --    57 H    0.977    24 O    0.976    55 H    0.972
                            56 H    0.972
    26   6 C    3.888 --    29 C    1.396    23 C    1.212    27 O    1.105
    27   8 O    2.249 --    26 C    1.105    28 C    0.979
    28   6 C    3.931 --    27 O    0.979    58 H    0.977    59 H    0.973
                            60 H    0.973
    29   6 C    3.954 --    26 C    1.396    20 C    1.376    61 H    0.962
    30   6 C    3.968 --    17 N    1.006    64 H    0.980    63 H    0.971
                            62 H    0.970
    31   6 C    3.977 --    32 C    1.007    33 C    1.004     3 C    0.968
                            65 H    0.957
    32   6 C    3.976 --    31 C    1.007    68 H    0.980    66 H    0.974
                            67 H    0.972
    33   6 C    3.977 --    31 C    1.004    70 H    0.982    71 H    0.981
                            69 H    0.976
    34   1 H    0.995 --     5 C    0.959
    35   1 H    0.995 --     8 C    0.974
    36   1 H    0.992 --     8 C    0.977
    37   1 H    0.995 --     8 C    0.974
    38   1 H    0.989 --    11 C    0.971
    39   1 H    0.991 --    11 C    0.976
    40   1 H    0.989 --    11 C    0.971
    41   1 H    0.994 --    12 C    0.959
    42   1 H    0.997 --    13 C    0.965
    43   1 H    0.991 --    14 C    0.959
    44   1 H    0.992 --    14 C    0.964
    45   1 H    0.951 --     4 C    0.883
    46   1 H    0.998 --    15 C    0.961
    47   1 H    0.982 --     2 C    0.931
    48   1 H    0.997 --    16 C    0.955
    49   1 H    0.990 --    18 C    0.962
    50   1 H    0.996 --    18 C    0.970
    51   1 H    0.996 --    19 C    0.975
    52   1 H    0.994 --    19 C    0.964
    53   1 H    0.996 --    21 C    0.967
    54   1 H    0.994 --    22 C    0.963
    55   1 H    0.990 --    25 C    0.972
    56   1 H    0.990 --    25 C    0.972
    57   1 H    0.992 --    25 C    0.977
    58   1 H    0.993 --    28 C    0.977
    59   1 H    0.992 --    28 C    0.973
    60   1 H    0.992 --    28 C    0.973
    61   1 H    0.996 --    29 C    0.962
    62   1 H    0.987 --    30 C    0.970
    63   1 H    0.988 --    30 C    0.971
    64   1 H    0.995 --    30 C    0.980
    65   1 H    0.992 --    31 C    0.957
    66   1 H    0.991 --    32 C    0.974
    67   1 H    0.996 --    32 C    0.972
    68   1 H    0.994 --    32 C    0.980
    69   1 H    0.992 --    33 C    0.976
    70   1 H    0.996 --    33 C    0.982
    71   1 H    0.994 --    33 C    0.981
    72   1 H    0.968 --     1 N    0.941
 ---------------------------------------------------------------------------

molecular dipole:
                 x           y           z       tot (Debye)
 q only:       -0.237      -0.615      -0.001
   full:        0.130      -0.829       0.024       2.134

           -------------------------------------------------
          | TOTAL ENERGY              -99.377384157013 Eh   |
          | GRADIENT NORM               0.009538947187 Eh/α |
          | HOMO-LUMO GAP               1.178842668741 eV   |
           -------------------------------------------------

 * finished run on 2024/04/06 at 11:15:51.013
