   * xtb version 6.6.1 (8d0f1dd) compiled by 'conda@1efc2f54142f' on 2023-08-01
          program call               : xtb xtbopt.xyz --opt crude --input .xc2 --gfn2

   ID    Z sym.   atoms
    1    7 N      1, 17
    2    6 C      2-6, 8, 9, 11-16, 18-23, 25, 26, 28-33
    3    8 O      7, 10, 24, 27
    4    1 H      34-72

          :  Hamiltonian                  GFN2-xTB          :
 * total energy  :   -99.3467376 Eh     change       -0.1307399E-11 Eh
   *** GEOMETRY OPTIMIZATION CONVERGED AFTER 1 ITERATIONS ***

 final structure:
================
72
 xtb: 6.6.1 (8d0f1dd)
N           -1.65508093094575        2.66892521438142        1.99958094185800
C           -1.82659759181629        1.81131754436041        1.10502376004252
C           -3.05795928223669        1.73224013835803        0.24084414527904
C           -3.65496558372943        0.34059397933517        0.34746129293954
C           -4.61209657778999       -0.08533035044972       -0.57467743925995
C           -5.17330321014016       -1.35091610932396       -0.50359678381459
O           -6.09097991141848       -1.84609314030442       -1.35813005837259
C           -6.58500084345369       -1.02975041750765       -2.39365771274959
C           -4.77287205402347       -2.23747022408475        0.53439111409680
O           -5.35455604952258       -3.45171338637635        0.51897493228430
C           -5.03339675712576       -4.37813600029550        1.53094002690685
C           -3.84282982648637       -1.79591112978896        1.46396072158532
C           -3.29639896697753       -0.52429230227375        1.37227227384983
C           -2.56993922234463        2.02156536417203       -1.20693827908071
C           -1.88687070006390        0.85400018044785       -1.92822769721635
C           -0.55315226733028        0.47260859530041       -1.35819418759646
N           -0.11838252116037       -0.66529143341651       -1.05040935174227
C            3.08463909538526        0.96174219185083       -0.04064035609638
C            3.29323856264245        0.43382992446590       -1.40103753748993
C            4.51771862251193        0.59360984443728       -0.46979365800206
C            5.43276600835151        1.67800583904397       -0.75823269536522
C            6.77193673420003        1.56270155454304       -0.53017219693538
C            7.32253838403131        0.38454090009229        0.00100657852495
O            8.61481826240580        0.17149186888050        0.24254873920493
C            9.57128258537448        1.16334439635457       -0.07014514821259
C            6.44974768441423       -0.71267474656625        0.32697152731737
O            7.08438464033454       -1.77863380448901        0.85339654682777
C            6.32912061802031       -2.91227053526729        1.21766225479811
C            5.10921008697735       -0.61059009344107        0.09331143107934
C           -0.87590960674055       -1.87831886261070       -1.14415676162268
C           -4.16099861102060        2.75950474870332        0.63441110785952
C           -4.66389594711178        2.52449209995598        2.05679754805386
C           -3.71700295166447        4.21154947160552        0.47883763164661
H           -4.92549594396965        0.58553959484809       -1.35792675376166
H           -7.08016173232031       -0.13701612333803       -1.99933789357790
H           -7.31324355083510       -1.64056524570555       -2.92364160376898
H           -5.79089512433516       -0.73306260604104       -3.08682893003997
H           -5.29217539026322       -3.99474318224572        2.52223818390658
H           -5.63136013717398       -5.26194793253566        1.31883932754098
H           -3.97180076336203       -4.64395531046082        1.50758747205257
H           -3.53548741068790       -2.43761515256901        2.27343041234584
H           -2.59174496284260       -0.21104472538552        2.12642987178718
H           -3.43085568335365        2.32581539349275       -1.80445252294203
H           -1.88166069840778        2.86863083121510       -1.17154933286545
H           -2.54577221507514       -0.01327272678727       -1.96265049704744
H           -1.69701603943129        1.17188622602011       -2.95921089619909
H           -1.07331953365456        1.05792631072930        0.83256985228116
H            0.15353166840852        1.29054971470374       -1.24177043841135
H            2.62642756125695        0.31960854490865        0.69580942257613
H            2.88145749888936        2.01216682831196        0.09394034593985
H            3.24766605934127        1.10937199870808       -2.24099614363617
H            2.98224744170370       -0.57468147152040       -1.62061019429913
H            5.02743713633337        2.59118347528825       -1.16561509109305
H            7.41973729379670        2.39277022335477       -0.76197200100231
H            9.43725429567911        2.05609462247015        0.54886602073278
H            9.52991340968116        1.43658987360958       -1.12837649804294
H           10.53877139295748        0.71275983392609        0.14936698617282
H            7.04793047174790       -3.62169411600575        1.62321835031166
H            5.58698057131149       -2.66778050215121        1.98462320756335
H            5.82998068604227       -3.35593978221164        0.35046924546705
H            4.44138105808318       -1.42565936093717        0.31996532336664
H           -0.86446143711549       -2.24061587685697       -2.17473403685401
H           -1.91557740797016       -1.76830144099542       -0.82199603695255
H           -0.38211488137419       -2.61918470818097       -0.51518068882528
H           -5.00032009705175        2.58438783687510       -0.05006955560377
H           -3.86851427321818        2.71814786399166        2.77037958756881
H           -5.01622208119875        1.50372844417566        2.18661758173895
H           -5.48870560106966        3.19999843172673        2.26859080266277
H           -2.84373728290616        4.40314303934022        1.09430915541211
H           -3.48935544732517        4.45858570010096       -0.55437829403395
H           -4.51844959589094        4.86700831820019        0.80928547670581
H           -0.77496552912426        2.65665536073507        2.50564291504668

          :  Hamiltonian                  GFN2-xTB          :
         :: total energy             -99.346737631254 Eh    ::
         :: gradient norm              0.003964034539 Eh/a0 ::
         :: HOMO-LUMO gap              1.420021898723 eV    ::
         :: SCC energy              -100.734277330953 Eh    ::
         :: -> dispersion             -0.072111006806 Eh    ::
         :: repulsion energy           1.386120604231 Eh    ::

    * Orbital Energies and Occupations

         #    Occupation            Energy/Eh            Energy/eV
      -------------------------------------------------------------
         1        2.0000           -0.8260400             -22.4777
       ...           ...                  ...                  ...
        78        1.9975           -0.5270599             -14.3420
        79        1.9973           -0.5259511             -14.3119
        80        1.9968           -0.5233508             -14.2411
        81        1.9957           -0.5185237             -14.1097
        82        1.9951           -0.5164245             -14.0526
        83        1.9930           -0.5109451             -13.9035
        84        1.9918           -0.5084333             -13.8352
        85        1.9906           -0.5062505             -13.7758
        86        1.9697           -0.4874932             -13.2654
        87        1.9596           -0.4828764             -13.1397
        88        1.8939           -0.4670323             -12.7086
        89        1.8840           -0.4655447             -12.6681
        90        1.8078           -0.4568887             -12.4326 (HOMO)
        91        0.5167           -0.4047039             -11.0126 (LUMO)
        92        0.0098           -0.3372053              -9.1758
        93        0.0060           -0.3294606              -8.9651
        94        0.0038           -0.3220514              -8.7635
        95        0.0022           -0.3135225              -8.5314
        96        0.0018           -0.3104634              -8.4481
        97        0.0000           -0.2470167              -6.7217
        98        0.0000           -0.1881775              -5.1206
        99                         -0.1382968              -3.7632
       100                         -0.0770950              -2.0979
       101                         -0.0679164              -1.8481
       ...                                ...                  ...
       171                          0.5732061              15.5977
      -------------------------------------------------------------
                  HL-Gap            0.0521848 Eh            1.4200 eV

     #   Z          covCN         q      C6AA      α(0)
     1   7 N        1.774    -0.268    27.772     7.804
     2   6 C        2.828     0.102    25.733     8.312
     3   6 C        3.907     0.008    20.380     6.417
     4   6 C        2.974     0.008    27.842     8.655
     5   6 C        2.920    -0.076    29.903     8.967
     6   6 C        2.862     0.131    25.128     8.217
     7   8 O        1.706    -0.225    17.740     5.687
     8   6 C        3.644     0.027    20.454     6.501
     9   6 C        2.864     0.132    25.120     8.215
    10   8 O        1.706    -0.223    17.694     5.679
    11   6 C        3.646     0.026    20.477     6.503
    12   6 C        2.913    -0.069    29.717     8.939
    13   6 C        2.922    -0.045    29.106     8.847
    14   6 C        3.811    -0.058    21.616     6.618
    15   6 C        3.802    -0.074    21.908     6.664
    16   6 C        2.835     0.070    26.422     8.423
    17   7 N        1.820    -0.208    26.362     7.608
    18   6 C        3.806    -0.055    21.557     6.609
    19   6 C        3.805    -0.056    21.572     6.612
    20   6 C        3.919     0.035    19.919     6.343
    21   6 C        2.909    -0.034    28.844     8.807
    22   6 C        2.902    -0.063    29.573     8.917
    23   6 C        2.862     0.143    24.875     8.175
    24   8 O        1.706    -0.191    17.195     5.599
    25   6 C        3.644     0.018    20.624     6.528
    26   6 C        2.853     0.135    25.038     8.201
    27   8 O        1.706    -0.229    17.793     5.695
    28   6 C        3.645     0.024    20.511     6.509
    29   6 C        2.906    -0.077    29.932     8.971
    30   6 C        3.702    -0.030    21.272     6.595
    31   6 C        3.853    -0.007    20.669     6.466
    32   6 C        3.755    -0.116    22.786     6.806
    33   6 C        3.755    -0.120    22.850     6.816
    34   1 H        0.926     0.054     2.265     2.353
    35   1 H        0.924     0.055     2.257     2.349
    36   1 H        0.925     0.082     1.956     2.187
    37   1 H        0.924     0.050     2.323     2.384
    38   1 H        0.924     0.057     2.236     2.338
    39   1 H        0.925     0.082     1.954     2.186
    40   1 H        0.924     0.053     2.287     2.365
    41   1 H        0.926     0.056     2.241     2.341
    42   1 H        0.926     0.046     2.373     2.409
    43   1 H        0.924     0.055     2.257     2.349
    44   1 H        0.924     0.049     2.330     2.387
    45   1 H        0.925     0.053     2.282     2.362
    46   1 H        0.924     0.064     2.149     2.293
    47   1 H        0.923     0.020     2.733     2.585
    48   1 H        0.925     0.048     2.346     2.395
    49   1 H        0.926     0.068     2.106     2.269
    50   1 H        0.926     0.062     2.172     2.305
    51   1 H        0.926     0.065     2.138     2.286
    52   1 H        0.926     0.074     2.044     2.236
    53   1 H        0.926     0.064     2.148     2.292
    54   1 H        0.926     0.069     2.097     2.265
    55   1 H        0.924     0.066     2.132     2.283
    56   1 H        0.924     0.064     2.148     2.292
    57   1 H        0.925     0.091     1.867     2.137
    58   1 H        0.925     0.085     1.927     2.171
    59   1 H        0.924     0.053     2.288     2.365
    60   1 H        0.924     0.054     2.275     2.359
    61   1 H        0.926     0.064     2.152     2.294
    62   1 H        0.924     0.059     2.208     2.324
    63   1 H        0.924     0.038     2.473     2.459
    64   1 H        0.925     0.059     2.216     2.328
    65   1 H        0.924     0.038     2.477     2.461
    66   1 H        0.925     0.065     2.137     2.286
    67   1 H        0.925     0.035     2.518     2.481
    68   1 H        0.925     0.052     2.300     2.372
    69   1 H        0.925     0.067     2.123     2.279
    70   1 H        0.925     0.037     2.484     2.465
    71   1 H        0.925     0.054     2.266     2.354
    72   1 H        0.860     0.156     1.358     1.825

Wiberg/Mayer (AO) data.
largest (>0.10) Wiberg bond orders for each atom

     #   Z sym  total        # sym  WBO       # sym  WBO       # sym  WBO
 ---------------------------------------------------------------------------
     1   7 N    3.012 --     2 C    1.952    72 H    0.941
     2   6 C    3.938 --     1 N    1.952     3 C    0.991    47 H    0.920
     3   6 C    3.969 --     2 C    0.991     4 C    0.977    14 C    0.949
                            31 C    0.943
     4   6 C    3.934 --    13 C    1.401     5 C    1.373     3 C    0.977
     5   6 C    3.955 --     6 C    1.394     4 C    1.373    34 H    0.958
     6   6 C    3.890 --     5 C    1.394     9 C    1.216     7 O    1.103
     7   8 O    2.248 --     6 C    1.103     8 C    0.978
     8   6 C    3.930 --     7 O    0.978    36 H    0.976    37 H    0.973
                            35 H    0.972
     9   6 C    3.885 --    12 C    1.382     6 C    1.216    10 O    1.108
    10   8 O    2.248 --     9 C    1.108    11 C    0.976
    11   6 C    3.928 --    39 H    0.977    10 O    0.976    40 H    0.972
                            38 H    0.972
    12   6 C    3.955 --    13 C    1.414     9 C    1.382    41 H    0.963
    13   6 C    3.940 --    12 C    1.414     4 C    1.401    42 H    0.961
    14   6 C    3.984 --    15 C    0.993    44 H    0.972    43 H    0.966
                             3 C    0.949
    15   6 C    3.972 --    16 C    1.004    14 C    0.993    45 H    0.962
                            46 H    0.942
    16   6 C    3.951 --    17 N    1.887    15 C    1.004    48 H    0.949
    17   7 N    3.039 --    16 C    1.887    30 C    1.034
    18   6 C    3.864 --    19 C    1.030    50 H    0.975    49 H    0.974
                            20 C    0.826
    19   6 C    3.858 --    18 C    1.030    51 H    0.975    52 H    0.973
                            20 C    0.819
    20   6 C    3.937 --    21 C    1.123    29 C    1.104    18 C    0.826
                            19 C    0.819
    21   6 C    3.793 --    22 C    1.573    20 C    1.123    53 H    0.966
    22   6 C    3.978 --    21 C    1.573    23 C    1.287    54 H    0.960
    23   6 C    3.743 --    22 C    1.287    24 O    1.166    26 C    1.152
    24   8 O    2.283 --    23 C    1.166    25 C    0.966
    25   6 C    3.919 --    57 H    0.976    56 H    0.972    55 H    0.971
                            24 O    0.966
    26   6 C    3.934 --    29 C    1.530    23 C    1.152    27 O    1.102
    27   8 O    2.266 --    26 C    1.102    28 C    0.975
    28   6 C    3.929 --    58 H    0.976    27 O    0.975    59 H    0.974
                            60 H    0.974
    29   6 C    3.830 --    26 C    1.530    20 C    1.104    61 H    0.961
    30   6 C    3.972 --    17 N    1.034    64 H    0.976    63 H    0.960
                            62 H    0.958
    31   6 C    3.968 --    32 C    1.008    33 C    1.008    65 H    0.958
                             3 C    0.943
    32   6 C    3.976 --    31 C    1.008    67 H    0.981    68 H    0.981
                            66 H    0.974
    33   6 C    3.974 --    31 C    1.008    70 H    0.982    71 H    0.979
                            69 H    0.972
    34   1 H    0.995 --     5 C    0.958
    35   1 H    0.992 --     8 C    0.972
    36   1 H    0.992 --     8 C    0.976
    37   1 H    0.992 --     8 C    0.973
    38   1 H    0.991 --    11 C    0.972
    39   1 H    0.992 --    11 C    0.977
    40   1 H    0.991 --    11 C    0.972
    41   1 H    0.995 --    12 C    0.963
    42   1 H    0.997 --    13 C    0.961
    43   1 H    0.994 --    14 C    0.966
    44   1 H    0.996 --    14 C    0.972
    45   1 H    0.996 --    15 C    0.962
    46   1 H    0.994 --    15 C    0.942
    47   1 H    0.976 --     2 C    0.920
    48   1 H    0.991 --    16 C    0.949
    49   1 H    0.993 --    18 C    0.974
    50   1 H    0.994 --    18 C    0.975
    51   1 H    0.993 --    19 C    0.975
    52   1 H    0.992 --    19 C    0.973
    53   1 H    0.995 --    21 C    0.966
    54   1 H    0.994 --    22 C    0.960
    55   1 H    0.989 --    25 C    0.971
    56   1 H    0.990 --    25 C    0.972
    57   1 H    0.991 --    25 C    0.976
    58   1 H    0.992 --    28 C    0.976
    59   1 H    0.995 --    28 C    0.974
    60   1 H    0.994 --    28 C    0.974
    61   1 H    0.995 --    29 C    0.961
    62   1 H    0.993 --    30 C    0.958
    63   1 H    0.989 --    30 C    0.960
    64   1 H    0.991 --    30 C    0.976
    65   1 H    0.989 --    31 C    0.958
    66   1 H    0.990 --    32 C    0.974
    67   1 H    0.996 --    32 C    0.981
    68   1 H    0.993 --    32 C    0.981
    69   1 H    0.990 --    33 C    0.972
    70   1 H    0.996 --    33 C    0.982
    71   1 H    0.992 --    33 C    0.979
    72   1 H    0.967 --     1 N    0.941
 ---------------------------------------------------------------------------

molecular dipole:
                 x           y           z       tot (Debye)
 q only:        2.284       0.287      -0.526
   full:        2.234       0.237      -0.768       6.035

           -------------------------------------------------
          | TOTAL ENERGY              -99.346737631254 Eh   |
          | GRADIENT NORM               0.003964034539 Eh/α |
          | HOMO-LUMO GAP               1.420021898723 eV   |
           -------------------------------------------------

 * finished run on 2024/04/06 at 11:13:40.872
