   * xtb version 6.6.1 (8d0f1dd) compiled by 'conda@1efc2f54142f' on 2023-08-01
          program call               : xtb struc.xyz --opt loose --input .xc1 --gfn2

   ID    Z sym.   atoms
    1    7 N      1, 17
    2    6 C      2-6, 8, 9, 11-16, 18-23, 25, 26, 28-33
    3    8 O      7, 10, 24, 27
    4    1 H      34-72
constraining bond 22 57 to    4.7133300 Å, actual value:    3.8976795 Å

          :  Hamiltonian                  GFN2-xTB          :
 * total energy  :   -99.5229198 Eh     change       -0.4035485E-08 Eh
 * total energy  :   -99.6688278 Eh     change       -0.1459080E+00 Eh
 * total energy  :   -99.8148361 Eh     change       -0.1460083E+00 Eh
 * total energy  :   -99.9849702 Eh     change       -0.1701341E+00 Eh
 * total energy  :  -100.3718443 Eh     change       -0.3868741E+00 Eh
 * total energy  :  -100.7907827 Eh     change       -0.4189384E+00 Eh
 * total energy  :  -101.3724544 Eh     change       -0.5816717E+00 Eh
 * total energy  :  -100.6565420 Eh     change        0.7159124E+00 Eh
 * total energy  :  -101.5151010 Eh     change       -0.8585590E+00 Eh
 * total energy  :  -101.4338145 Eh     change        0.8128650E-01 Eh
 * total energy  :  -102.0257251 Eh     change       -0.1699713E-03 Eh
 * total energy  :  -102.0259397 Eh     change       -0.2146574E-03 Eh
 * total energy  :  -102.0261068 Eh     change       -0.1670599E-03 Eh
 * total energy  :  -102.0262262 Eh     change       -0.1194546E-03 Eh
 * total energy  :  -102.0262592 Eh     change       -0.3299539E-04 Eh
 * total energy  :  -102.0263707 Eh     change       -0.1114799E-03 Eh
 * total energy  :  -102.0264292 Eh     change       -0.5849129E-04 Eh
 * total energy  :  -102.0265161 Eh     change       -0.8691225E-04 Eh
 * total energy  :  -102.0265527 Eh     change       -0.3653504E-04 Eh
   *** GEOMETRY OPTIMIZATION CONVERGED AFTER 54 ITERATIONS ***

 final structure:
================
72
 xtb: 6.6.1 (8d0f1dd)
N           -1.78979106499453        2.79811441946207        2.32690807042332
C           -1.71899084178678        2.11684462467881        1.28398085604515
C           -2.84477432591481        1.92920473392185        0.30484295788755
C           -3.31922173832378        0.48432171289315        0.34169593499386
C           -4.21865817923583        0.02482684301836       -0.62250186588009
C           -4.69811099054553       -1.27468682089097       -0.60413432553224
O           -5.57529807451138       -1.79517320320889       -1.48480685991416
C           -6.14904903124332       -0.96366902190746       -2.46612645979284
C           -4.25716424026894       -2.16949916495350        0.40946625279239
O           -4.76699765929113       -3.41424732602829        0.34438293131938
C           -4.45224832669184       -4.33935250253506        1.35925750122965
C           -3.36521782390837       -1.70603502157592        1.36380803874685
C           -2.90579417232141       -0.39552633237258        1.33056878963994
C           -2.24938491781801        2.25842176725595       -1.08902022155002
C           -1.30125152459448        1.18020228707927       -1.64407114386784
C            0.02077776111867        1.14202204814982       -0.97889337655618
N            0.67139400755476        0.04042757081310       -0.62665124600342
C            2.06023125280593        0.09930199906152       -0.23030968889380
C            2.99218945188352       -0.31629467373722       -1.38393216784006
C            4.43498863508090       -0.22549128551100       -0.96219142384508
C            5.22274811445060        0.79340231729474       -1.34886617671359
C            6.66970647247756        0.92541605364867       -0.97756868602094
C            7.11899108269176       -0.08209281088414        0.09430879086253
O            8.18052695881948        0.04417428987100        0.65925347531160
C            6.91144390121029        2.35288568795680       -0.40587656415956
C            6.22696250292471       -1.23395800135929        0.35534637241431
O            6.81178261056529       -2.16205592006736        1.12365681096397
C            6.11756830066130       -3.34474357408680        1.44029202850525
C            4.95480138964989       -1.26765781531223       -0.12928906689105
C            0.05808423198534       -1.26457109903107       -0.70068060983511
C           -4.06949320917374        2.84890806212622        0.59197949068117
C           -4.73587805028632        2.49364128732598        1.91897220646868
C           -3.72458093465408        4.33514073667873        0.56969409122391
H           -4.56237629027141        0.69852629523510       -1.38975049065243
H           -6.68281512941955       -0.12137421348255       -2.01605466081360
H           -6.85680591741042       -1.59248814836692       -3.00270692774463
H           -5.39625565863098       -0.58941555780288       -3.16749984491189
H           -4.76160564510715       -3.97489160517560        2.34311605817412
H           -5.01107071747453       -5.24078885893240        1.11602697513673
H           -3.38224898453501       -4.57012328769450        1.37421689653006
H           -3.02927588963907       -2.35593421026614        2.15535511878803
H           -2.23868657798989       -0.06180464549380        2.11027589027199
H           -3.06668691957401        2.38622809666802       -1.79777155637301
H           -1.71510706681661        3.20724498798128       -1.02840904233235
H           -1.79532763103324        0.21061613124027       -1.61599236093604
H           -1.12211422014652        1.43268003089606       -2.69762392761519
H           -0.79486025008446        1.61013382077455        0.93934721165016
H            0.57428040083364        2.06795268567618       -0.91918984353138
H            2.21551987065895       -0.56190925677368        0.62643179957007
H            2.30713083587138        1.11815473510911        0.07523371951895
H            2.81355054594738        0.34227636508638       -2.23502363550995
H            2.76348414455364       -1.33977578969483       -1.68637459513377
H            4.83862011909229        1.57110983620809       -1.99371902877300
H            6.81888188494324        3.08733587787964       -1.20136958100851
H            6.19993331846196        2.58817437569825        0.37989118552086
H            7.91729694053870        2.40096345235290        0.00209664758589
H            7.10820320136856        0.83169270066745       -1.57130492620991
H            6.82472967683431       -3.96181948105282        1.98963675385511
H            5.24722286311423       -3.13985640719784        2.07144760399744
H            5.79889641645515       -3.87335646591014        0.53647003633075
H            4.30535648593990       -2.09866691130674        0.10235889702128
H           -0.09968995587948       -1.57086243173826       -1.73711432714630
H           -0.90548845187670       -1.26173427641682       -0.18520276164679
H            0.70461929109871       -1.99383675677958       -0.21923889583025
H           -4.79308118758856        2.65813535052306       -0.20879299315522
H           -4.05378028727014        2.68472620719913        2.74120482424514
H           -5.03445931458383        1.44837233797352        1.94282505620884
H           -5.62320240836538        3.10594755357524        2.05597268518423
H           -2.98265577203780        4.56299435618569        1.32877137849801
H           -3.35495874556640        4.65266196692969       -0.40166214094624
H           -4.61999866694259        4.91086987964865        0.78852334754369
H           -0.95895027878381        2.88377891529776        2.90336958102110

          :  Hamiltonian                  GFN2-xTB          :
         :: total energy            -102.026552663670 Eh    ::
         :: gradient norm              0.002735878247 Eh/a0 ::
         :: HOMO-LUMO gap              1.717448769860 eV    ::
         :: SCC energy              -100.774425263920 Eh    ::
         :: -> dispersion             -0.075049194042 Eh    ::
         :: repulsion energy           1.559660299801 Eh    ::

    * Orbital Energies and Occupations

         #    Occupation            Energy/Eh            Energy/eV
      -------------------------------------------------------------
         1        2.0000           -0.8162641             -22.2117
       ...           ...                  ...                  ...
        78        1.9980           -0.5350059             -14.5583
        79        1.9978           -0.5335737             -14.5193
        80        1.9972           -0.5296420             -14.4123
        81        1.9971           -0.5290787             -14.3970
        82        1.9968           -0.5274569             -14.3528
        83        1.9951           -0.5210052             -14.1773
        84        1.9942           -0.5182795             -14.1031
        85        1.9932           -0.5156888             -14.0326
        86        1.9785           -0.4973234             -13.5329
        87        1.9313           -0.4785467             -13.0219
        88        1.9282           -0.4778292             -13.0024
        89        1.8667           -0.4675242             -12.7220
        90        1.8544           -0.4660136             -12.6809 (HOMO)
        91        0.3825           -0.4028985             -10.9634 (LUMO)
        92        0.0781           -0.3750032             -10.2044
        93        0.0131           -0.3462085              -9.4208
        94        0.0031           -0.3234869              -8.8025
        95        0.0026           -0.3205693              -8.7231
        96        0.0012           -0.3088806              -8.4051
        97        0.0000           -0.2324010              -6.3240
        98        0.0000           -0.1979690              -5.3870
        99                         -0.1467681              -3.9938
       100                         -0.0797314              -2.1696
       101                         -0.0766953              -2.0870
       ...                                ...                  ...
       171                          1.4076818              38.3050
      -------------------------------------------------------------
                  HL-Gap            0.0631151 Eh            1.7174 eV

     #   Z          covCN         q      C6AA      α(0)
     1   7 N        1.774    -0.264    27.666     7.789
     2   6 C        2.827     0.102    25.739     8.313
     3   6 C        3.907     0.007    20.409     6.421
     4   6 C        2.974     0.003    27.959     8.673
     5   6 C        2.920    -0.080    29.996     8.981
     6   6 C        2.862     0.130    25.142     8.219
     7   8 O        1.706    -0.227    17.763     5.690
     8   6 C        3.644     0.027    20.466     6.503
     9   6 C        2.864     0.129    25.162     8.222
    10   8 O        1.706    -0.225    17.740     5.687
    11   6 C        3.645     0.026    20.474     6.503
    12   6 C        2.913    -0.074    29.851     8.959
    13   6 C        2.921    -0.053    29.315     8.879
    14   6 C        3.813    -0.065    21.743     6.637
    15   6 C        3.802    -0.070    21.833     6.652
    16   6 C        2.843     0.009    27.814     8.643
    17   7 N        2.729     0.012    21.052     6.814
    18   6 C        3.754    -0.016    20.924     6.523
    19   6 C        3.809    -0.072    21.863     6.656
    20   6 C        2.953     0.002    27.971     8.674
    21   6 C        2.909    -0.053    29.312     8.878
    22   6 C        3.858    -0.069    21.776     6.637
    23   6 C        2.821     0.215    23.461     7.936
    24   8 O        0.857    -0.316    20.066     6.006
    25   6 C        3.756    -0.106    22.590     6.777
    26   6 C        2.847     0.124    25.281     8.241
    27   8 O        1.706    -0.206    17.434     5.638
    28   6 C        3.646     0.025    20.493     6.506
    29   6 C        2.909    -0.080    29.988     8.979
    30   6 C        3.700    -0.070    22.018     6.711
    31   6 C        3.853    -0.007    20.672     6.467
    32   6 C        3.756    -0.119    22.838     6.814
    33   6 C        3.755    -0.119    22.835     6.814
    34   1 H        0.926     0.053     2.281     2.362
    35   1 H        0.924     0.055     2.255     2.348
    36   1 H        0.925     0.083     1.949     2.183
    37   1 H        0.924     0.049     2.338     2.391
    38   1 H        0.924     0.057     2.237     2.339
    39   1 H        0.925     0.083     1.950     2.183
    40   1 H        0.924     0.049     2.329     2.387
    41   1 H        0.926     0.054     2.276     2.359
    42   1 H        0.926     0.040     2.451     2.448
    43   1 H        0.925     0.061     2.182     2.310
    44   1 H        0.924     0.055     2.259     2.351
    45   1 H        0.925     0.067     2.118     2.276
    46   1 H        0.923     0.082     1.957     2.188
    47   1 H        0.922     0.007     2.934     2.679
    48   1 H        0.926     0.071     2.070     2.250
    49   1 H        0.924     0.069     2.096     2.264
    50   1 H        0.924     0.068     2.110     2.272
    51   1 H        0.924     0.054     2.268     2.355
    52   1 H        0.924     0.059     2.211     2.325
    53   1 H        0.926     0.053     2.281     2.362
    54   1 H        0.925     0.056     2.240     2.341
    55   1 H        0.925     0.046     2.370     2.408
    56   1 H        0.925     0.080     1.983     2.202
    57   1 H        0.931     0.142     1.447     1.881
    58   1 H        0.925     0.088     1.900     2.156
    59   1 H        0.924     0.052     2.298     2.370
    60   1 H        0.924     0.054     2.267     2.355
    61   1 H        0.926     0.046     2.369     2.407
    62   1 H        0.924     0.077     2.008     2.216
    63   1 H        0.924     0.080     1.979     2.200
    64   1 H        0.925     0.080     1.977     2.199
    65   1 H        0.924     0.039     2.467     2.456
    66   1 H        0.925     0.070     2.084     2.257
    67   1 H        0.925     0.036     2.501     2.473
    68   1 H        0.925     0.053     2.284     2.363
    69   1 H        0.925     0.061     2.187     2.313
    70   1 H        0.925     0.036     2.507     2.476
    71   1 H        0.925     0.056     2.243     2.342
    72   1 H        0.860     0.160     1.337     1.811

Wiberg/Mayer (AO) data.
largest (>0.10) Wiberg bond orders for each atom

     #   Z sym  total        # sym  WBO       # sym  WBO       # sym  WBO
 ---------------------------------------------------------------------------
     1   7 N    3.044 --     2 C    1.960    72 H    0.940
     2   6 C    3.929 --     1 N    1.960     3 C    0.994    47 H    0.896
     3   6 C    3.974 --     2 C    0.994     4 C    0.970    14 C    0.957
                            31 C    0.941
     4   6 C    3.946 --    13 C    1.411     5 C    1.369     3 C    0.970
     5   6 C    3.960 --     6 C    1.399     4 C    1.369    34 H    0.958
     6   6 C    3.902 --     5 C    1.399     9 C    1.218     7 O    1.103
     7   8 O    2.255 --     6 C    1.103     8 C    0.977
     8   6 C    3.930 --     7 O    0.977    36 H    0.976    35 H    0.973
                            37 H    0.973
     9   6 C    3.898 --    12 C    1.390     6 C    1.218    10 O    1.106
    10   8 O    2.254 --     9 C    1.106    11 C    0.976
    11   6 C    3.929 --    39 H    0.977    10 O    0.976    40 H    0.973
                            38 H    0.973
    12   6 C    3.960 --    13 C    1.405     9 C    1.390    41 H    0.963
    13   6 C    3.951 --     4 C    1.411    12 C    1.405    42 H    0.962
    14   6 C    3.973 --    15 C    0.982    44 H    0.972    43 H    0.968
                             3 C    0.957
    15   6 C    3.986 --    16 C    1.060    14 C    0.982    45 H    0.961
                            46 H    0.925
    16   6 C    3.604 --    17 N    1.406    15 C    1.060    48 H    0.957
    17   7 N    3.484 --    16 C    1.406    30 C    0.998    18 C    0.987
    18   6 C    3.956 --    17 N    0.987    19 C    0.970    50 H    0.968
                            49 H    0.963
    19   6 C    3.976 --    20 C    1.002    51 H    0.974    18 C    0.970
                            52 H    0.968
    20   6 C    3.959 --    21 C    1.694    29 C    1.177    19 C    1.002
    21   6 C    3.896 --    20 C    1.694    22 C    1.030    53 H    0.963
    22   6 C    3.958 --    21 C    1.030    25 C    0.950    23 C    0.949
                            57 H    0.918
    23   6 C    3.896 --    24 O    1.807    26 C    1.022    22 C    0.949
    24   8 O    2.031 --    23 C    1.807
    25   6 C    3.970 --    55 H    0.990    54 H    0.983    56 H    0.978
                            22 C    0.950
    26   6 C    3.866 --    29 C    1.539    27 O    1.129    23 C    1.022
    27   8 O    2.291 --    26 C    1.129    28 C    0.975    29 C    0.104
    28   6 C    3.928 --    58 H    0.976    27 O    0.975    60 H    0.972
                            59 H    0.972
    29   6 C    3.909 --    26 C    1.539    20 C    1.177    61 H    0.960
                            27 O    0.104
    30   6 C    3.957 --    17 N    0.998    64 H    0.977    62 H    0.966
                            63 H    0.962
    31   6 C    3.970 --    33 C    1.009    32 C    1.008    65 H    0.959
                             3 C    0.941
    32   6 C    3.976 --    31 C    1.008    67 H    0.981    68 H    0.981
                            66 H    0.973
    33   6 C    3.981 --    31 C    1.009    70 H    0.983    71 H    0.979
                            69 H    0.976
    34   1 H    0.996 --     5 C    0.958
    35   1 H    0.993 --     8 C    0.973
    36   1 H    0.992 --     8 C    0.976
    37   1 H    0.993 --     8 C    0.973
    38   1 H    0.992 --    11 C    0.973
    39   1 H    0.992 --    11 C    0.977
    40   1 H    0.993 --    11 C    0.973
    41   1 H    0.995 --    12 C    0.963
    42   1 H    0.998 --    13 C    0.962
    43   1 H    0.995 --    14 C    0.968
    44   1 H    0.996 --    14 C    0.972
    45   1 H    0.995 --    15 C    0.961
    46   1 H    0.970 --    15 C    0.925
    47   1 H    0.985 --     2 C    0.896
    48   1 H    0.995 --    16 C    0.957
    49   1 H    0.991 --    18 C    0.963
    50   1 H    0.994 --    18 C    0.968
    51   1 H    0.996 --    19 C    0.974
    52   1 H    0.995 --    19 C    0.968
    53   1 H    0.994 --    21 C    0.963
    54   1 H    0.994 --    25 C    0.983
    55   1 H    0.996 --    25 C    0.990
    56   1 H    0.991 --    25 C    0.978
    57   1 H    0.974 --    22 C    0.918
    58   1 H    0.991 --    28 C    0.976
    59   1 H    0.993 --    28 C    0.972
    60   1 H    0.993 --    28 C    0.972
    61   1 H    0.995 --    29 C    0.960
    62   1 H    0.985 --    30 C    0.966
    63   1 H    0.987 --    30 C    0.962
    64   1 H    0.993 --    30 C    0.977
    65   1 H    0.991 --    31 C    0.959
    66   1 H    0.990 --    32 C    0.973
    67   1 H    0.996 --    32 C    0.981
    68   1 H    0.993 --    32 C    0.981
    69   1 H    0.993 --    33 C    0.976
    70   1 H    0.997 --    33 C    0.983
    71   1 H    0.993 --    33 C    0.979
    72   1 H    0.969 --     1 N    0.940
 ---------------------------------------------------------------------------

molecular dipole:
                 x           y           z       tot (Debye)
 q only:       -1.079      -0.316      -1.216
   full:       -0.959      -0.537      -1.399       4.522

           -------------------------------------------------
          | TOTAL ENERGY             -102.026552663670 Eh   |
          | GRADIENT NORM               0.002735878247 Eh/α |
          | HOMO-LUMO GAP               1.717448769860 eV   |
           -------------------------------------------------

 * finished run on 2024/04/06 at 11:17:07.129
