   * xtb version 6.6.1 (8d0f1dd) compiled by 'conda@1efc2f54142f' on 2023-08-01
          program call               : xtb xtbopt.xyz --opt crude --input .xc2 --gfn2

   ID    Z sym.   atoms
    1    7 N      1, 17
    2    6 C      2-6, 8, 9, 11-16, 18-23, 25, 26, 28-33
    3    8 O      7, 10, 24, 27
    4    1 H      34-72
########################################################################
[WARNING] Please study the warnings concerning your input carefully
-1- readin_getIntValue: could not parse ''
########################################################################

          :  Hamiltonian                  GFN2-xTB          :
 * total energy  :   -99.2133911 Eh     change       -0.4163780E-11 Eh
 * total energy  :   -99.3751999 Eh     change       -0.1618089E+00 Eh
 * total energy  :   -99.3771426 Eh     change       -0.1942655E-02 Eh
 * total energy  :   -99.3780342 Eh     change       -0.8915603E-03 Eh
 * total energy  :   -99.3782713 Eh     change       -0.2371424E-03 Eh
   *** GEOMETRY OPTIMIZATION CONVERGED AFTER 5 ITERATIONS ***

 final structure:
================
72
 xtb: 6.6.1 (8d0f1dd)
N           -1.78770115007221        2.79950778220338        2.32637808750136
C           -1.71775048676674        2.11738436463773        1.28398055080442
C           -2.84354983608457        1.92946152451460        0.30506983997198
C           -3.31668418107339        0.48414486250011        0.34246152841725
C           -4.21534783729992        0.02396891714244       -0.62213975671185
C           -4.69424505126536       -1.27563339759974       -0.60410496502518
O           -5.56951844166038       -1.79628145632767       -1.48675885001200
C           -6.14371360729931       -0.96301019170793       -2.46642882998560
C           -4.25481633665637       -2.16985571404508        0.41070554743617
O           -4.76680275025137       -3.41372526328314        0.34730364132554
C           -4.45266925177540       -4.33902127805413        1.36216962926973
C           -3.36256164722163       -1.70624844496271        1.36461624819426
C           -2.90277628461809       -0.39577181625473        1.33102094356064
C           -2.24971473167301        2.25912831002871       -1.08931745033727
C           -1.30260189970674        1.18147151692538       -1.64584807409234
C            0.01831427450832        1.14102812505348       -0.97924619462712
N            0.66659137765284        0.03798428482867       -0.62741124223318
C            2.05604745112380        0.09415526852426       -0.23609940900488
C            2.98547843345979       -0.33152859296103       -1.38849041646792
C            4.42478059871252       -0.23282874150988       -0.95788881430864
C            5.20100221939564        0.80556208780966       -1.32103121275822
C            6.62087634903932        0.95291139854808       -0.90589933355578
C            7.10968454147737       -0.07853824718245        0.10226170878214
O            8.18296624582517        0.03078503012846        0.64886565670246
C            6.90529034168270        2.37198020141282       -0.38174708580487
C            6.22072328628815       -1.23834531094461        0.35730851527346
O            6.80654060660309       -2.16760529190705        1.12350950305412
C            6.11058171814258       -3.34806299426338        1.44605404600260
C            4.94923526118827       -1.27588682018726       -0.12943497208669
C            0.05345901056364       -1.26682173935508       -0.70371979439481
C           -4.06824084504151        2.84913885160596        0.59187436691126
C           -4.73517640552096        2.49432905427432        1.91862233346555
C           -3.72251412410002        4.33522082435768        0.56943622168820
H           -4.55840683874713        0.69761976802289       -1.38966514896600
H           -6.67799866660490       -0.12211091682405       -2.01434140878438
H           -6.85097823960618       -1.59093473046724       -3.00462416148380
H           -5.39108362895307       -0.58666151821617       -3.16685760217121
H           -4.76198550167642       -3.97452505295160        2.34604762519939
H           -5.01209523999151       -5.24007022298741        1.11878182744059
H           -3.38285544066572       -4.57047161630937        1.37735356381233
H           -3.02670455032476       -2.35596041525067        2.15639127028638
H           -2.23517950194024       -0.06258361680759        2.11053010334584
H           -3.06788855764979        2.38747815749762       -1.79690726877131
H           -1.71526043762185        3.20782692261341       -1.02885642640742
H           -1.79696401597242        0.21196552624325       -1.62004419136367
H           -1.12182902805931        1.43586865553048       -2.69860818540002
H           -0.79424361330036        1.60909497257970        0.93984057426395
H            0.57308019133459        2.06611580365997       -0.91788533113041
H            2.21309800741141       -0.56141659326955        0.62460993877620
H            2.30793575982436        1.11420742670696        0.06123944114754
H            2.80881481099941        0.32231243862656       -2.24368041796654
H            2.75523491202926       -1.35626308512581       -1.68479713686700
H            4.81300911525340        1.58902324925375       -1.95610094911621
H            6.79017613828205        3.10059964357246       -1.17958896672022
H            6.22412795587451        2.62670581619097        0.42857084794502
H            7.92247240670584        2.41608899683723       -0.00231520888659
H            7.25660506550965        0.80912725664412       -1.78508997084706
H            6.81307945114533       -3.95987159108487        2.00856957509789
H            5.23471934429305       -3.13684757202946        2.06804288992578
H            5.80007526820485       -3.88619854008999        0.54499902337443
H            4.30406291567546       -2.11280196878014        0.09459652879604
H           -0.10327463230585       -1.57193549458201       -1.74057037486186
H           -0.91027537531759       -1.26506452391720       -0.18876717480616
H            0.70034855209005       -1.99590322794354       -0.22248576136725
H           -4.79161360534929        2.65848873702170       -0.20914072404257
H           -4.05397856804737        2.68691969973380        2.74121522222421
H           -5.03243690350015        1.44874070689678        1.94303302403593
H           -5.62334541076530        3.10566743056328        2.05429847223109
H           -2.98159533995329        4.56281895796771        1.32964205509798
H           -3.35091191360739        4.65211694664966       -0.40143471559805
H           -4.61787724980274        4.91171736921005        0.78642435905219
H           -0.95672888544663        2.88425862315924        2.90276765914580

          :  Hamiltonian                  GFN2-xTB          :
         :: total energy             -99.378271296978 Eh    ::
         :: gradient norm              0.007681168636 Eh/a0 ::
         :: HOMO-LUMO gap              1.717848868009 eV    ::
         :: SCC energy              -100.750059286325 Eh    ::
         :: -> dispersion             -0.075047843310 Eh    ::
         :: repulsion energy           1.370407074681 Eh    ::

    * Orbital Energies and Occupations

         #    Occupation            Energy/Eh            Energy/eV
      -------------------------------------------------------------
         1        2.0000           -0.8160912             -22.2070
       ...           ...                  ...                  ...
        78        1.9980           -0.5349843             -14.5577
        79        1.9978           -0.5335766             -14.5194
        80        1.9971           -0.5293024             -14.4031
        81        1.9969           -0.5283476             -14.3771
        82        1.9965           -0.5259808             -14.3127
        83        1.9951           -0.5209851             -14.1767
        84        1.9942           -0.5182527             -14.1024
        85        1.9932           -0.5156838             -14.0325
        86        1.9785           -0.4973137             -13.5326
        87        1.9307           -0.4783815             -13.0174
        88        1.9262           -0.4773324             -12.9889
        89        1.8683           -0.4676895             -12.7265
        90        1.8547           -0.4660169             -12.6810 (HOMO)
        91        0.3831           -0.4028871             -10.9631 (LUMO)
        92        0.0787           -0.3751049             -10.2071
        93        0.0131           -0.3461662              -9.4197
        94        0.0031           -0.3234676              -8.8020
        95        0.0026           -0.3205686              -8.7231
        96        0.0012           -0.3083617              -8.3909
        97        0.0000           -0.2332362              -6.3467
        98        0.0000           -0.1979522              -5.3866
        99                         -0.1457011              -3.9647
       100                         -0.0773181              -2.1039
       101                         -0.0761793              -2.0729
       ...                                ...                  ...
       171                          0.6025956              16.3975
      -------------------------------------------------------------
                  HL-Gap            0.0631298 Eh            1.7178 eV

     #   Z          covCN         q      C6AA      α(0)
     1   7 N        1.774    -0.264    27.666     7.789
     2   6 C        2.827     0.102    25.739     8.313
     3   6 C        3.907     0.007    20.409     6.421
     4   6 C        2.974     0.003    27.960     8.674
     5   6 C        2.920    -0.080    29.997     8.981
     6   6 C        2.862     0.130    25.143     8.219
     7   8 O        1.706    -0.227    17.765     5.691
     8   6 C        3.644     0.027    20.466     6.503
     9   6 C        2.864     0.129    25.161     8.222
    10   8 O        1.706    -0.225    17.740     5.687
    11   6 C        3.645     0.026    20.474     6.503
    12   6 C        2.913    -0.074    29.851     8.959
    13   6 C        2.921    -0.053    29.315     8.879
    14   6 C        3.813    -0.065    21.742     6.637
    15   6 C        3.802    -0.070    21.832     6.652
    16   6 C        2.843     0.009    27.815     8.643
    17   7 N        2.729     0.012    21.050     6.814
    18   6 C        3.755    -0.016    20.920     6.522
    19   6 C        3.809    -0.071    21.860     6.656
    20   6 C        2.954     0.003    27.956     8.672
    21   6 C        2.909    -0.049    29.227     8.865
    22   6 C        3.857    -0.036    21.183     6.546
    23   6 C        2.821     0.218    23.400     7.926
    24   8 O        0.857    -0.316    20.065     6.006
    25   6 C        3.756    -0.106    22.576     6.775
    26   6 C        2.847     0.124    25.279     8.240
    27   8 O        1.706    -0.206    17.421     5.635
    28   6 C        3.645     0.025    20.495     6.506
    29   6 C        2.909    -0.080    29.993     8.980
    30   6 C        3.700    -0.071    22.019     6.711
    31   6 C        3.853    -0.007    20.672     6.467
    32   6 C        3.756    -0.119    22.837     6.814
    33   6 C        3.755    -0.119    22.836     6.814
    34   1 H        0.926     0.053     2.281     2.362
    35   1 H        0.924     0.055     2.255     2.349
    36   1 H        0.925     0.083     1.949     2.183
    37   1 H        0.924     0.049     2.339     2.392
    38   1 H        0.924     0.057     2.237     2.339
    39   1 H        0.925     0.083     1.950     2.183
    40   1 H        0.924     0.049     2.329     2.387
    41   1 H        0.926     0.054     2.276     2.359
    42   1 H        0.926     0.040     2.451     2.448
    43   1 H        0.925     0.062     2.181     2.310
    44   1 H        0.924     0.055     2.260     2.351
    45   1 H        0.925     0.067     2.118     2.276
    46   1 H        0.923     0.082     1.957     2.188
    47   1 H        0.922     0.007     2.934     2.679
    48   1 H        0.926     0.071     2.071     2.250
    49   1 H        0.924     0.069     2.098     2.265
    50   1 H        0.924     0.068     2.111     2.272
    51   1 H        0.924     0.054     2.265     2.353
    52   1 H        0.924     0.059     2.210     2.325
    53   1 H        0.926     0.054     2.275     2.359
    54   1 H        0.925     0.056     2.242     2.341
    55   1 H        0.925     0.047     2.358     2.401
    56   1 H        0.925     0.079     1.990     2.206
    57   1 H        0.924     0.099     1.791     2.093
    58   1 H        0.925     0.088     1.899     2.155
    59   1 H        0.924     0.052     2.299     2.371
    60   1 H        0.924     0.055     2.263     2.353
    61   1 H        0.926     0.046     2.365     2.405
    62   1 H        0.924     0.077     2.008     2.216
    63   1 H        0.924     0.080     1.978     2.199
    64   1 H        0.925     0.080     1.977     2.199
    65   1 H        0.924     0.039     2.467     2.456
    66   1 H        0.925     0.070     2.085     2.258
    67   1 H        0.925     0.036     2.501     2.473
    68   1 H        0.925     0.053     2.284     2.363
    69   1 H        0.925     0.061     2.186     2.312
    70   1 H        0.925     0.036     2.508     2.477
    71   1 H        0.925     0.056     2.243     2.342
    72   1 H        0.860     0.160     1.337     1.811

Wiberg/Mayer (AO) data.
largest (>0.10) Wiberg bond orders for each atom

     #   Z sym  total        # sym  WBO       # sym  WBO       # sym  WBO
 ---------------------------------------------------------------------------
     1   7 N    3.044 --     2 C    1.960    72 H    0.940
     2   6 C    3.929 --     1 N    1.960     3 C    0.994    47 H    0.896
     3   6 C    3.974 --     2 C    0.994     4 C    0.970    14 C    0.957
                            31 C    0.941
     4   6 C    3.946 --    13 C    1.411     5 C    1.369     3 C    0.970
     5   6 C    3.960 --     6 C    1.399     4 C    1.369    34 H    0.958
     6   6 C    3.902 --     5 C    1.399     9 C    1.218     7 O    1.103
     7   8 O    2.255 --     6 C    1.103     8 C    0.977
     8   6 C    3.930 --     7 O    0.977    36 H    0.976    35 H    0.973
                            37 H    0.973
     9   6 C    3.898 --    12 C    1.390     6 C    1.218    10 O    1.106
    10   8 O    2.254 --     9 C    1.106    11 C    0.976
    11   6 C    3.929 --    39 H    0.977    10 O    0.976    40 H    0.973
                            38 H    0.973
    12   6 C    3.960 --    13 C    1.405     9 C    1.390    41 H    0.963
    13   6 C    3.951 --     4 C    1.411    12 C    1.405    42 H    0.962
    14   6 C    3.973 --    15 C    0.982    44 H    0.972    43 H    0.968
                             3 C    0.957
    15   6 C    3.986 --    16 C    1.060    14 C    0.982    45 H    0.961
                            46 H    0.925
    16   6 C    3.604 --    17 N    1.406    15 C    1.060    48 H    0.957
    17   7 N    3.484 --    16 C    1.406    30 C    0.998    18 C    0.987
    18   6 C    3.956 --    17 N    0.987    19 C    0.969    50 H    0.968
                            49 H    0.963
    19   6 C    3.976 --    20 C    1.003    51 H    0.974    18 C    0.969
                            52 H    0.968
    20   6 C    3.959 --    21 C    1.688    29 C    1.179    19 C    1.003
    21   6 C    3.895 --    20 C    1.688    22 C    1.040    53 H    0.963
    22   6 C    3.967 --    21 C    1.040    25 C    0.968    23 C    0.961
                            57 H    0.898
    23   6 C    3.900 --    24 O    1.803    26 C    1.019    22 C    0.961
    24   8 O    2.027 --    23 C    1.803
    25   6 C    3.973 --    55 H    0.987    54 H    0.983    56 H    0.978
                            22 C    0.968
    26   6 C    3.865 --    29 C    1.538    27 O    1.131    23 C    1.019
    27   8 O    2.291 --    26 C    1.131    28 C    0.975    29 C    0.104
    28   6 C    3.928 --    58 H    0.976    27 O    0.975    60 H    0.972
                            59 H    0.972
    29   6 C    3.909 --    26 C    1.538    20 C    1.179    61 H    0.960
                            27 O    0.104
    30   6 C    3.957 --    17 N    0.998    64 H    0.977    62 H    0.966
                            63 H    0.962
    31   6 C    3.970 --    33 C    1.009    32 C    1.008    65 H    0.959
                             3 C    0.941
    32   6 C    3.976 --    31 C    1.008    67 H    0.981    68 H    0.981
                            66 H    0.973
    33   6 C    3.981 --    31 C    1.009    70 H    0.983    71 H    0.979
                            69 H    0.976
    34   1 H    0.996 --     5 C    0.958
    35   1 H    0.993 --     8 C    0.973
    36   1 H    0.992 --     8 C    0.976
    37   1 H    0.993 --     8 C    0.973
    38   1 H    0.992 --    11 C    0.973
    39   1 H    0.992 --    11 C    0.977
    40   1 H    0.993 --    11 C    0.973
    41   1 H    0.995 --    12 C    0.963
    42   1 H    0.998 --    13 C    0.962
    43   1 H    0.995 --    14 C    0.968
    44   1 H    0.996 --    14 C    0.972
    45   1 H    0.995 --    15 C    0.961
    46   1 H    0.970 --    15 C    0.925
    47   1 H    0.985 --     2 C    0.896
    48   1 H    0.995 --    16 C    0.957
    49   1 H    0.991 --    18 C    0.963
    50   1 H    0.994 --    18 C    0.968
    51   1 H    0.996 --    19 C    0.974
    52   1 H    0.996 --    19 C    0.968
    53   1 H    0.994 --    21 C    0.963
    54   1 H    0.994 --    25 C    0.983
    55   1 H    0.996 --    25 C    0.987
    56   1 H    0.992 --    25 C    0.978
    57   1 H    0.978 --    22 C    0.898
    58   1 H    0.991 --    28 C    0.976
    59   1 H    0.993 --    28 C    0.972
    60   1 H    0.993 --    28 C    0.972
    61   1 H    0.995 --    29 C    0.960
    62   1 H    0.985 --    30 C    0.966
    63   1 H    0.987 --    30 C    0.962
    64   1 H    0.993 --    30 C    0.977
    65   1 H    0.991 --    31 C    0.959
    66   1 H    0.990 --    32 C    0.973
    67   1 H    0.996 --    32 C    0.981
    68   1 H    0.993 --    32 C    0.981
    69   1 H    0.993 --    33 C    0.976
    70   1 H    0.997 --    33 C    0.983
    71   1 H    0.993 --    33 C    0.979
    72   1 H    0.969 --     1 N    0.940
 ---------------------------------------------------------------------------

molecular dipole:
                 x           y           z       tot (Debye)
 q only:       -1.098      -0.318      -1.192
   full:       -0.960      -0.531      -1.399       4.520

           -------------------------------------------------
          | TOTAL ENERGY              -99.378271296978 Eh   |
          | GRADIENT NORM               0.007681168636 Eh/α |
          | HOMO-LUMO GAP               1.717848868009 eV   |
           -------------------------------------------------

 * finished run on 2024/04/06 at 11:17:08.265
