   * xtb version 6.6.1 (8d0f1dd) compiled by 'conda@1efc2f54142f' on 2023-08-01
          program call               : xtb xtbopt.xyz --opt crude --input .xc2 --gfn2

   ID    Z sym.   atoms
    1    6 C      1, 3, 5-7, 10, 11, 14
    2    7 N      2, 4, 9, 13
    3    8 O      8, 12
    4    1 H      15-25

          :  Hamiltonian                  GFN2-xTB          :
 * total energy  :   -42.1035561 Eh     change       -0.1335820E-11 Eh
   *** GEOMETRY OPTIMIZATION CONVERGED AFTER 1 ITERATIONS ***

 final structure:
================
25
 xtb: 6.6.1 (8d0f1dd)
C            3.23083949960403        1.18707376729829        0.04540072922071
N            2.27577966808315        0.11211774318294       -0.02412329800343
C            2.54346025415440       -1.18760056966179       -0.07121920831993
N            1.39584878025658       -1.89568677253240       -0.12604825424758
C            0.35193406527063       -1.00433942336644       -0.10832561886811
C            0.91024821026009        0.26646271330802       -0.04354644614474
C            0.10274803907609        1.46741800588878       -0.02892467619438
O            0.52020483658459        2.60239594090232       -0.01556602378722
N           -1.26182562707844        1.15773237917862       -0.03500985545841
C           -2.19883813558812        2.27761009289578        0.00782953874731
C           -1.85875775530482       -0.07103237494791       -0.06847943285638
O           -3.04216398623712       -0.24203006955689       -0.04720395969150
N           -0.98227277828640       -1.23637454904784       -0.14618482333398
C           -1.56212276300628       -2.44072976913728       -0.24889834036296
H            3.71882770635733        1.19810354806680        1.02149464858559
H            3.99109380271823        1.06724142678933       -0.72558004837479
H            2.70686367584218        2.13187069679010       -0.09590669056744
H            3.52485737692400       -1.62118010818559       -0.06841969322635
H           -1.62216495875692        3.19875722967309        0.01427591858384
H           -2.85089413994358        2.24493832736570       -0.86369500923247
H           -2.81355046012904        2.20680825450484        0.90395629628249
H           -1.64252391066898       -4.89371893178361        1.48703228203991
H           -0.97246590135979       -3.33404628356614       -0.31651978130855
H           -2.63457962153423       -2.46991594244962       -0.25774466631487
H            1.32988563686244       -2.90363679000909       -0.15742196926671

          :  Hamiltonian                  GFN2-xTB          :
         :: total energy             -42.103556096697 Eh    ::
         :: gradient norm              0.003558673107 Eh/a0 ::
         :: HOMO-LUMO gap              0.290904788778 eV    ::
         :: SCC energy               -42.626892091631 Eh    ::
         :: -> dispersion             -0.022713760617 Eh    ::
         :: repulsion energy           0.523241507872 Eh    ::

    * Orbital Energies and Occupations

         #    Occupation            Energy/Eh            Energy/eV
      -------------------------------------------------------------
         1        2.0000           -0.9211369             -25.0654
       ...           ...                  ...                  ...
        25        2.0000           -0.6724941             -18.2995
        26        2.0000           -0.6724080             -18.2972
        27        2.0000           -0.6632312             -18.0474
        28        1.9999           -0.6390874             -17.3905
        29        1.9998           -0.6352579             -17.2862
        30        1.9998           -0.6314656             -17.1831
        31        1.9996           -0.6230239             -16.9533
        32        1.9985           -0.6020232             -16.3819
        33        1.9975           -0.5938512             -16.1595
        34        1.9966           -0.5890021             -16.0276
        35        1.9874           -0.5681966             -15.4614
        36        1.9859           -0.5664395             -15.4136
        37        1.1330           -0.4922807             -13.3956 (HOMO)
        38        0.7990           -0.4815901             -13.1047 (LUMO)
        39        0.0919           -0.4400106             -11.9733
        40        0.0094           -0.4032053             -10.9718
        41        0.0018           -0.3774031             -10.2697
        42        0.0000           -0.2926915              -7.9645
        43                         -0.2173964              -5.9157
        44                         -0.2048733              -5.5749
        45                         -0.1546375              -4.2079
        46                         -0.1390898              -3.7848
        47                         -0.0716289              -1.9491
        48                         -0.0436253              -1.1871
       ...                                ...                  ...
        67                          0.5539327              15.0733
      -------------------------------------------------------------
                  HL-Gap            0.0106906 Eh            0.2909 eV

     #   Z          covCN         q      C6AA      α(0)
     1   6 C        3.691    -0.097    22.546     6.795
     2   7 N        2.831     0.087    19.736     6.598
     3   6 C        3.052     0.055    26.710     8.476
     4   7 N        2.789    -0.055    22.303     7.014
     5   6 C        3.039     0.094    25.886     8.345
     6   6 C        3.113    -0.015    28.237     8.705
     7   6 C        2.763     0.268    22.482     7.765
     8   8 O        0.858    -0.362    20.934     6.134
     9   7 N        2.744    -0.077    22.743     7.083
    10   6 C        3.714    -0.065    21.880     6.683
    11   6 C        2.734     0.311    21.711     7.629
    12   8 O        0.859    -0.334    20.396     6.055
    13   7 N        2.735     0.010    21.083     6.820
    14   6 C        2.798    -0.053    29.298     8.867
    15   1 H        0.924     0.112     1.682     2.028
    16   1 H        0.925     0.108     1.714     2.047
    17   1 H        0.925     0.140     1.463     1.891
    18   1 H        0.926     0.130     1.537     1.939
    19   1 H        0.925     0.117     1.637     2.001
    20   1 H        0.925     0.100     1.786     2.090
    21   1 H        0.925     0.100     1.784     2.089
    22   1 H        0.000    -0.036     9.406     5.608
    23   1 H        0.926     0.095     1.835     2.118
    24   1 H        0.926     0.137     1.480     1.903
    25   1 H        0.860     0.232     0.958     1.533

Wiberg/Mayer (AO) data.
largest (>0.10) Wiberg bond orders for each atom

     #   Z sym  total        # sym  WBO       # sym  WBO       # sym  WBO
 ---------------------------------------------------------------------------
     1   6 C    3.911 --     2 N    0.984    16 H    0.962    17 H    0.959
                            15 H    0.954
     2   7 N    3.676 --     3 C    1.388     6 C    1.166     1 C    0.984
     3   6 C    3.847 --     2 N    1.388     4 N    1.290    18 H    0.951
     4   7 N    3.558 --     3 C    1.290     5 C    1.168    25 H    0.917
     5   6 C    3.888 --     6 C    1.342     4 N    1.168    13 N    1.162
     6   6 C    3.859 --     5 C    1.342     2 N    1.166     7 C    1.072
     7   6 C    3.917 --     8 O    1.678     9 N    1.082     6 C    1.072
     8   8 O    1.992 --     7 C    1.678     9 N    0.138
     9   7 N    3.569 --    11 C    1.171     7 C    1.082    10 C    0.962
                            12 O    0.151     8 O    0.138
    10   6 C    3.909 --    19 H    0.967    20 H    0.966    21 H    0.965
                             9 N    0.962
    11   6 C    3.925 --    12 O    1.732     9 N    1.171    13 N    0.929
    12   8 O    2.061 --    11 C    1.732     9 N    0.151
    13   7 N    3.624 --    14 C    1.308     5 C    1.162    11 C    0.929
    14   6 C    3.356 --    13 N    1.308    23 H    0.965    24 H    0.957
    15   1 H    0.984 --     1 C    0.954
    16   1 H    0.985 --     1 C    0.962
    17   1 H    0.980 --     1 C    0.959
    18   1 H    0.982 --     3 C    0.951
    19   1 H    0.985 --    10 C    0.967
    20   1 H    0.986 --    10 C    0.966
    21   1 H    0.986 --    10 C    0.965
    22   1 H    0.027
    23   1 H    0.990 --    14 C    0.965
    24   1 H    0.980 --    14 C    0.957
    25   1 H    0.946 --     4 N    0.917
 ---------------------------------------------------------------------------

molecular dipole:
                 x           y           z       tot (Debye)
 q only:        2.637      -1.453      -0.271
   full:        2.899      -2.047      -0.273       9.047

           -------------------------------------------------
          | TOTAL ENERGY              -42.103556096697 Eh   |
          | GRADIENT NORM               0.003558673107 Eh/α |
          | HOMO-LUMO GAP               0.290904788778 eV   |
           -------------------------------------------------

 * finished run on 2024/06/05 at 19:58:06.815
