   * xtb version 6.6.1 (8d0f1dd) compiled by 'conda@1efc2f54142f' on 2023-08-01
          program call               : xtb xtbopt.xyz --opt crude --input .xc2 --gfn2

   ID    Z sym.   atoms
    1    6 C      1, 3, 5-7, 10, 11, 14
    2    7 N      2, 4, 9, 13
    3    8 O      8, 12
    4    1 H      15-25
########################################################################
[WARNING] Please study the warnings concerning your input carefully
-1- readin_getIntValue: could not parse ''
########################################################################

          :  Hamiltonian                  GFN2-xTB          :
 * total energy  :   -40.4268727 Eh     change       -0.3552714E-13 Eh
 * total energy  :   -42.1305252 Eh     change       -0.1703653E+01 Eh
 * total energy  :   -42.1526146 Eh     change       -0.2208941E-01 Eh
 * total energy  :   -42.1573133 Eh     change       -0.4698683E-02 Eh
 * total energy  :   -42.1580354 Eh     change       -0.7221231E-03 Eh
 * total energy  :   -42.1585962 Eh     change       -0.5607273E-03 Eh
 * total energy  :   -42.1591078 Eh     change       -0.5116759E-03 Eh
 * total energy  :   -42.1594946 Eh     change       -0.3867724E-03 Eh
 * total energy  :   -42.1597195 Eh     change       -0.2249026E-03 Eh
   *** GEOMETRY OPTIMIZATION CONVERGED AFTER 9 ITERATIONS ***

 final structure:
================
25
 xtb: 6.6.1 (8d0f1dd)
C            2.86904552286671        0.73266550918271        0.44652902746122
N            1.84376343115973       -0.21624458996636        0.06957607586054
C            2.13571668240392       -1.39184852580086       -0.43328750266522
N            1.18218854309037       -2.26562608692987       -0.86639001294098
C           -0.18902423205779       -2.10064827883191       -0.53587599423664
C            0.52562920375943        0.16266194605885        0.28409209893335
C           -0.03839842520412        1.45146066913998        0.13141311755124
O            0.45128901812036        2.55410875491055        0.16381650958492
N           -1.44740931434374        1.22496693386220       -0.07191357694442
C           -2.37784315616553        2.32245404646716       -0.22602564187015
C           -1.78074173217873       -0.05262657220960       -0.18270336222234
O           -2.78564657835121       -0.64745698181161       -0.40748916400251
N           -0.49253904821546       -0.82611436969661        0.08955895259523
C           -0.59825983623974       -2.04671861800032        0.88885462492634
H            3.11208216588495        0.62404123686309        1.50543323701096
H            3.76548048852495        0.57340848807182       -0.14834050190525
H            2.49099979617810        1.74355645810500        0.28553479216403
H            3.16631463133036       -1.67120138381592       -0.57017492772890
H           -1.80383225697485        3.19677790940924       -0.53020663243832
H           -3.12383093881593        2.06960578353839       -0.97641525995820
H           -2.87231831881561        2.53160914302538        0.72311586775565
H            0.14687034969767       -2.18123143172730        1.66207848655302
H           -0.88520096863692       -2.46041997805563       -1.28087376240765
H           -1.61175159134433       -2.32112288637065        1.16045724400838
H            1.47784807842747       -3.18781863381984       -1.14959207718489

          :  Hamiltonian                  GFN2-xTB          :
         :: total energy             -42.159719521820 Eh    ::
         :: gradient norm              0.007723124636 Eh/a0 ::
         :: HOMO-LUMO gap              2.417727373232 eV    ::
         :: SCC energy               -42.668672687812 Eh    ::
         :: -> dispersion             -0.023293023999 Eh    ::
         :: repulsion energy           0.508763787503 Eh    ::

    * Orbital Energies and Occupations

         #    Occupation            Energy/Eh            Energy/eV
      -------------------------------------------------------------
         1        2.0000           -0.9185559             -24.9952
       ...           ...                  ...                  ...
        25        2.0000           -0.6755947             -18.3839
        26        2.0000           -0.6720878             -18.2884
        27        2.0000           -0.6646823             -18.0869
        28        2.0000           -0.6553811             -17.8338
        29        2.0000           -0.6396730             -17.4064
        30        1.9999           -0.6358265             -17.3017
        31        1.9999           -0.6325876             -17.2136
        32        1.9998           -0.6123524             -16.6630
        33        1.9996           -0.6057546             -16.4834
        34        1.9993           -0.5946827             -16.1821
        35        1.9959           -0.5670101             -15.4291
        36        1.9915           -0.5553471             -15.1118
        37        1.8778           -0.5123020             -13.9404 (HOMO)
        38        0.1064           -0.4234521             -11.5227 (LUMO)
        39        0.0297           -0.4026282             -10.9561
        40        0.0002           -0.3220852              -8.7644
        41        0.0000           -0.2826861              -7.6923
        42        0.0000           -0.2613660              -7.1121
        43        0.0000           -0.2040292              -5.5519
        44                         -0.1808278              -4.9206
        45                         -0.1656579              -4.5078
        46                         -0.1320576              -3.5935
        47                         -0.0873499              -2.3769
        48                         -0.0699125              -1.9024
       ...                                ...                  ...
        67                          0.6047256              16.4554
      -------------------------------------------------------------
                  HL-Gap            0.0888498 Eh            2.4177 eV

     #   Z          covCN         q      C6AA      α(0)
     1   6 C        3.708    -0.094    22.444     6.771
     2   7 N        2.735     0.063    20.141     6.665
     3   6 C        2.802     0.054    26.776     8.477
     4   7 N        2.687    -0.133    23.880     7.258
     5   6 C        3.734     0.096    19.082     6.235
     6   6 C        2.910    -0.055    29.370     8.886
     7   6 C        2.808     0.251    22.785     7.820
     8   8 O        0.857    -0.380    21.290     6.186
     9   7 N        2.780    -0.081    22.817     7.094
    10   6 C        3.693    -0.058    21.806     6.682
    11   6 C        2.746     0.305    21.826     7.650
    12   8 O        0.857    -0.341    20.540     6.076
    13   7 N        3.663     0.062    20.148     6.667
    14   6 C        3.739    -0.033    21.248     6.577
    15   1 H        0.924     0.104     1.751     2.069
    16   1 H        0.925     0.097     1.811     2.105
    17   1 H        0.924     0.136     1.492     1.910
    18   1 H        0.926     0.109     1.705     2.042
    19   1 H        0.925     0.116     1.650     2.009
    20   1 H        0.925     0.095     1.827     2.114
    21   1 H        0.924     0.095     1.828     2.114
    22   1 H        0.925     0.115     1.655     2.012
    23   1 H        0.925     0.124     1.579     1.965
    24   1 H        0.925     0.132     1.520     1.928
    25   1 H        0.860     0.221     1.003     1.569

Wiberg/Mayer (AO) data.
largest (>0.10) Wiberg bond orders for each atom

     #   Z sym  total        # sym  WBO       # sym  WBO       # sym  WBO
 ---------------------------------------------------------------------------
     1   6 C    3.916 --     2 N    0.975    16 H    0.974    15 H    0.958
                            17 H    0.952
     2   7 N    3.651 --     3 C    1.424     6 C    1.083     1 C    0.975
                             4 N    0.102
     3   6 C    3.829 --     2 N    1.424     4 N    1.207    18 H    0.949
     4   7 N    3.384 --     3 C    1.207     5 C    1.027    25 H    0.922
                             2 N    0.102
     5   6 C    3.895 --     4 N    1.027    14 C    0.959    23 H    0.946
                            13 N    0.891
     6   6 C    3.622 --     7 C    1.215     2 N    1.083    13 N    0.949
                             8 O    0.139
     7   6 C    3.939 --     8 O    1.659     6 C    1.215     9 N    0.954
     8   8 O    2.024 --     7 C    1.659     6 C    0.139
     9   7 N    3.570 --    11 C    1.291    10 C    0.967     7 C    0.954
                            12 O    0.195
    10   6 C    3.919 --    20 H    0.972     9 N    0.967    19 H    0.967
                            21 H    0.964
    11   6 C    3.929 --    12 O    1.743     9 N    1.291    13 N    0.791
    12   8 O    2.126 --    11 C    1.743     9 N    0.195
    13   7 N    3.710 --     6 C    0.949     5 C    0.891    14 C    0.882
                            11 C    0.791
    14   6 C    3.869 --    22 H    0.964     5 C    0.959    24 H    0.958
                            13 N    0.882
    15   1 H    0.985 --     1 C    0.958
    16   1 H    0.990 --     1 C    0.974
    17   1 H    0.980 --     1 C    0.952
    18   1 H    0.987 --     3 C    0.949
    19   1 H    0.985 --    10 C    0.967
    20   1 H    0.990 --    10 C    0.972
    21   1 H    0.988 --    10 C    0.964
    22   1 H    0.986 --    14 C    0.964
    23   1 H    0.984 --     5 C    0.946
    24   1 H    0.981 --    14 C    0.958
    25   1 H    0.949 --     4 N    0.922
 ---------------------------------------------------------------------------

molecular dipole:
                 x           y           z       tot (Debye)
 q only:        1.592      -2.403      -0.001
   full:        1.655      -2.822      -0.051       8.317

           -------------------------------------------------
          | TOTAL ENERGY              -42.159719521820 Eh   |
          | GRADIENT NORM               0.007723124636 Eh/α |
          | HOMO-LUMO GAP               2.417727373232 eV   |
           -------------------------------------------------

 * finished run on 2024/06/05 at 20:00:19.023
