   * xtb version 6.6.1 (8d0f1dd) compiled by 'conda@1efc2f54142f' on 2023-08-01
          program call               : xtb xtbopt.xyz --opt crude --input .xc2 --gfn2

   ID    Z sym.   atoms
    1    6 C      1, 3, 5-7, 10, 11, 14
    2    7 N      2, 4, 9, 13
    3    8 O      8, 12
    4    1 H      15-25
########################################################################
[WARNING] Please study the warnings concerning your input carefully
-1- readin_getIntValue: could not parse ''
########################################################################

          :  Hamiltonian                  GFN2-xTB          :
 * total energy  :   -41.9929923 Eh     change       -0.1428191E-11 Eh
   *** GEOMETRY OPTIMIZATION CONVERGED AFTER 1 ITERATIONS ***

 final structure:
================
25
 xtb: 6.6.1 (8d0f1dd)
C            3.04582047839404        1.63451249216002       -0.17389083557707
N            2.37373589187131        0.43091723561173       -0.46027031312113
C            1.70063938545416       -2.66026852959914        1.54554002158997
N            0.63804053867220       -2.09541113787584        1.11828336227210
C            0.43789328855017       -1.03706159015652        0.14960885062929
C            1.38892595137805       -0.16604294314389       -0.13602770698672
C           -0.76030598893936        2.20400096740940       -0.95777714093549
O           -0.39433130166545        2.95186488912176       -1.74653618968572
N           -1.08641635625473        1.28022740907067       -0.18292374743970
C           -1.45127513819790        1.45580794560226        1.22642839074069
C           -1.60865928172906       -0.07007183363728       -0.79927544804676
O           -2.62717819428157       -0.01965238495142       -1.40316905235166
N           -0.81205480120440       -1.08961350224535       -0.52357943136198
C           -1.22286847641387       -2.39564534322573       -1.04672990130897
H            2.55894941295119        2.24488433750625        0.59004252804580
H            4.05461577241174        1.37318647410927        0.14880965787374
H            3.13902955418041        2.19457767442042       -1.10533080245652
H            2.64611108264377       -2.29644386911349        1.13907453681835
H           -1.17856058030013        2.45226751443267        1.56430398532183
H           -2.52684673671802        1.31758983569041        1.33921884762717
H           -0.92009218461628        0.71231994878425        1.81793627095674
H           -1.76769408050355       -2.96668436363606       -0.29380981302668
H           -0.34016403449157       -2.95012904632427       -1.35948919892404
H           -1.87792192081734       -2.24462340596645       -1.90246266890596
H           -0.24896076623283       -2.44227023244784        1.48319741618824

          :  Hamiltonian                  GFN2-xTB          :
         :: total energy             -41.992992316186 Eh    ::
         :: gradient norm              0.004955417522 Eh/a0 ::
         :: HOMO-LUMO gap              0.880035831186 eV    ::
         :: SCC energy               -42.590810501968 Eh    ::
         :: -> dispersion             -0.021873939330 Eh    ::
         :: repulsion energy           0.597494108539 Eh    ::

    * Orbital Energies and Occupations

         #    Occupation            Energy/Eh            Energy/eV
      -------------------------------------------------------------
         1        2.0000           -0.9549787             -25.9863
       ...           ...                  ...                  ...
        25        2.0000           -0.6819561             -18.5570
        26        2.0000           -0.6694788             -18.2174
        27        2.0000           -0.6660744             -18.1248
        28        2.0000           -0.6547739             -17.8173
        29        2.0000           -0.6335867             -17.2408
        30        2.0000           -0.6295048             -17.1297
        31        2.0000           -0.6238585             -16.9761
        32        2.0000           -0.6161663             -16.7667
        33        2.0000           -0.6104422             -16.6110
        34        2.0000           -0.6051296             -16.4664
        35        2.0000           -0.5903495             -16.0642
        36        1.9941           -0.5230551             -14.2331
        37        1.7728           -0.4932323             -13.4215 (HOMO)
        38        0.2321           -0.4608916             -12.5415 (LUMO)
        39        0.0006           -0.4124706             -11.2239
        40        0.0002           -0.4042094             -10.9991
        41        0.0001           -0.3994472             -10.8695
        42        0.0000           -0.3898677             -10.6088
        43                         -0.3257188              -8.8633
        44                         -0.2705108              -7.3610
        45                         -0.1903390              -5.1794
        46                         -0.1309989              -3.5647
        47                         -0.1005092              -2.7350
        48                         -0.0661151              -1.7991
       ...                                ...                  ...
        67                          0.9763237              26.5671
      -------------------------------------------------------------
                  HL-Gap            0.0323407 Eh            0.8800 eV

     #   Z          covCN         q      C6AA      α(0)
     1   6 C        3.691    -0.051    21.677     6.663
     2   7 N        1.821    -0.056    23.056     7.115
     3   6 C        1.840    -0.113    34.300     9.461
     4   7 N        2.684    -0.021    21.658     6.912
     5   6 C        2.818     0.027    27.378     8.573
     6   6 C        1.909     0.062    29.524     8.775
     7   6 C        1.791     0.325    23.944     7.909
     8   8 O        0.856    -0.103    16.555     5.455
     9   7 N        2.711    -0.061    22.433     7.034
    10   6 C        3.697    -0.061    21.850     6.686
    11   6 C        2.702     0.316    21.632     7.613
    12   8 O        0.857    -0.315    20.052     6.004
    13   7 N        2.735    -0.047    22.146     6.989
    14   6 C        3.712    -0.068    21.931     6.692
    15   1 H        0.924     0.064     2.151     2.293
    16   1 H        0.924     0.116     1.650     2.008
    17   1 H        0.924     0.107     1.724     2.054
    18   1 H        0.924     0.064     2.150     2.293
    19   1 H        0.925     0.103     1.761     2.075
    20   1 H        0.924     0.114     1.664     2.017
    21   1 H        0.925     0.099     1.793     2.094
    22   1 H        0.924     0.088     1.901     2.156
    23   1 H        0.925     0.095     1.828     2.114
    24   1 H        0.925     0.107     1.724     2.053
    25   1 H        0.860     0.208     1.064     1.616

Wiberg/Mayer (AO) data.
largest (>0.10) Wiberg bond orders for each atom

     #   Z sym  total        # sym  WBO       # sym  WBO       # sym  WBO
 ---------------------------------------------------------------------------
     1   6 C    3.950 --     2 N    1.026    15 H    0.969    17 H    0.946
                            16 H    0.942
     2   7 N    3.469 --     6 C    2.132     1 C    1.026     5 C    0.166
     3   6 C    2.854 --     4 N    1.704    18 H    0.946
     4   7 N    3.645 --     3 C    1.704     5 C    0.955    25 H    0.913
     5   6 C    3.839 --     6 C    1.573    13 N    0.983     4 N    0.955
                             2 N    0.166
     6   6 C    3.954 --     2 N    2.132     5 C    1.573
     7   6 C    3.738 --     8 O    2.080     9 N    1.566
     8   8 O    2.397 --     7 C    2.080     9 N    0.233
     9   7 N    3.544 --     7 C    1.566    10 C    0.925    11 C    0.700
                             8 O    0.233
    10   6 C    3.891 --    19 H    0.975    21 H    0.970    20 H    0.965
                             9 N    0.925
    11   6 C    3.918 --    12 O    1.779    13 N    1.311     9 N    0.700
    12   8 O    2.185 --    11 C    1.779    13 N    0.208
    13   7 N    3.553 --    11 C    1.311     5 C    0.983    14 C    0.951
                            12 O    0.208
    14   6 C    3.922 --    23 H    0.974    22 H    0.970    24 H    0.970
                            13 N    0.951
    15   1 H    0.994 --     1 C    0.969
    16   1 H    0.985 --     1 C    0.942
    17   1 H    0.986 --     1 C    0.946
    18   1 H    0.971 --     3 C    0.946
    19   1 H    0.989 --    10 C    0.975
    20   1 H    0.987 --    10 C    0.965
    21   1 H    0.990 --    10 C    0.970
    22   1 H    0.992 --    14 C    0.970
    23   1 H    0.990 --    14 C    0.974
    24   1 H    0.988 --    14 C    0.970
    25   1 H    0.949 --     4 N    0.913
 ---------------------------------------------------------------------------

molecular dipole:
                 x           y           z       tot (Debye)
 q only:        0.362       0.399       0.710
   full:        0.224       0.814       0.633       2.683

           -------------------------------------------------
          | TOTAL ENERGY              -41.992992316186 Eh   |
          | GRADIENT NORM               0.004955417522 Eh/α |
          | HOMO-LUMO GAP               0.880035831186 eV   |
           -------------------------------------------------

 * finished run on 2024/06/05 at 19:57:57.110
