   * xtb version 6.6.1 (8d0f1dd) compiled by 'conda@1efc2f54142f' on 2023-08-01
          program call               : xtb struc.xyz --opt loose --input .xc1 --gfn2

   ID    Z sym.   atoms
    1    6 C      1, 3, 5-7, 10, 11, 14
    2    7 N      2, 4, 9, 13
    3    8 O      8, 12
    4    1 H      15-25
constraining bond 8 9 to    4.6800000 Å, actual value:    2.2895399 Å

          :  Hamiltonian                  GFN2-xTB          :
 * total energy  :   -32.0447932 Eh     change       -0.6650680E-10 Eh
 * total energy  :   -35.8705630 Eh     change       -0.3825770E+01 Eh
 * total energy  :   -38.7749124 Eh     change       -0.2904349E+01 Eh
 * total energy  :   -40.6130561 Eh     change       -0.1838144E+01 Eh
 * total energy  :   -41.5021355 Eh     change       -0.8890794E+00 Eh
 * total energy  :   -41.6736164 Eh     change       -0.1714809E+00 Eh
 * total energy  :   -41.6859457 Eh     change       -0.1232929E-01 Eh
 * total energy  :   -41.7095693 Eh     change       -0.2362356E-01 Eh
 * total energy  :   -41.7272652 Eh     change       -0.1769598E-01 Eh
 * total energy  :   -41.7423482 Eh     change       -0.1508296E-01 Eh
 * total energy  :   -42.2105580 Eh     change       -0.1296520E-03 Eh
 * total energy  :   -42.2106260 Eh     change       -0.6801122E-04 Eh
 * total energy  :   -42.2107503 Eh     change       -0.1243730E-03 Eh
 * total energy  :   -42.2108131 Eh     change       -0.6270870E-04 Eh
 * total energy  :   -42.2109026 Eh     change       -0.8953060E-04 Eh
 * total energy  :   -42.2109483 Eh     change       -0.4567774E-04 Eh
 * total energy  :   -42.2110021 Eh     change       -0.5385513E-04 Eh
 * total energy  :   -42.2110076 Eh     change       -0.5477025E-05 Eh
 * total energy  :   -42.2110371 Eh     change       -0.2955229E-04 Eh
   *** GEOMETRY OPTIMIZATION CONVERGED AFTER 90 ITERATIONS ***

 final structure:
================
25
 xtb: 6.6.1 (8d0f1dd)
C            3.70648103638237        0.81012074553074       -0.37430953268054
N            2.60950415066509       -0.09513967146560       -0.18341718654819
C            2.66290519371480       -1.41283224839889       -0.05275549744760
N            1.40855126149731       -1.91066407180487        0.09372040362440
C            0.53065418410308       -0.86824221847735        0.04979164395390
C            1.28736528998297        0.28411235880076       -0.12349677429558
C            0.68164067176845        1.60092384798856       -0.17412380693385
O            1.27376108301216        2.64102080819485       -0.28108075174698
N           -2.74686770843409        0.30398521196258        0.13896907448057
C           -3.60523884463914        1.44235559250709        0.10090753476774
C           -1.48782984038673        0.34852592697810        0.06784717220876
O           -0.71071063834339        1.49221674975564       -0.07107644857762
N           -0.80784781312500       -0.88348101873199        0.14037603536126
C           -1.54467463456246       -2.11297208238415        0.35023255550020
H            3.70938021275015        1.56051462277114        0.41774360112398
H            4.64611534938957        0.26306796167225       -0.37086344534551
H            3.58940885496757        1.33869638370376       -1.32145643796164
H            3.55573883915095       -2.00751081695038       -0.06102812009838
H           -3.07775949020486        2.39056844759672        0.22796676949473
H           -4.12980428397453        1.44466797313437       -0.85674607877336
H           -4.34872133005579        1.31622993195561        0.88882144284300
H           -1.38784662234183       -2.48466561071590        1.36533925021974
H           -1.23507314820177       -2.86612999118310       -0.37504041349358
H           -2.60075097896490       -1.89078044274153        0.21326955451287
H            1.18205071994929       -2.88634984809822        0.22158107371201

          :  Hamiltonian                  GFN2-xTB          :
         :: total energy             -42.211037149599 Eh    ::
         :: gradient norm              0.002586850897 Eh/a0 ::
         :: HOMO-LUMO gap              2.515624201563 eV    ::
         :: SCC energy               -42.727637444111 Eh    ::
         :: -> dispersion             -0.021796931217 Eh    ::
         :: repulsion energy           0.516364650377 Eh    ::

    * Orbital Energies and Occupations

         #    Occupation            Energy/Eh            Energy/eV
      -------------------------------------------------------------
         1        2.0000           -0.9121533             -24.8210
       ...           ...                  ...                  ...
        25        2.0000           -0.6612201             -17.9927
        26        2.0000           -0.6546848             -17.8149
        27        2.0000           -0.6453645             -17.5613
        28        1.9999           -0.6381655             -17.3654
        29        1.9998           -0.6266466             -17.0519
        30        1.9998           -0.6239704             -16.9791
        31        1.9998           -0.6195739             -16.8595
        32        1.9997           -0.6151303             -16.7385
        33        1.9993           -0.6036638             -16.4265
        34        1.9959           -0.5749918             -15.6463
        35        1.9949           -0.5713757             -15.5479
        36        1.9414           -0.5322775             -14.4840
        37        1.9176           -0.5267056             -14.3324 (HOMO)
        38        0.1270           -0.4342581             -11.8168 (LUMO)
        39        0.0227           -0.4061302             -11.0514
        40        0.0022           -0.3689453             -10.0395
        41        0.0000           -0.2950538              -8.0288
        42                         -0.2019211              -5.4946
        43                         -0.2006938              -5.4612
        44                         -0.1609074              -4.3785
        45                         -0.1479170              -4.0250
        46                         -0.0896158              -2.4386
        47                         -0.0596273              -1.6225
        48                         -0.0432623              -1.1772
       ...                                ...                  ...
        67                          0.5341104              14.5339
      -------------------------------------------------------------
                  HL-Gap            0.0924475 Eh            2.5156 eV

     #   Z          covCN         q      C6AA      α(0)
     1   6 C        3.692    -0.089    22.392     6.771
     2   7 N        2.829     0.082    19.815     6.611
     3   6 C        3.049     0.050    26.840     8.497
     4   7 N        2.796    -0.065    22.501     7.045
     5   6 C        3.037     0.123    25.268     8.245
     6   6 C        3.111    -0.032    28.640     8.767
     7   6 C        2.694     0.351    21.037     7.507
     8   8 O        0.857    -0.320    20.140     6.017
     9   7 N        1.835    -0.213    26.478     7.626
    10   6 C        3.702    -0.039    21.432     6.620
    11   6 C        2.729     0.273    22.386     7.746
    12   8 O        1.705    -0.257    18.264     5.770
    13   7 N        2.749    -0.040    22.014     6.968
    14   6 C        3.696    -0.084    22.277     6.752
    15   1 H        0.924     0.124     1.580     1.966
    16   1 H        0.925     0.103     1.760     2.075
    17   1 H        0.924     0.122     1.599     1.977
    18   1 H        0.926     0.124     1.584     1.968
    19   1 H        0.924     0.071     2.079     2.255
    20   1 H        0.924     0.094     1.845     2.124
    21   1 H        0.924     0.095     1.835     2.119
    22   1 H        0.924     0.089     1.889     2.149
    23   1 H        0.924     0.084     1.939     2.178
    24   1 H        0.925     0.128     1.551     1.948
    25   1 H        0.860     0.228     0.972     1.544

Wiberg/Mayer (AO) data.
largest (>0.10) Wiberg bond orders for each atom

     #   Z sym  total        # sym  WBO       # sym  WBO       # sym  WBO
 ---------------------------------------------------------------------------
     1   6 C    3.921 --     2 N    0.991    16 H    0.975    15 H    0.953
                            17 H    0.953
     2   7 N    3.672 --     3 C    1.396     6 C    1.151     1 C    0.991
     3   6 C    3.837 --     2 N    1.396     4 N    1.254    18 H    0.952
     4   7 N    3.577 --     3 C    1.254     5 C    1.191    25 H    0.919
     5   6 C    3.940 --     6 C    1.337    13 N    1.227     4 N    1.191
     6   6 C    3.895 --     5 C    1.337     2 N    1.151     7 C    1.071
     7   6 C    3.901 --     8 O    1.766     6 C    1.071    12 O    0.990
     8   8 O    2.084 --     7 C    1.766    12 O    0.138
     9   7 N    3.046 --    11 C    1.731    10 C    1.032    12 O    0.111
    10   6 C    3.933 --     9 N    1.032    19 H    0.961    21 H    0.953
                            20 H    0.944
    11   6 C    3.912 --     9 N    1.731    13 N    1.045    12 O    1.004
    12   8 O    2.335 --    11 C    1.004     7 C    0.990     8 O    0.138
                             9 N    0.111
    13   7 N    3.545 --     5 C    1.227    11 C    1.045    14 C    0.975
    14   6 C    3.923 --    13 N    0.975    23 H    0.972    22 H    0.968
                            24 H    0.962
    15   1 H    0.982 --     1 C    0.953
    16   1 H    0.989 --     1 C    0.975
    17   1 H    0.982 --     1 C    0.953
    18   1 H    0.984 --     3 C    0.952
    19   1 H    0.974 --    10 C    0.961
    20   1 H    0.978 --    10 C    0.944
    21   1 H    0.977 --    10 C    0.953
    22   1 H    0.988 --    14 C    0.968
    23   1 H    0.990 --    14 C    0.972
    24   1 H    0.983 --    14 C    0.962
    25   1 H    0.947 --     4 N    0.919
 ---------------------------------------------------------------------------

molecular dipole:
                 x           y           z       tot (Debye)
 q only:        1.807      -2.684       0.094
   full:        2.057      -2.933       0.108       9.110

           -------------------------------------------------
          | TOTAL ENERGY              -42.211037149599 Eh   |
          | GRADIENT NORM               0.002586850897 Eh/α |
          | HOMO-LUMO GAP               2.515624201563 eV   |
           -------------------------------------------------

 * finished run on 2024/06/05 at 19:58:00.324
