   * xtb version 6.6.1 (8d0f1dd) compiled by 'conda@1efc2f54142f' on 2023-08-01
          program call               : xtb struc.xyz --opt loose --input .xc1 --gfn2

   ID    Z sym.   atoms
    1    7 N      1, 17
    2    6 C      2-6, 8, 9, 11-16, 18-23, 25, 26, 28-33
    3    8 O      7, 10, 24, 27
    4    1 H      34-72
constraining bond 23 56 to    5.1400000 Å, actual value:    2.7036277 Å

          :  Hamiltonian                  GFN2-xTB          :
 * total energy  :   -98.3442551 Eh     change       -0.4035485E-08 Eh
 * total energy  :   -98.6917347 Eh     change       -0.3474796E+00 Eh
 * total energy  :   -98.9222370 Eh     change       -0.2305023E+00 Eh
 * total energy  :   -99.0486157 Eh     change       -0.1263787E+00 Eh
 * total energy  :   -99.1182364 Eh     change       -0.6962078E-01 Eh
 * total energy  :   -99.1641786 Eh     change       -0.4594215E-01 Eh
 * total energy  :   -99.2052787 Eh     change       -0.4110011E-01 Eh
 * total energy  :   -99.2388693 Eh     change       -0.3359058E-01 Eh
 * total energy  :   -99.2531849 Eh     change       -0.1431561E-01 Eh
 * total energy  :   -99.2598481 Eh     change       -0.6663158E-02 Eh
 * total energy  :   -99.2680446 Eh     change       -0.1185624E-03 Eh
 * total energy  :   -99.2681509 Eh     change       -0.1062447E-03 Eh
 * total energy  :   -99.2682560 Eh     change       -0.1051404E-03 Eh
 * total energy  :   -99.2683966 Eh     change       -0.1406008E-03 Eh
 * total energy  :   -99.2685332 Eh     change       -0.1365636E-03 Eh
 * total energy  :   -99.2686047 Eh     change       -0.7152977E-04 Eh
 * total energy  :   -99.2687055 Eh     change       -0.1007408E-03 Eh
 * total energy  :   -99.2687631 Eh     change       -0.5765466E-04 Eh
 * total energy  :   -99.2688013 Eh     change       -0.3821316E-04 Eh
   *** GEOMETRY OPTIMIZATION CONVERGED AFTER 27 ITERATIONS ***

 final structure:
================
72
 xtb: 6.6.1 (8d0f1dd)
N           -1.91342553446003        2.82559366039523        2.23059626142107
C           -1.86048645420203        2.13599769754486        1.19065311664773
C           -3.00983522910908        1.92377224713643        0.24457234150174
C           -3.48274391292220        0.48044236112388        0.33416800093657
C           -4.42703898579442        0.00610565313426       -0.57873180154088
C           -4.90127740485184       -1.29340800392844       -0.52117887979405
O           -5.82189828553804       -1.82390624340560       -1.35258084817588
C           -6.45272823306273       -0.99466213331921       -2.29997129133280
C           -4.40572366420588       -2.17564014703612        0.47667754106371
O           -4.91148840057733       -3.42519487139912        0.44817663237475
C           -4.52384929831883       -4.34462611981357        1.44194561214130
C           -3.47065367993090       -1.69841639937907        1.38069099427799
C           -3.01907822599437       -0.38575281599435        1.31169162977242
C           -2.45489272500530        2.20887234099159       -1.17601941829428
C           -1.53180732280308        1.10991926518228       -1.73470753314254
C           -0.19585054429096        1.08064752874271       -1.09929396324789
N            0.44911105751114       -0.01391553236053       -0.70445008513551
C            1.82618351433589        0.06218074850739       -0.27898871537607
C            2.79955844445427       -0.40997443010825       -1.37788469541788
C            4.21705849453714       -0.19983249710496       -0.92689662318546
C            4.84096297648385        1.02536248765034       -1.12945038385022
C            6.13167554701076        1.24403743073587       -0.68984698947160
C            6.82740614484379        0.23253263373632       -0.03011129017068
O            8.09655604942420        0.32444368215430        0.43344387355826
C            8.81627252528712        1.41052664249433        0.46730230021288
C            6.20504790735633       -1.02903575139543        0.17760705273672
O            6.95714828416971       -1.94225644907065        0.81664510779614
C            6.43324688073601       -3.22941100822269        1.05472158907902
C            4.90540191488968       -1.21665046764783       -0.26956294307540
C           -0.16602582111128       -1.31911220325727       -0.73904393737637
C           -4.22340110526206        2.85648463208776        0.53550969139211
C           -4.86792310889047        2.53295464836673        1.88127990647546
C           -3.86800151067910        4.33950150654423        0.47657223949239
H           -4.80791844983329        0.66974198621667       -1.33691245020909
H           -6.96177417765979       -0.15338454124695       -1.81999927520637
H           -7.18840519136685       -1.62507414171693       -2.79539696023654
H           -5.74230604560664       -0.61840746883524       -3.04331653773624
H           -4.77720369259923       -3.98426796852899        2.44330737033319
H           -5.08480968616291       -5.25343766324842        1.23314624577839
H           -3.45183639842518       -4.56162999825869        1.39172128014805
H           -3.09253077316812       -2.33854081182578        2.16131252093259
H           -2.31570220818130       -0.04230129169519        2.05447946611246
H           -3.29317102203426        2.32519657962003       -1.86191980974891
H           -1.91119098812449        3.15420079923871       -1.15777173658521
H           -2.03073737552196        0.14472566694937       -1.66949419129672
H           -1.38344717097118        1.33739834984049       -2.79854982088482
H           -0.94027694242577        1.63524798666028        0.82969720229478
H            0.36597863182866        2.00302068385909       -1.08134439374730
H            1.96052525876595       -0.55501211407830        0.61373021754807
H            2.06586409486411        1.09527297606731       -0.01896315282924
H            2.61087910278909        0.16798749835389       -2.28411779352750
H            2.62312019703461       -1.46340995659841       -1.59709384469481
H            4.32143748864189        1.81457277665158       -1.65063112843087
H            6.59985213161011        2.19589087497934       -0.87940908889269
H            8.46754550498962        2.37030950169147        0.12754534537764
H           11.15044411328409        2.93371035124321       -0.64175449144325
H            9.81388858965800        1.28268972456710        0.84274100565104
H            7.22696036180195       -3.77629664417625        1.55953252203930
H            5.55306370527321       -3.18895112307241        1.70339915564239
H            6.18077601630863       -3.73792040848677        0.11998922767820
H            4.42095291143180       -2.16857808113371       -0.12208561130768
H           -0.32211907106138       -1.65620278407282       -1.76622040338006
H           -1.13036109027526       -1.30015604924471       -0.22511949846743
H            0.47996938982235       -2.03308490446020       -0.23445940208445
H           -4.96328925680524        2.65633013282005       -0.24775575959468
H           -4.16980190892999        2.73611500762276        2.68677864691955
H           -5.17166961351315        1.49014554321112        1.93145835770510
H           -5.74931589327019        3.15333292904400        2.02099566845940
H           -3.11388008449511        4.57762531947843        1.22037344315807
H           -3.50858392265603        4.63251707896101       -0.50642400893246
H           -4.75594363814652        4.92718432518364        0.69454707472651
H           -1.06596759389441        2.91999928783663        2.78171495903751

          :  Hamiltonian                  GFN2-xTB          :
         :: total energy             -99.268801333058 Eh    ::
         :: gradient norm              0.001818368711 Eh/a0 ::
         :: HOMO-LUMO gap              0.452902781776 eV    ::
         :: SCC energy              -100.643442239798 Eh    ::
         :: -> dispersion             -0.075127818253 Eh    ::
         :: repulsion energy           1.373409772068 Eh    ::

    * Orbital Energies and Occupations

         #    Occupation            Energy/Eh            Energy/eV
      -------------------------------------------------------------
         1        2.0000           -0.8469239             -23.0460
       ...           ...                  ...                  ...
        78        1.9988           -0.5336365             -14.5210
        79        1.9984           -0.5282083             -14.3733
        80        1.9983           -0.5275906             -14.3565
        81        1.9976           -0.5224069             -14.2154
        82        1.9961           -0.5145693             -14.0021
        83        1.9955           -0.5122261             -13.9384
        84        1.9951           -0.5108454             -13.9008
        85        1.9945           -0.5090787             -13.8527
        86        1.9818           -0.4899998             -13.3336
        87        1.9769           -0.4861600             -13.2291
        88        1.9408           -0.4709685             -12.8157
        89        1.8783           -0.4590526             -12.4915
        90        1.1619           -0.4208893             -11.4530 (HOMO)
        91        0.6528           -0.4042455             -11.0001 (LUMO)
        92        0.4061           -0.3940694             -10.7232
        93        0.0154           -0.3387876              -9.2189
        94        0.0064           -0.3247860              -8.8379
        95        0.0048           -0.3202231              -8.7137
        96        0.0037           -0.3161055              -8.6017
        97        0.0030           -0.3130418              -8.5183
        98        0.0000           -0.2014378              -5.4814
        99        0.0000           -0.1903670              -5.1801
       100                         -0.1383323              -3.7642
       101                         -0.0730363              -1.9874
       ...                                ...                  ...
       171                          0.5730946              15.5947
      -------------------------------------------------------------
                  HL-Gap            0.0166439 Eh            0.4529 eV

     #   Z          covCN         q      C6AA      α(0)
     1   7 N        1.774    -0.269    27.799     7.808
     2   6 C        2.826     0.101    25.749     8.315
     3   6 C        3.907     0.006    20.414     6.422
     4   6 C        2.974     0.002    27.966     8.674
     5   6 C        2.921    -0.080    29.999     8.982
     6   6 C        2.862     0.129    25.165     8.223
     7   8 O        1.706    -0.231    17.823     5.700
     8   6 C        3.645     0.028    20.445     6.499
     9   6 C        2.864     0.128    25.192     8.227
    10   8 O        1.706    -0.229    17.804     5.697
    11   6 C        3.645     0.027    20.450     6.499
    12   6 C        2.914    -0.075    29.876     8.963
    13   6 C        2.921    -0.054    29.336     8.882
    14   6 C        3.812    -0.065    21.733     6.636
    15   6 C        3.802    -0.069    21.816     6.650
    16   6 C        2.843     0.005    27.908     8.658
    17   7 N        2.729     0.007    21.130     6.827
    18   6 C        3.755    -0.016    20.911     6.520
    19   6 C        3.808    -0.072    21.871     6.657
    20   6 C        2.969     0.006    27.877     8.661
    21   6 C        2.922    -0.049    29.214     8.864
    22   6 C        2.912    -0.056    29.381     8.888
    23   6 C        2.870     0.104    25.692     8.309
    24   8 O        1.710    -0.094    15.753     5.359
    25   6 C        2.733     0.038    27.126     8.527
    26   6 C        2.860     0.140    24.951     8.188
    27   8 O        1.706    -0.227    17.773     5.692
    28   6 C        3.644     0.025    20.495     6.507
    29   6 C        2.919    -0.079    29.983     8.979
    30   6 C        3.699    -0.070    22.016     6.711
    31   6 C        3.853    -0.007    20.673     6.467
    32   6 C        3.756    -0.119    22.830     6.813
    33   6 C        3.755    -0.118    22.819     6.811
    34   1 H        0.926     0.052     2.295     2.369
    35   1 H        0.924     0.054     2.274     2.358
    36   1 H        0.925     0.081     1.969     2.194
    37   1 H        0.924     0.047     2.356     2.400
    38   1 H        0.924     0.055     2.262     2.352
    39   1 H        0.925     0.081     1.970     2.195
    40   1 H        0.924     0.047     2.358     2.402
    41   1 H        0.926     0.051     2.308     2.376
    42   1 H        0.926     0.038     2.481     2.463
    43   1 H        0.925     0.060     2.201     2.320
    44   1 H        0.924     0.053     2.283     2.363
    45   1 H        0.925     0.066     2.134     2.284
    46   1 H        0.923     0.079     1.991     2.207
    47   1 H        0.922     0.005     2.970     2.695
    48   1 H        0.926     0.067     2.114     2.274
    49   1 H        0.924     0.066     2.125     2.280
    50   1 H        0.924     0.067     2.117     2.275
    51   1 H        0.924     0.059     2.213     2.326
    52   1 H        0.924     0.058     2.220     2.330
    53   1 H        0.926     0.052     2.296     2.369
    54   1 H        0.926     0.064     2.149     2.293
    55   1 H        0.926     0.077     2.013     2.219
    56   1 H        0.000    -0.129    16.678     7.467
    57   1 H        0.926     0.109     1.707     2.043
    58   1 H        0.925     0.084     1.934     2.175
    59   1 H        0.924     0.051     2.308     2.376
    60   1 H        0.924     0.055     2.257     2.349
    61   1 H        0.926     0.053     2.281     2.362
    62   1 H        0.924     0.076     2.025     2.225
    63   1 H        0.924     0.080     1.979     2.200
    64   1 H        0.925     0.078     2.000     2.211
    65   1 H        0.924     0.037     2.490     2.468
    66   1 H        0.925     0.069     2.093     2.263
    67   1 H        0.925     0.035     2.512     2.478
    68   1 H        0.925     0.051     2.310     2.377
    69   1 H        0.925     0.060     2.204     2.322
    70   1 H        0.925     0.034     2.528     2.487
    71   1 H        0.925     0.054     2.268     2.355
    72   1 H        0.860     0.156     1.362     1.828

Wiberg/Mayer (AO) data.
largest (>0.10) Wiberg bond orders for each atom

     #   Z sym  total        # sym  WBO       # sym  WBO       # sym  WBO
 ---------------------------------------------------------------------------
     1   7 N    3.040 --     2 C    1.956    72 H    0.942
     2   6 C    3.928 --     1 N    1.956     3 C    0.995    47 H    0.900
     3   6 C    3.976 --     2 C    0.995     4 C    0.969    14 C    0.958
                            31 C    0.942
     4   6 C    3.951 --    13 C    1.416     5 C    1.367     3 C    0.969
     5   6 C    3.963 --     6 C    1.402     4 C    1.367    34 H    0.958
     6   6 C    3.907 --     5 C    1.402     9 C    1.222     7 O    1.099
     7   8 O    2.254 --     6 C    1.099     8 C    0.978
     8   6 C    3.932 --     7 O    0.978    36 H    0.977    35 H    0.974
                            37 H    0.973
     9   6 C    3.903 --    12 C    1.394     6 C    1.222    10 O    1.100
    10   8 O    2.253 --     9 C    1.100    11 C    0.978
    11   6 C    3.932 --    10 O    0.978    39 H    0.977    40 H    0.974
                            38 H    0.973
    12   6 C    3.963 --    13 C    1.401     9 C    1.394    41 H    0.964
    13   6 C    3.956 --     4 C    1.416    12 C    1.401    42 H    0.963
    14   6 C    3.972 --    15 C    0.981    44 H    0.972    43 H    0.969
                             3 C    0.958
    15   6 C    3.987 --    16 C    1.060    14 C    0.981    45 H    0.961
                            46 H    0.928
    16   6 C    3.576 --    17 N    1.387    15 C    1.060    48 H    0.958
    17   7 N    3.467 --    16 C    1.387    30 C    0.999    18 C    0.991
    18   6 C    3.957 --    17 N    0.991    50 H    0.968    19 C    0.966
                            49 H    0.964
    19   6 C    3.977 --    20 C    1.011    52 H    0.972    51 H    0.971
                            18 C    0.966
    20   6 C    3.915 --    21 C    1.390    29 C    1.386    19 C    1.011
    21   6 C    3.973 --    22 C    1.448    20 C    1.390    53 H    0.967
    22   6 C    3.915 --    21 C    1.448    23 C    1.352    54 H    0.961
    23   6 C    3.891 --    22 C    1.352    26 C    1.227    24 O    1.057
    24   8 O    2.438 --    25 C    1.285    23 C    1.057
    25   6 C    3.354 --    24 O    1.285    55 H    0.964    57 H    0.961
    26   6 C    3.893 --    29 C    1.388    23 C    1.227    27 O    1.114
    27   8 O    2.274 --    26 C    1.114    28 C    0.973
    28   6 C    3.930 --    58 H    0.977    59 H    0.975    60 H    0.975
                            27 O    0.973
    29   6 C    3.960 --    26 C    1.388    20 C    1.386    61 H    0.962
    30   6 C    3.958 --    17 N    0.999    64 H    0.978    62 H    0.967
                            63 H    0.961
    31   6 C    3.973 --    33 C    1.009    32 C    1.008    65 H    0.960
                             3 C    0.942
    32   6 C    3.979 --    31 C    1.008    67 H    0.982    68 H    0.981
                            66 H    0.974
    33   6 C    3.984 --    31 C    1.009    70 H    0.983    71 H    0.980
                            69 H    0.977
    34   1 H    0.996 --     5 C    0.958
    35   1 H    0.994 --     8 C    0.974
    36   1 H    0.993 --     8 C    0.977
    37   1 H    0.994 --     8 C    0.973
    38   1 H    0.993 --    11 C    0.973
    39   1 H    0.993 --    11 C    0.977
    40   1 H    0.994 --    11 C    0.974
    41   1 H    0.996 --    12 C    0.964
    42   1 H    0.998 --    13 C    0.963
    43   1 H    0.995 --    14 C    0.969
    44   1 H    0.996 --    14 C    0.972
    45   1 H    0.995 --    15 C    0.961
    46   1 H    0.969 --    15 C    0.928
    47   1 H    0.987 --     2 C    0.900
    48   1 H    0.995 --    16 C    0.958
    49   1 H    0.991 --    18 C    0.964
    50   1 H    0.994 --    18 C    0.968
    51   1 H    0.995 --    19 C    0.971
    52   1 H    0.996 --    19 C    0.972
    53   1 H    0.997 --    21 C    0.967
    54   1 H    0.995 --    22 C    0.961
    55   1 H    0.994 --    25 C    0.964
    56   1 H    0.018
    57   1 H    0.987 --    25 C    0.961
    58   1 H    0.992 --    28 C    0.977
    59   1 H    0.995 --    28 C    0.975
    60   1 H    0.994 --    28 C    0.975
    61   1 H    0.996 --    29 C    0.962
    62   1 H    0.985 --    30 C    0.967
    63   1 H    0.987 --    30 C    0.961
    64   1 H    0.994 --    30 C    0.978
    65   1 H    0.993 --    31 C    0.960
    66   1 H    0.991 --    32 C    0.974
    67   1 H    0.997 --    32 C    0.982
    68   1 H    0.994 --    32 C    0.981
    69   1 H    0.993 --    33 C    0.977
    70   1 H    0.997 --    33 C    0.983
    71   1 H    0.994 --    33 C    0.980
    72   1 H    0.971 --     1 N    0.942
 ---------------------------------------------------------------------------

molecular dipole:
                 x           y           z       tot (Debye)
 q only:        0.165      -0.752      -0.505
   full:        0.528      -0.809      -0.664       2.980

           -------------------------------------------------
          | TOTAL ENERGY              -99.268801333058 Eh   |
          | GRADIENT NORM               0.001818368711 Eh/α |
          | HOMO-LUMO GAP               0.452902781776 eV   |
           -------------------------------------------------

 * finished run on 2024/04/06 at 11:14:22.486
