   * xtb version 6.6.1 (8d0f1dd) compiled by 'conda@1efc2f54142f' on 2023-08-01
          program call               : xtb struc.xyz --opt loose --input .xc1 --gfn2

   ID    Z sym.   atoms
    1    6 C      1, 3, 5-7, 10, 11, 14
    2    7 N      2, 4, 9, 13
    3    8 O      8, 12
    4    1 H      15-25
constraining bond 1 2 to    3.9200000 Å, actual value:    1.4397841 Å

          :  Hamiltonian                  GFN2-xTB          :
 * total energy  :     1.6867358 Eh     change       -0.6650680E-10 Eh
 * total energy  :   -18.9256205 Eh     change       -0.2061236E+02 Eh
 * total energy  :   -31.4763099 Eh     change       -0.1255069E+02 Eh
 * total energy  :   -38.4882645 Eh     change       -0.7011955E+01 Eh
 * total energy  :   -41.0340467 Eh     change       -0.2545782E+01 Eh
 * total energy  :   -41.3427568 Eh     change       -0.3087101E+00 Eh
 * total energy  :   -41.4096385 Eh     change       -0.6688177E-01 Eh
 * total energy  :   -41.4436290 Eh     change       -0.3399051E-01 Eh
 * total energy  :   -41.4926604 Eh     change       -0.4903136E-01 Eh
 * total energy  :   -41.5559835 Eh     change       -0.6332309E-01 Eh
 * total energy  :   -42.1350044 Eh     change       -0.3661179E-03 Eh
 * total energy  :   -42.1347568 Eh     change        0.2475802E-03 Eh
 * total energy  :   -42.1353846 Eh     change       -0.6278355E-03 Eh
 * total energy  :   -42.1354791 Eh     change       -0.9449531E-04 Eh
 * total energy  :   -42.1356341 Eh     change       -0.1550165E-03 Eh
 * total energy  :   -42.1356859 Eh     change       -0.5181434E-04 Eh
 * total energy  :   -42.1357030 Eh     change       -0.1704467E-04 Eh
 * total energy  :   -42.1357444 Eh     change       -0.4138198E-04 Eh
 * total energy  :   -42.1357807 Eh     change       -0.3636691E-04 Eh
   *** GEOMETRY OPTIMIZATION CONVERGED AFTER 59 ITERATIONS ***

 final structure:
================
25
 xtb: 6.6.1 (8d0f1dd)
C            3.86607561857021        2.83880925303628        0.32706555666514
N            2.20750719044349       -0.65890739401413       -0.29301748441225
C            2.25489410991988       -1.95685340887223       -0.31689506000644
N            1.01151973705646       -2.52291153182204       -0.21090399153170
C            0.13263533446570       -1.49365780208500       -0.11825183291433
C            0.90054963547623       -0.32252957928261       -0.17093479774994
C            0.27125287803199        0.97574445564351       -0.10385272929544
O            0.83656218390323        2.04674359080567       -0.11460019843111
N           -1.11819779753192        0.87848081368845       -0.02004211839426
C           -1.88119152874780        2.11614068641325        0.01611728360815
C           -1.88447803666717       -0.27305930315367        0.04472966539837
O           -3.08258070635384       -0.23557909665445        0.13612376555791
N           -1.20553611676900       -1.50256499172466        0.00173003368856
C           -1.96876891817873       -2.72958600099200        0.08518284107576
H            4.20277578544203        2.79024397220214        1.34722058720758
H            4.56705275517922        3.07275437751830       -0.45168603647515
H            2.82929684736432        2.66499713724974        0.08926315400256
H            3.15584323717791       -2.53003100945910       -0.40992689445831
H           -1.18238879153340        2.94879127102631       -0.02004524431653
H           -2.56202124163039        2.15586973307001       -0.83531714154526
H           -2.47757742512234        2.15925206839201        0.92816462053696
H           -1.64148300108642       -3.32112768051384        0.94137592390702
H           -1.85807579389959       -3.31178622066675       -0.83088030850113
H           -3.01715377505005       -2.46125469456217        0.21252736949255
H            0.80391933364134       -3.50974010364298       -0.20197534521292

          :  Hamiltonian                  GFN2-xTB          :
         :: total energy             -42.135780734808 Eh    ::
         :: gradient norm              0.003912115289 Eh/a0 ::
         :: HOMO-LUMO gap              1.101302605188 eV    ::
         :: SCC energy               -42.660709513941 Eh    ::
         :: -> dispersion             -0.021016411352 Eh    ::
         :: repulsion energy           0.524845066643 Eh    ::

    * Orbital Energies and Occupations

         #    Occupation            Energy/Eh            Energy/eV
      -------------------------------------------------------------
         1        2.0000           -0.8866055             -24.1258
       ...           ...                  ...                  ...
        25        1.9996           -0.6554082             -17.8346
        26        1.9988           -0.6373483             -17.3431
        27        1.9980           -0.6294490             -17.1282
        28        1.9978           -0.6274677             -17.0743
        29        1.9973           -0.6243505             -16.9894
        30        1.9969           -0.6222261             -16.9316
        31        1.9930           -0.6092417             -16.5783
        32        1.9923           -0.6077249             -16.5370
        33        1.9736           -0.5881067             -16.0032
        34        1.9217           -0.5704511             -15.5228
        35        1.9131           -0.5687242             -15.4758
        36        1.8743           -0.5625633             -15.3081
        37        1.7113           -0.5479533             -14.9106 (HOMO)
        38        0.6301           -0.5074812             -13.8093 (LUMO)
        39        0.0021           -0.4111774             -11.1887
        40        0.0006           -0.3918986             -10.6641
        41        0.0001           -0.3625151              -9.8645
        42        0.0000           -0.2814633              -7.6590
        43                         -0.1998677              -5.4387
        44                         -0.1572118              -4.2780
        45                         -0.1321107              -3.5949
        46                         -0.0689053              -1.8750
        47                         -0.0466288              -1.2688
        48                         -0.0307984              -0.8381
       ...                                ...                  ...
        67                          0.5483780              14.9221
      -------------------------------------------------------------
                  HL-Gap            0.0404721 Eh            1.1013 eV

     #   Z          covCN         q      C6AA      α(0)
     1   6 C        2.778    -0.069    29.696     8.925
     2   7 N        1.904    -0.162    25.291     7.456
     3   6 C        3.156     0.105    25.392     8.240
     4   7 N        2.789    -0.080    22.786     7.090
     5   6 C        3.055     0.115    25.417     8.268
     6   6 C        3.205     0.023    26.895     8.447
     7   6 C        2.765     0.275    22.349     7.742
     8   8 O        0.858    -0.341    20.544     6.077
     9   7 N        2.745    -0.074    22.685     7.074
    10   6 C        3.710    -0.061    21.823     6.676
    11   6 C        2.731     0.319    21.581     7.606
    12   8 O        0.860    -0.344    20.588     6.084
    13   7 N        2.737    -0.042    22.060     6.976
    14   6 C        3.697    -0.070    22.022     6.712
    15   1 H        0.926     0.135     1.496     1.913
    16   1 H        0.926     0.138     1.473     1.898
    17   1 H        0.926     0.163     1.306     1.787
    18   1 H        0.926     0.109     1.701     2.039
    19   1 H        0.925     0.117     1.641     2.003
    20   1 H        0.924     0.108     1.714     2.047
    21   1 H        0.924     0.109     1.709     2.045
    22   1 H        0.924     0.091     1.870     2.139
    23   1 H        0.924     0.092     1.856     2.130
    24   1 H        0.925     0.128     1.552     1.948
    25   1 H        0.860     0.216     1.029     1.589

Wiberg/Mayer (AO) data.
largest (>0.10) Wiberg bond orders for each atom

     #   Z sym  total        # sym  WBO       # sym  WBO       # sym  WBO
 ---------------------------------------------------------------------------
     1   6 C    2.919 --    15 H    0.979    16 H    0.978    17 H    0.955
     2   7 N    3.001 --     3 C    1.559     6 C    1.270
     3   6 C    3.849 --     2 N    1.559     4 N    1.213    18 H    0.955
     4   7 N    3.577 --     5 C    1.224     3 C    1.213    25 H    0.924
     5   6 C    3.896 --     6 C    1.276     4 N    1.224    13 N    1.212
     6   6 C    3.834 --     5 C    1.276     2 N    1.270     7 C    1.071
     7   6 C    3.946 --     8 O    1.671     9 N    1.102     6 C    1.071
     8   8 O    1.973 --     7 C    1.671     9 N    0.126
     9   7 N    3.514 --    11 C    1.120     7 C    1.102    10 C    0.975
                             8 O    0.126    12 O    0.122
    10   6 C    3.884 --     9 N    0.975    19 H    0.963    21 H    0.952
                            20 H    0.951
    11   6 C    3.954 --    12 O    1.688     9 N    1.120    13 N    1.053
    12   8 O    1.995 --    11 C    1.688     9 N    0.122    13 N    0.108
    13   7 N    3.496 --     5 C    1.212    11 C    1.053    14 C    0.978
                            12 O    0.108
    14   6 C    3.910 --    13 N    0.978    22 H    0.963    24 H    0.962
                            23 H    0.961
    15   1 H    0.980 --     1 C    0.979
    16   1 H    0.979 --     1 C    0.978
    17   1 H    0.971 --     1 C    0.955
    18   1 H    0.986 --     3 C    0.955
    19   1 H    0.981 --    10 C    0.963
    20   1 H    0.969 --    10 C    0.951
    21   1 H    0.969 --    10 C    0.952
    22   1 H    0.979 --    14 C    0.963
    23   1 H    0.978 --    14 C    0.961
    24   1 H    0.982 --    14 C    0.962
    25   1 H    0.952 --     4 N    0.924
 ---------------------------------------------------------------------------

molecular dipole:
                 x           y           z       tot (Debye)
 q only:        1.884      -1.056       0.100
   full:        1.778      -1.746       0.098       6.337

           -------------------------------------------------
          | TOTAL ENERGY              -42.135780734808 Eh   |
          | GRADIENT NORM               0.003912115289 Eh/α |
          | HOMO-LUMO GAP               1.101302605188 eV   |
           -------------------------------------------------

 * finished run on 2024/06/05 at 20:00:07.060
