   * xtb version 6.6.1 (8d0f1dd) compiled by 'conda@1efc2f54142f' on 2023-08-01
          program call               : xtb struc.xyz --opt loose --input .xc1 --gfn2

   ID    Z sym.   atoms
    1    7 N      1, 17
    2    6 C      2-6, 8, 9, 11-16, 18-23, 25, 26, 28-33
    3    8 O      7, 10, 24, 27
    4    1 H      34-72
constraining bond 20 22 to    5.0000000 Å, actual value:    2.4056682 Å

          :  Hamiltonian                  GFN2-xTB          :
 * total energy  :   -98.2023683 Eh     change       -0.4035485E-08 Eh
 * total energy  :   -98.4538994 Eh     change       -0.2515311E+00 Eh
 * total energy  :   -98.6050194 Eh     change       -0.1511200E+00 Eh
 * total energy  :   -98.6953972 Eh     change       -0.9037780E-01 Eh
 * total energy  :   -98.7555295 Eh     change       -0.6013229E-01 Eh
 * total energy  :   -98.7962708 Eh     change       -0.4074134E-01 Eh
 * total energy  :   -98.8224175 Eh     change       -0.2614671E-01 Eh
 * total energy  :   -98.8362389 Eh     change       -0.1382135E-01 Eh
 * total energy  :   -98.8468998 Eh     change       -0.1066095E-01 Eh
 * total energy  :   -98.8571177 Eh     change       -0.1021783E-01 Eh
 * total energy  :   -99.1646992 Eh     change       -0.1464619E-03 Eh
 * total energy  :   -99.1648269 Eh     change       -0.1277062E-03 Eh
 * total energy  :   -99.1649462 Eh     change       -0.1193431E-03 Eh
 * total energy  :   -99.1650645 Eh     change       -0.1182871E-03 Eh
 * total energy  :   -99.1651338 Eh     change       -0.6934175E-04 Eh
 * total energy  :   -99.1651858 Eh     change       -0.5195872E-04 Eh
 * total energy  :   -99.1652366 Eh     change       -0.5077127E-04 Eh
 * total energy  :   -99.1652994 Eh     change       -0.6283537E-04 Eh
 * total energy  :   -99.1653415 Eh     change       -0.4206485E-04 Eh
   *** GEOMETRY OPTIMIZATION CONVERGED AFTER 95 ITERATIONS ***

 final structure:
================
72
 xtb: 6.6.1 (8d0f1dd)
N           -1.54268237345822        2.46370855093888        2.27349935804413
C           -1.60577881203059        1.77734587868860        1.23145526961865
C           -2.81981819746930        1.67461299931867        0.34910989559298
C           -3.44867265675680        0.29721780259423        0.50253681116604
C           -4.41963385680769       -0.12578042755837       -0.40755724334099
C           -5.03783861828772       -1.35871372408375       -0.28587260883039
O           -5.97684965605549       -1.84572438910483       -1.12401313569339
C           -6.41816684804253       -1.05351994727499       -2.20082611913898
C           -4.68660773235786       -2.21406970680809        0.79314903587874
O           -5.34585379386543       -3.38898950059575        0.83895628876275
C           -5.12996301442873       -4.25407498198239        1.92939486435836
C           -3.72265158671636       -1.78772862122410        1.69294173650248
C           -3.11037048750028       -0.54965275008005        1.54655056910323
C           -2.31381980637220        1.86760965496669       -1.10308113111058
C           -1.50870431931054        0.67742094203000       -1.65462430149758
C           -0.10601469302590        0.64151860075750       -1.18112159499158
N            0.56022863741699       -0.43727189951044       -0.77797721144738
C            1.99622834105192       -0.43154587513731       -0.78107300026731
C            2.54539670747822       -1.00566846870877       -2.13082454656770
C            3.87429262701692       -0.56171575655088       -2.44605521398117
C            7.88113009509823        2.03421654250426       -2.14885604726380
C            7.92826876364589        1.57918762766955       -0.92509956580848
C            6.82198071864766        0.79680708562962       -0.31186776130798
O            6.93711543740698        0.56712448718393        1.03049676752235
C            7.81593532920491        1.31403160851372        1.83700403482142
C            5.63978503115175        0.20636801260638       -0.78703518456053
O            4.86872480529018       -0.38361203611196        0.21366960621664
C            5.21180555876353       -1.72898491725547        0.49158722174746
C            5.02856769314277        0.00808252132317       -2.12078804222997
C           -0.09838340414117       -1.69953273776882       -0.54156516541409
C           -3.90985802272543        2.74046638732484        0.67384336585479
C           -4.53123590824894        2.51062394752546        2.04940118396117
C           -3.39284116800333        4.17328478145576        0.57823511959913
H           -4.70737247191944        0.52589297830522       -1.21542842380809
H           -6.86896204196447       -0.11851136365955       -1.85462156754801
H           -7.17312133253175       -1.64881631265618       -2.71052919169965
H           -5.60310631175744       -0.83195762012640       -2.89784379217379
H           -5.37507053933931       -3.76942117463800        2.87903121971878
H           -5.80022894734295       -5.09652603338989        1.77038465032072
H           -4.09673824721056       -4.61430726540715        1.95867437846029
H           -3.44475608535456       -2.41041700585200        2.52764704599970
H           -2.38308623240008       -0.24137224277417        2.28145717132550
H           -3.17144634993490        2.03443823484083       -1.75329120595436
H           -1.69345848171037        2.76351543493679       -1.14514784842067
H           -2.03438035346049       -0.25378481082309       -1.44717066441668
H           -1.47186936044955        0.80149642462811       -2.74576539694676
H           -0.75344023142246        1.19921557057355        0.82588434561669
H            0.48227786689898        1.53770037870697       -1.31674983605415
H            2.37993151027142       -1.02442388915955        0.04781982566076
H            2.36395411733895        0.58883838237221       -0.66740947832945
H            1.87059990739874       -0.65934521593697       -2.92530686694006
H            2.50437367126412       -2.09897413388805       -2.12075468188049
H            8.50790790848865        2.59094233016605       -2.80759146951770
H            8.79456012614997        1.70767661355255       -0.27958329962627
H            7.73356968292932        2.38745982738499        1.64884567607112
H            8.85598267704561        0.99251893410318        1.71604413358018
H            7.50895223478641        1.10630978452242        2.86155845069514
H            4.52240084101523       -2.06888859524028        1.26109057112660
H            5.10592018704286       -2.35052675618581       -0.40632050193321
H            6.23541425674863       -1.80908269356756        0.86592922918498
H            5.68556191392335        0.33600348982862       -2.92544837302046
H           -0.33557262258645       -2.21326015522278       -1.47698170065276
H           -1.02337575381828       -1.54454644970471        0.01621151048202
H            0.55746171152940       -2.33757003963307        0.04735414766974
H           -4.69845787030192        2.61256536109910       -0.07694102384990
H           -3.77686877532624        2.62322359244922        2.82134993087346
H           -4.96858638771642        1.51809227307160        2.12364068250099
H           -5.31550976700916        3.24334714293314        2.22066389577083
H           -2.59581724829461        4.33497223803744        1.29752320094150
H           -3.03046304203482        4.41049729639145       -0.41849773422488
H           -4.20242991509368        4.86052093785926        0.80943612499345
H           -0.66194943654000        2.47760236349257        2.77850845330210

          :  Hamiltonian                  GFN2-xTB          :
         :: total energy             -99.165341469644 Eh    ::
         :: gradient norm              0.002111056562 Eh/a0 ::
         :: HOMO-LUMO gap              0.049106287684 eV    ::
         :: SCC energy              -100.524991769402 Eh    ::
         :: -> dispersion             -0.074131961687 Eh    ::
         :: repulsion energy           1.353105185430 Eh    ::

    * Orbital Energies and Occupations

         #    Occupation            Energy/Eh            Energy/eV
      -------------------------------------------------------------
         1        2.0000           -0.8085619             -22.0021
       ...           ...                  ...                  ...
        78        1.9982           -0.5252656             -14.2932
        79        1.9973           -0.5187576             -14.1161
        80        1.9971           -0.5177988             -14.0900
        81        1.9959           -0.5121046             -13.9351
        82        1.9958           -0.5117596             -13.9257
        83        1.9951           -0.5093467             -13.8600
        84        1.9942           -0.5065375             -13.7836
        85        1.9873           -0.4941619             -13.4468
        86        1.9802           -0.4871128             -13.2550
        87        1.9363           -0.4682115             -12.7407
        88        1.8670           -0.4559885             -12.4081
        89        1.8079           -0.4496587             -12.2358
        90        1.0622           -0.4161312             -11.3235 (HOMO)
        91        1.0053           -0.4143266             -11.2744 (LUMO)
        92        0.3212           -0.3879754             -10.5573
        93        0.0473           -0.3552388              -9.6665
        94        0.0140           -0.3357117              -9.1352
        95        0.0033           -0.3128324              -8.5126
        96        0.0027           -0.3098101              -8.4304
        97        0.0005           -0.2815039              -7.6601
        98        0.0000           -0.2293977              -6.2422
        99        0.0000           -0.1870967              -5.0912
       100                         -0.1263272              -3.4375
       101                         -0.0888479              -2.4177
       ...                                ...                  ...
       171                          0.6439365              17.5224
      -------------------------------------------------------------
                  HL-Gap            0.0018046 Eh            0.0491 eV

     #   Z          covCN         q      C6AA      α(0)
     1   7 N        1.774    -0.269    27.809     7.809
     2   6 C        2.826     0.101    25.745     8.314
     3   6 C        3.907     0.006    20.411     6.422
     4   6 C        2.974     0.003    27.964     8.674
     5   6 C        2.920    -0.080    30.007     8.983
     6   6 C        2.862     0.129    25.164     8.223
     7   8 O        1.706    -0.230    17.817     5.699
     8   6 C        3.644     0.028    20.440     6.498
     9   6 C        2.864     0.129    25.171     8.224
    10   8 O        1.706    -0.229    17.789     5.695
    11   6 C        3.645     0.027    20.457     6.500
    12   6 C        2.914    -0.073    29.828     8.956
    13   6 C        2.921    -0.053    29.307     8.878
    14   6 C        3.812    -0.065    21.741     6.637
    15   6 C        3.801    -0.067    21.792     6.646
    16   6 C        2.846     0.002    27.981     8.669
    17   7 N        2.729     0.009    21.096     6.822
    18   6 C        3.756    -0.021    21.000     6.534
    19   6 C        3.799    -0.045    21.374     6.583
    20   6 C        1.965    -0.044    32.244     9.170
    21   6 C        1.915    -0.100    33.867     9.398
    22   6 C        2.884    -0.038    28.950     8.821
    23   6 C        2.832     0.132    25.106     8.211
    24   8 O        1.710    -0.237    17.933     5.718
    25   6 C        3.635     0.031    20.426     6.503
    26   6 C        2.846     0.107    25.628     8.297
    27   8 O        1.703    -0.298    18.962     5.879
    28   6 C        3.650     0.037    20.259     6.465
    29   6 C        2.885    -0.043    29.054     8.837
    30   6 C        3.700    -0.069    21.983     6.705
    31   6 C        3.853    -0.007    20.665     6.466
    32   6 C        3.756    -0.119    22.834     6.813
    33   6 C        3.755    -0.118    22.809     6.810
    34   1 H        0.926     0.051     2.301     2.372
    35   1 H        0.924     0.053     2.278     2.360
    36   1 H        0.925     0.081     1.972     2.196
    37   1 H        0.924     0.046     2.369     2.407
    38   1 H        0.924     0.055     2.258     2.350
    39   1 H        0.925     0.081     1.971     2.196
    40   1 H        0.924     0.049     2.332     2.388
    41   1 H        0.926     0.053     2.283     2.363
    42   1 H        0.926     0.041     2.438     2.442
    43   1 H        0.925     0.058     2.223     2.332
    44   1 H        0.924     0.053     2.286     2.364
    45   1 H        0.925     0.064     2.151     2.293
    46   1 H        0.923     0.076     2.016     2.220
    47   1 H        0.922     0.008     2.931     2.677
    48   1 H        0.926     0.067     2.116     2.275
    49   1 H        0.925     0.084     1.943     2.180
    50   1 H        0.924     0.081     1.974     2.197
    51   1 H        0.923     0.073     2.049     2.239
    52   1 H        0.924     0.075     2.035     2.231
    53   1 H        0.927     0.083     1.950     2.184
    54   1 H        0.925     0.086     1.921     2.168
    55   1 H        0.924     0.054     2.265     2.354
    56   1 H        0.924     0.054     2.270     2.356
    57   1 H        0.925     0.078     2.004     2.214
    58   1 H        0.925     0.058     2.224     2.332
    59   1 H        0.924     0.035     2.517     2.481
    60   1 H        0.924     0.053     2.288     2.365
    61   1 H        0.925     0.086     1.920     2.167
    62   1 H        0.924     0.073     2.050     2.239
    63   1 H        0.924     0.079     1.990     2.206
    64   1 H        0.925     0.079     1.992     2.207
    65   1 H        0.924     0.037     2.494     2.470
    66   1 H        0.925     0.070     2.089     2.260
    67   1 H        0.925     0.036     2.505     2.475
    68   1 H        0.925     0.051     2.309     2.376
    69   1 H        0.925     0.060     2.204     2.322
    70   1 H        0.925     0.034     2.533     2.489
    71   1 H        0.925     0.054     2.273     2.358
    72   1 H        0.860     0.157     1.354     1.823

Wiberg/Mayer (AO) data.
largest (>0.10) Wiberg bond orders for each atom

     #   Z sym  total        # sym  WBO       # sym  WBO       # sym  WBO
 ---------------------------------------------------------------------------
     1   7 N    3.035 --     2 C    1.956    72 H    0.942
     2   6 C    3.929 --     1 N    1.956     3 C    0.995    47 H    0.904
     3   6 C    3.975 --     2 C    0.995     4 C    0.968    14 C    0.960
                            31 C    0.941
     4   6 C    3.948 --    13 C    1.413     5 C    1.368     3 C    0.968
     5   6 C    3.962 --     6 C    1.401     4 C    1.368    34 H    0.958
     6   6 C    3.904 --     5 C    1.401     9 C    1.222     7 O    1.098
     7   8 O    2.253 --     6 C    1.098     8 C    0.979
     8   6 C    3.933 --     7 O    0.979    36 H    0.977    37 H    0.974
                            35 H    0.973
     9   6 C    3.900 --    12 C    1.391     6 C    1.222    10 O    1.102
    10   8 O    2.251 --     9 C    1.102    11 C    0.977
    11   6 C    3.931 --    10 O    0.977    39 H    0.977    38 H    0.973
                            40 H    0.973
    12   6 C    3.962 --    13 C    1.406     9 C    1.391    41 H    0.964
    13   6 C    3.954 --     4 C    1.413    12 C    1.406    42 H    0.963
    14   6 C    3.974 --    15 C    0.983    44 H    0.972    43 H    0.969
                             3 C    0.960
    15   6 C    3.985 --    16 C    1.058    14 C    0.983    45 H    0.961
                            46 H    0.927
    16   6 C    3.590 --    17 N    1.386    15 C    1.058    48 H    0.958
    17   7 N    3.488 --    16 C    1.386    18 C    1.001    30 C    0.999
    18   6 C    3.910 --    17 N    1.001    50 H    0.966    49 H    0.962
                            19 C    0.914
    19   6 C    3.965 --    20 C    1.115    52 H    0.945    51 H    0.934
                            18 C    0.914
    20   6 C    3.167 --    29 C    1.848    19 C    1.115
    21   6 C    3.004 --    22 C    1.929    53 H    0.952
    22   6 C    3.944 --    21 C    1.929    23 C    1.074    54 H    0.880
    23   6 C    3.802 --    26 C    1.468    24 O    1.089    22 C    1.074
    24   8 O    2.233 --    23 C    1.089    25 C    0.978
    25   6 C    3.928 --    24 O    0.978    55 H    0.974    57 H    0.972
                            56 H    0.966
    26   6 C    3.742 --    23 C    1.468    29 C    1.077    27 O    1.002
    27   8 O    2.089 --    26 C    1.002    28 C    0.967
    28   6 C    3.931 --    58 H    0.979    59 H    0.977    60 H    0.976
                            27 O    0.967
    29   6 C    3.939 --    20 C    1.848    26 C    1.077    61 H    0.907
    30   6 C    3.959 --    17 N    0.999    64 H    0.976    63 H    0.967
                            62 H    0.965
    31   6 C    3.972 --    33 C    1.009    32 C    1.008    65 H    0.961
                             3 C    0.941
    32   6 C    3.978 --    31 C    1.008    67 H    0.982    68 H    0.981
                            66 H    0.974
    33   6 C    3.983 --    31 C    1.009    70 H    0.983    71 H    0.980
                            69 H    0.977
    34   1 H    0.996 --     5 C    0.958
    35   1 H    0.993 --     8 C    0.973
    36   1 H    0.993 --     8 C    0.977
    37   1 H    0.994 --     8 C    0.974
    38   1 H    0.993 --    11 C    0.973
    39   1 H    0.993 --    11 C    0.977
    40   1 H    0.993 --    11 C    0.973
    41   1 H    0.996 --    12 C    0.964
    42   1 H    0.998 --    13 C    0.963
    43   1 H    0.995 --    14 C    0.969
    44   1 H    0.996 --    14 C    0.972
    45   1 H    0.995 --    15 C    0.961
    46   1 H    0.968 --    15 C    0.927
    47   1 H    0.986 --     2 C    0.904
    48   1 H    0.995 --    16 C    0.958
    49   1 H    0.989 --    18 C    0.962
    50   1 H    0.992 --    18 C    0.966
    51   1 H    0.966 --    19 C    0.934
    52   1 H    0.982 --    19 C    0.945
    53   1 H    0.971 --    21 C    0.952
    54   1 H    0.906 --    22 C    0.880
    55   1 H    0.992 --    25 C    0.974
    56   1 H    0.990 --    25 C    0.966
    57   1 H    0.991 --    25 C    0.972
    58   1 H    0.995 --    28 C    0.979
    59   1 H    0.996 --    28 C    0.977
    60   1 H    0.994 --    28 C    0.976
    61   1 H    0.942 --    29 C    0.907
    62   1 H    0.985 --    30 C    0.965
    63   1 H    0.989 --    30 C    0.967
    64   1 H    0.993 --    30 C    0.976
    65   1 H    0.993 --    31 C    0.961
    66   1 H    0.991 --    32 C    0.974
    67   1 H    0.997 --    32 C    0.982
    68   1 H    0.994 --    32 C    0.981
    69   1 H    0.993 --    33 C    0.977
    70   1 H    0.997 --    33 C    0.983
    71   1 H    0.994 --    33 C    0.980
    72   1 H    0.970 --     1 N    0.942
 ---------------------------------------------------------------------------

molecular dipole:
                 x           y           z       tot (Debye)
 q only:        1.287      -0.337      -0.895
   full:        2.048      -0.422      -0.937       5.824

           -------------------------------------------------
          | TOTAL ENERGY              -99.165341469644 Eh   |
          | GRADIENT NORM               0.002111056562 Eh/α |
          | HOMO-LUMO GAP               0.049106287684 eV   |
           -------------------------------------------------

 * finished run on 2024/04/06 at 11:14:02.370
