   * xtb version 6.6.1 (8d0f1dd) compiled by 'conda@1efc2f54142f' on 2023-08-01
          program call               : xtb xtbopt.xyz --opt crude --input .xc2 --gfn2

   ID    Z sym.   atoms
    1    7 N      1, 17
    2    6 C      2-6, 8, 9, 11-16, 18-23, 25, 26, 28-33
    3    8 O      7, 10, 24, 27
    4    1 H      34-72
########################################################################
[WARNING] Please study the warnings concerning your input carefully
-1- readin_getIntValue: could not parse ''
########################################################################

          :  Hamiltonian                  GFN2-xTB          :
 * total energy  :   -99.1704853 Eh     change       -0.3184653E-10 Eh
 * total energy  :   -99.1777711 Eh     change       -0.7285728E-02 Eh
 * total energy  :   -99.1827402 Eh     change       -0.4969134E-02 Eh
 * total energy  :   -99.1858291 Eh     change       -0.3088928E-02 Eh
 * total energy  :   -99.1894951 Eh     change       -0.3666015E-02 Eh
 * total energy  :   -99.1951836 Eh     change       -0.5688465E-02 Eh
 * total energy  :   -99.2030976 Eh     change       -0.7914013E-02 Eh
 * total energy  :   -99.2121277 Eh     change       -0.9030117E-02 Eh
 * total energy  :   -99.2045318 Eh     change        0.7595971E-02 Eh
 * total energy  :   -99.2279248 Eh     change       -0.2339303E-01 Eh
 * total energy  :   -99.2834198 Eh     change       -0.1451030E-02 Eh
 * total energy  :   -99.2848303 Eh     change       -0.1410460E-02 Eh
 * total energy  :   -99.2859661 Eh     change       -0.1135781E-02 Eh
 * total energy  :   -99.2869353 Eh     change       -0.9692048E-03 Eh
 * total energy  :   -99.2877468 Eh     change       -0.8115166E-03 Eh
 * total energy  :   -99.2884427 Eh     change       -0.6959402E-03 Eh
 * total energy  :   -99.2890959 Eh     change       -0.6531736E-03 Eh
 * total energy  :   -99.2896462 Eh     change       -0.5503451E-03 Eh
 * total energy  :   -99.2901379 Eh     change       -0.4916467E-03 Eh
   *** GEOMETRY OPTIMIZATION CONVERGED AFTER 33 ITERATIONS ***

 final structure:
================
72
 xtb: 6.6.1 (8d0f1dd)
N           -1.43804005250556        2.60473860841033        1.89896170606445
C           -1.64720254884128        1.81416127468588        0.95428793787093
C           -2.93659168443037        1.71090404316115        0.18836473127558
C           -3.50358212662650        0.30954820057870        0.35875021482151
C           -4.53088049264073       -0.14006090776166       -0.47268356506361
C           -5.11220211685719       -1.38478895507673       -0.29506622311830
O           -6.10599943278478       -1.89724791200424       -1.05100923545567
C           -6.66604469151670       -1.11478963994921       -2.07901631228221
C           -4.66303339156353       -2.22382619878576        0.76002237201244
O           -5.30201691458024       -3.40552512416740        0.87535129821413
C           -5.00027144133281       -4.24152190879150        1.96806381243159
C           -3.63678283846674       -1.77494509549523        1.57549032718456
C           -3.06598144811993       -0.52542888335215        1.37529711927558
C           -2.57733153471427        1.98354305176682       -1.29561224633742
C           -1.79554866365313        0.85302175915310       -1.98958906995640
C           -0.39473094753534        0.76038774051428       -1.52570414666538
N            0.26177083558932       -0.37297958821517       -1.27743060654914
C            1.60344870804408       -0.33378203658462       -0.75110115682072
C            2.67997883670676       -0.62897311854971       -1.81205277257731
C            3.97752230254432       -0.55777842798397       -1.17845617709867
C            6.64989672230451        1.77209250151423       -1.96940638960549
C            7.43731012851127        1.47934412861194       -0.92927944773642
C            7.17062942676283        0.59032775320748        0.17138400000479
O            8.00325506331068        0.52559530591710        1.23922186042380
C            9.00038142067291        1.49707897682955        1.43800154472235
C            6.12302358243909       -0.31223185668696        0.25254342928043
O            6.07345970803786       -1.07107915476498        1.38634163570761
C            5.67677774085263       -2.42179497831833        1.28080744838042
C            5.04425525093254       -0.39022587969995       -0.63705183620034
C           -0.37915269770153       -1.66129753618722       -1.38372618901968
C           -4.02103360035015        2.72433625930947        0.66264249867353
C           -4.44308818436807        2.45542976999511        2.10500341729792
C           -3.58761694827535        4.18144838504664        0.52005391290439
H           -4.89628795994980        0.50163114590133       -1.25724665333690
H           -7.10009393023346       -0.18901091010582       -1.68877304332639
H           -7.45484149340926       -1.72582740304139       -2.51365232987373
H           -5.92739110053089       -0.87720519619317       -2.85204210737758
H           -5.17725460433659       -3.73348339116195        2.92087457256267
H           -5.67494957091208       -5.09090798372138        1.88127716648626
H           -3.96551984830988       -4.59657520180927        1.93016852152937
H           -3.28133865500723       -2.38548320555307        2.38955314045703
H           -2.29285564908567       -0.19723699629946        2.05259266797313
H           -3.49987749504963        2.14827677766918       -1.85147933127358
H           -1.99410599872653        2.90326251863756       -1.34982799953351
H           -2.32248591926666       -0.09065338915891       -1.85790880050782
H           -1.78849356990715        1.08563241223163       -3.06217123965659
H           -0.87999278711610        1.12797290973356        0.54855137088025
H            0.18065687123402        1.67216038031242       -1.47946052771927
H            1.68899051555441       -1.06715789775833        0.05654762396387
H            1.79549105250009        0.65510307791016       -0.32875584663239
H            2.61105708412332        0.10289110537859       -2.62236475642223
H            2.53282764720907       -1.62455979772573       -2.23943204956961
H            7.00968097437906        2.43373308301643       -2.74076542488265
H            8.41719525037586        1.93578706787809       -0.90074630547973
H            8.61949730578144        2.51136858803552        1.29048528486055
H            9.86647932117586        1.32625606879237        0.78864681558071
H            9.31276516439520        1.38056393618294        2.47590027148943
H            5.21729447070104       -2.69552464373026        2.23055578551050
H            4.96654911477048       -2.57656592259941        0.46426561413421
H            6.55768550022507       -3.04897710512270        1.11583498255029
H            5.65622290217278        1.38339727365469       -2.08352186990319
H           -0.74856880414142       -1.82941990759559       -2.39445551590254
H           -1.21927280810938       -1.73662028887058       -0.68693869000257
H            0.33824836338765       -2.44019160961030       -1.14342076425228
H           -4.89512405663631        2.56303879194215        0.02085298158751
H           -3.60008683385678        2.59995315040626        2.77297892020297
H           -4.82049969581315        1.44237183520258        2.22359489872553
H           -5.23059322062356        3.14787007877224        2.38916117475225
H           -2.69470655705204        4.36598327896264        1.10885426634118
H           -3.39899628278859        4.45160853802458       -0.51531519703712
H           -4.37941162895380        4.82596527588609        0.89194978255381
H           -0.51595544048807        2.60103252184007        2.32349356090950

          :  Hamiltonian                  GFN2-xTB          :
         :: total energy             -99.290137882035 Eh    ::
         :: gradient norm              0.007921415259 Eh/a0 ::
         :: HOMO-LUMO gap              1.326510870552 eV    ::
         :: SCC energy              -100.719244177707 Eh    ::
         :: -> dispersion             -0.072649487346 Eh    ::
         :: repulsion energy           1.427699280094 Eh    ::

    * Orbital Energies and Occupations

         #    Occupation            Energy/Eh            Energy/eV
      -------------------------------------------------------------
         1        2.0000           -0.8053515             -21.9147
       ...           ...                  ...                  ...
        78        1.9984           -0.5258009             -14.3078
        79        1.9984           -0.5250828             -14.2882
        80        1.9975           -0.5183933             -14.1062
        81        1.9966           -0.5134765             -13.9724
        82        1.9963           -0.5119607             -13.9312
        83        1.9962           -0.5116065             -13.9215
        84        1.9957           -0.5095698             -13.8661
        85        1.9947           -0.5064269             -13.7806
        86        1.9935           -0.5031030             -13.6901
        87        1.9818           -0.4867671             -13.2456
        88        1.9438           -0.4686126             -12.7516
        89        1.8760           -0.4555035             -12.3949
        90        1.7217           -0.4413506             -12.0098 (HOMO)
        91        0.4432           -0.3926022             -10.6833 (LUMO)
        92        0.0510           -0.3548229              -9.6552
        93        0.0158           -0.3359236              -9.1409
        94        0.0036           -0.3124173              -8.5013
        95        0.0030           -0.3093789              -8.4186
        96        0.0004           -0.2769489              -7.5362
        97        0.0002           -0.2639877              -7.1835
        98        0.0000           -0.2008261              -5.4648
        99        0.0000           -0.1868156              -5.0835
       100                         -0.1334984              -3.6327
       101                         -0.0726166              -1.9760
       ...                                ...                  ...
       171                          1.2758038              34.7164
      -------------------------------------------------------------
                  HL-Gap            0.0487484 Eh            1.3265 eV

     #   Z          covCN         q      C6AA      α(0)
     1   7 N        1.773    -0.273    27.898     7.821
     2   6 C        2.827     0.101    25.748     8.315
     3   6 C        3.907     0.006    20.413     6.422
     4   6 C        2.975     0.000    28.019     8.683
     5   6 C        2.920    -0.081    30.018     8.985
     6   6 C        2.862     0.129    25.179     8.225
     7   8 O        1.706    -0.232    17.840     5.703
     8   6 C        3.644     0.028    20.435     6.498
     9   6 C        2.864     0.128    25.184     8.226
    10   8 O        1.706    -0.230    17.813     5.698
    11   6 C        3.646     0.027    20.444     6.498
    12   6 C        2.914    -0.074    29.838     8.957
    13   6 C        2.922    -0.052    29.301     8.877
    14   6 C        3.812    -0.064    21.722     6.634
    15   6 C        3.802    -0.068    21.808     6.649
    16   6 C        2.844     0.004    27.939     8.663
    17   7 N        2.728     0.001    21.250     6.847
    18   6 C        3.764    -0.011    20.813     6.503
    19   6 C        3.803    -0.046    21.398     6.586
    20   6 C        1.973    -0.038    32.092     9.148
    21   6 C        2.837    -0.086    30.157     8.999
    22   6 C        2.889    -0.047    29.177     8.856
    23   6 C        2.841     0.132    25.114     8.213
    24   8 O        1.709    -0.225    17.725     5.684
    25   6 C        3.639     0.027    20.476     6.508
    26   6 C        2.841     0.137    25.009     8.196
    27   8 O        1.706    -0.243    18.024     5.732
    28   6 C        3.642     0.029    20.431     6.499
    29   6 C        1.968    -0.043    32.210     9.165
    30   6 C        3.699    -0.067    21.947     6.700
    31   6 C        3.853    -0.007    20.668     6.466
    32   6 C        3.756    -0.118    22.805     6.809
    33   6 C        3.755    -0.120    22.848     6.816
    34   1 H        0.926     0.050     2.316     2.380
    35   1 H        0.924     0.053     2.284     2.363
    36   1 H        0.925     0.080     1.976     2.198
    37   1 H        0.924     0.046     2.375     2.410
    38   1 H        0.924     0.054     2.268     2.355
    39   1 H        0.925     0.080     1.977     2.199
    40   1 H        0.924     0.048     2.341     2.393
    41   1 H        0.926     0.052     2.298     2.371
    42   1 H        0.926     0.039     2.466     2.456
    43   1 H        0.925     0.060     2.200     2.319
    44   1 H        0.924     0.054     2.272     2.357
    45   1 H        0.925     0.066     2.129     2.282
    46   1 H        0.924     0.077     2.010     2.217
    47   1 H        0.922     0.003     3.009     2.713
    48   1 H        0.926     0.067     2.122     2.278
    49   1 H        0.924     0.069     2.100     2.266
    50   1 H        0.924     0.067     2.120     2.277
    51   1 H        0.924     0.069     2.096     2.264
    52   1 H        0.924     0.071     2.076     2.253
    53   1 H        0.926     0.065     2.143     2.289
    54   1 H        0.925     0.065     2.139     2.287
    55   1 H        0.924     0.054     2.273     2.358
    56   1 H        0.924     0.057     2.233     2.337
    57   1 H        0.925     0.080     1.975     2.198
    58   1 H        0.925     0.070     2.091     2.261
    59   1 H        0.924     0.043     2.414     2.430
    60   1 H        0.924     0.062     2.180     2.309
    61   1 H        0.926     0.051     2.306     2.374
    62   1 H        0.925     0.077     2.009     2.217
    63   1 H        0.924     0.074     2.038     2.233
    64   1 H        0.925     0.079     1.986     2.204
    65   1 H        0.924     0.036     2.501     2.473
    66   1 H        0.925     0.065     2.139     2.287
    67   1 H        0.925     0.035     2.520     2.483
    68   1 H        0.925     0.051     2.310     2.377
    69   1 H        0.925     0.064     2.156     2.296
    70   1 H        0.925     0.034     2.528     2.487
    71   1 H        0.925     0.054     2.275     2.358
    72   1 H        0.860     0.154     1.373     1.836

Wiberg/Mayer (AO) data.
largest (>0.10) Wiberg bond orders for each atom

     #   Z sym  total        # sym  WBO       # sym  WBO       # sym  WBO
 ---------------------------------------------------------------------------
     1   7 N    3.036 --     2 C    1.951    72 H    0.943
     2   6 C    3.928 --     1 N    1.951     3 C    0.995    47 H    0.903
     3   6 C    3.977 --     2 C    0.995     4 C    0.971    14 C    0.957
                            31 C    0.942
     4   6 C    3.949 --    13 C    1.414     5 C    1.370     3 C    0.971
     5   6 C    3.963 --     6 C    1.401     4 C    1.370    34 H    0.958
     6   6 C    3.905 --     5 C    1.401     9 C    1.224     7 O    1.097
     7   8 O    2.253 --     6 C    1.097     8 C    0.979
     8   6 C    3.933 --     7 O    0.979    36 H    0.977    37 H    0.974
                            35 H    0.974
     9   6 C    3.902 --    12 C    1.392     6 C    1.224    10 O    1.100
    10   8 O    2.251 --     9 C    1.100    11 C    0.978
    11   6 C    3.932 --    10 O    0.978    39 H    0.977    38 H    0.974
                            40 H    0.974
    12   6 C    3.963 --    13 C    1.407     9 C    1.392    41 H    0.964
    13   6 C    3.955 --     4 C    1.414    12 C    1.407    42 H    0.962
    14   6 C    3.972 --    15 C    0.981    44 H    0.972    43 H    0.967
                             3 C    0.957
    15   6 C    3.988 --    16 C    1.062    14 C    0.981    45 H    0.960
                            46 H    0.929
    16   6 C    3.556 --    17 N    1.375    15 C    1.062    48 H    0.958
    17   7 N    3.453 --    16 C    1.375    30 C    0.999    18 C    0.991
    18   6 C    3.956 --    17 N    0.991    50 H    0.968    49 H    0.963
                            19 C    0.963
    19   6 C    3.980 --    20 C    1.060    18 C    0.963    51 H    0.953
                            52 H    0.952
    20   6 C    3.903 --    29 C    2.658    19 C    1.060
    21   6 C    3.885 --    22 C    1.812    53 H    0.975    61 H    0.968
    22   6 C    3.970 --    21 C    1.812    23 C    1.141    54 H    0.955
    23   6 C    3.835 --    26 C    1.404    22 C    1.141    24 O    1.102
    24   8 O    2.238 --    23 C    1.102    25 C    0.978
    25   6 C    3.928 --    24 O    0.978    55 H    0.974    57 H    0.974
                            56 H    0.969
    26   6 C    3.807 --    23 C    1.404    29 C    1.151    27 O    1.053
    27   8 O    2.187 --    26 C    1.053    28 C    0.972
    28   6 C    3.927 --    58 H    0.978    59 H    0.976    27 O    0.972
                            60 H    0.970
    29   6 C    3.963 --    20 C    2.658    26 C    1.151
    30   6 C    3.959 --    17 N    0.999    64 H    0.978    62 H    0.970
                            63 H    0.963
    31   6 C    3.973 --    32 C    1.009    33 C    1.008    65 H    0.962
                             3 C    0.942
    32   6 C    3.981 --    31 C    1.009    67 H    0.982    68 H    0.982
                            66 H    0.976
    33   6 C    3.982 --    31 C    1.008    70 H    0.983    71 H    0.980
                            69 H    0.975
    34   1 H    0.996 --     5 C    0.958
    35   1 H    0.994 --     8 C    0.974
    36   1 H    0.993 --     8 C    0.977
    37   1 H    0.994 --     8 C    0.974
    38   1 H    0.993 --    11 C    0.974
    39   1 H    0.993 --    11 C    0.977
    40   1 H    0.993 --    11 C    0.974
    41   1 H    0.996 --    12 C    0.964
    42   1 H    0.998 --    13 C    0.962
    43   1 H    0.994 --    14 C    0.967
    44   1 H    0.996 --    14 C    0.972
    45   1 H    0.994 --    15 C    0.960
    46   1 H    0.969 --    15 C    0.929
    47   1 H    0.988 --     2 C    0.903
    48   1 H    0.995 --    16 C    0.958
    49   1 H    0.989 --    18 C    0.963
    50   1 H    0.994 --    18 C    0.968
    51   1 H    0.993 --    19 C    0.953
    52   1 H    0.987 --    19 C    0.952
    53   1 H    0.995 --    21 C    0.975
    54   1 H    0.994 --    22 C    0.955
    55   1 H    0.992 --    25 C    0.974
    56   1 H    0.988 --    25 C    0.969
    57   1 H    0.992 --    25 C    0.974
    58   1 H    0.993 --    28 C    0.978
    59   1 H    0.997 --    28 C    0.976
    60   1 H    0.986 --    28 C    0.970
    61   1 H    0.997 --    21 C    0.968
    62   1 H    0.987 --    30 C    0.970
    63   1 H    0.985 --    30 C    0.963
    64   1 H    0.994 --    30 C    0.978
    65   1 H    0.993 --    31 C    0.962
    66   1 H    0.992 --    32 C    0.976
    67   1 H    0.997 --    32 C    0.982
    68   1 H    0.995 --    32 C    0.982
    69   1 H    0.993 --    33 C    0.975
    70   1 H    0.997 --    33 C    0.983
    71   1 H    0.994 --    33 C    0.980
    72   1 H    0.971 --     1 N    0.943
 ---------------------------------------------------------------------------

molecular dipole:
                 x           y           z       tot (Debye)
 q only:        1.181      -0.225      -1.388
   full:        1.509      -0.372      -1.646       5.754

           -------------------------------------------------
          | TOTAL ENERGY              -99.290137882035 Eh   |
          | GRADIENT NORM               0.007921415259 Eh/α |
          | HOMO-LUMO GAP               1.326510870552 eV   |
           -------------------------------------------------

 * finished run on 2024/04/06 at 11:14:08.274
