   * xtb version 6.6.1 (8d0f1dd) compiled by 'conda@1efc2f54142f' on 2023-08-01
          program call               : xtb struc.xyz --opt loose --input .xc1 --gfn2

   ID    Z sym.   atoms
    1    6 C      1, 3, 5-7, 10, 11, 14
    2    7 N      2, 4, 9, 13
    3    8 O      8, 12
    4    1 H      15-25
constraining bond 5 23 to    3.7133300 Å, actual value:    2.7817644 Å

          :  Hamiltonian                  GFN2-xTB          :
 * total energy  :   -43.7973692 Eh     change       -0.6650680E-10 Eh
 * total energy  :   -47.0642883 Eh     change       -0.3266919E+01 Eh
 * total energy  :   -52.1096156 Eh     change       -0.5045327E+01 Eh
 * total energy  :   -58.6623252 Eh     change       -0.6552710E+01 Eh
 * total energy  :   -45.8855345 Eh     change        0.1277679E+02 Eh
 * total energy  :   -56.2562238 Eh     change       -0.1037069E+02 Eh
 * total energy  :   -56.6206196 Eh     change       -0.3643958E+00 Eh
 * total energy  :   -59.0810867 Eh     change       -0.2460467E+01 Eh
 * total energy  :   -56.8774282 Eh     change        0.2203659E+01 Eh
 * total energy  :   -59.3871717 Eh     change       -0.2509743E+01 Eh
 * total energy  :   -59.7422554 Eh     change       -0.3550133E-04 Eh
 * total energy  :   -59.7422953 Eh     change       -0.3989395E-04 Eh
 * total energy  :   -59.7423476 Eh     change       -0.5232499E-04 Eh
 * total energy  :   -59.7423877 Eh     change       -0.4008964E-04 Eh
 * total energy  :   -59.7424228 Eh     change       -0.3505195E-04 Eh
 * total energy  :   -59.7423982 Eh     change        0.2454273E-04 Eh
 * total energy  :   -59.7424380 Eh     change       -0.3971172E-04 Eh
 * total energy  :   -59.7424467 Eh     change       -0.8756850E-05 Eh
 * total energy  :   -59.7424672 Eh     change       -0.2049313E-04 Eh
   *** GEOMETRY OPTIMIZATION CONVERGED AFTER 92 ITERATIONS ***

 final structure:
================
25
 xtb: 6.6.1 (8d0f1dd)
C            2.85234184834464        0.71792713094527        0.44912850925837
N            1.83177885813512       -0.23031332208881        0.05981242820689
C            2.12786943243394       -1.40033000722286       -0.44857112400410
N            1.17582155849888       -2.28170707229410       -0.85062582775622
C           -0.26625036893966       -2.12146466234856       -0.63685690052134
C            0.51045780702254        0.14981580596220        0.27223986821303
C           -0.03963490557696        1.43942022696803        0.07565080913618
O            0.46329231971360        2.53556606762386        0.05694636125131
N           -1.45645945242322        1.22724993094528       -0.08538809376195
C           -2.37938064531982        2.33180952350395       -0.23797953875687
C           -1.81638747543356       -0.04434936016608       -0.12272713656462
O           -2.83644558558347       -0.63880982166005       -0.24688644069435
N           -0.50855470839025       -0.83626669477440        0.09663904062647
C           -0.61488543724758       -2.07073890265187        0.84777615658153
H            3.02795436691613        0.65845729935450        1.52428906166982
H            3.77783401782909        0.51302729042060       -0.08198728657508
H            2.50572992942805        1.72641122696573        0.21840961904478
H            3.15908452860339       -1.67847509358698       -0.58245293604632
H           -1.78162737131389        3.22343611103861       -0.42293309345297
H           -3.05356317753735        2.14356347442930       -1.07170173682008
H           -2.96132664820410        2.46518046926913        0.67383176441248
H            0.14331097940729       -2.25292024029618        1.59704044802555
H           -0.53736332150117       -2.25977982536280       -0.93243762454126
H           -1.62852257347556       -2.33793440554625        1.12981849368687
H            1.46535753871196       -3.16053660782518       -1.24986320271764

          :  Hamiltonian                  GFN2-xTB          :
         :: total energy             -59.742467208007 Eh    ::
         :: gradient norm              0.003831211812 Eh/a0 ::
         :: HOMO-LUMO gap              2.459415163680 eV    ::
         :: SCC energy               -42.678587629856 Eh    ::
         :: -> dispersion             -0.023305696018 Eh    ::
         :: repulsion energy           2.251720788564 Eh    ::

    * Orbital Energies and Occupations

         #    Occupation            Energy/Eh            Energy/eV
      -------------------------------------------------------------
         1        2.0000           -0.9297983             -25.3011
       ...           ...                  ...                  ...
        25        2.0000           -0.6769034             -18.4195
        26        2.0000           -0.6745025             -18.3541
        27        2.0000           -0.6672175             -18.1559
        28        2.0000           -0.6562409             -17.8572
        29        2.0000           -0.6410263             -17.4432
        30        1.9999           -0.6372576             -17.3407
        31        1.9999           -0.6335635             -17.2401
        32        1.9998           -0.6145690             -16.7233
        33        1.9996           -0.6055001             -16.4765
        34        1.9992           -0.5949661             -16.1899
        35        1.9959           -0.5685115             -15.4700
        36        1.9917           -0.5572099             -15.1625
        37        1.8791           -0.5138522             -13.9826 (HOMO)
        38        0.0981           -0.4234703             -11.5232 (LUMO)
        39        0.0365           -0.4073005             -11.0832
        40        0.0002           -0.3261523              -8.8751
        41        0.0001           -0.3030119              -8.2454
        42        0.0000           -0.2715512              -7.3893
        43        0.0000           -0.2381929              -6.4816
        44                         -0.1825113              -4.9664
        45                         -0.1692546              -4.6057
        46                         -0.1430354              -3.8922
        47                         -0.1018735              -2.7721
        48                         -0.0702566              -1.9118
       ...                                ...                  ...
        67                         10.6269994             289.1754
      -------------------------------------------------------------
                  HL-Gap            0.0903818 Eh            2.4594 eV

     #   Z          covCN         q      C6AA      α(0)
     1   6 C        3.709    -0.094    22.445     6.771
     2   7 N        2.736     0.060    20.192     6.674
     3   6 C        2.794     0.059    26.669     8.460
     4   7 N        2.690    -0.152    24.292     7.320
     5   6 C        3.721     0.057    19.727     6.344
     6   6 C        2.904    -0.059    29.458     8.900
     7   6 C        2.808     0.252    22.778     7.819
     8   8 O        0.857    -0.379    21.261     6.182
     9   7 N        2.777    -0.079    22.773     7.088
    10   6 C        3.693    -0.059    21.824     6.684
    11   6 C        2.742     0.304    21.844     7.653
    12   8 O        0.856    -0.333    20.384     6.053
    13   7 N        3.656     0.057    20.239     6.682
    14   6 C        3.741    -0.035    21.272     6.580
    15   1 H        0.924     0.104     1.746     2.066
    16   1 H        0.925     0.097     1.817     2.108
    17   1 H        0.924     0.136     1.492     1.910
    18   1 H        0.926     0.110     1.694     2.035
    19   1 H        0.925     0.118     1.630     1.996
    20   1 H        0.925     0.094     1.837     2.120
    21   1 H        0.925     0.095     1.832     2.116
    22   1 H        0.925     0.115     1.656     2.013
    23   1 H        0.938     0.177     1.222     1.728
    24   1 H        0.925     0.134     1.507     1.919
    25   1 H        0.860     0.221     1.005     1.570

Wiberg/Mayer (AO) data.
largest (>0.10) Wiberg bond orders for each atom

     #   Z sym  total        # sym  WBO       # sym  WBO       # sym  WBO
 ---------------------------------------------------------------------------
     1   6 C    3.917 --     2 N    0.976    16 H    0.974    15 H    0.958
                            17 H    0.951
     2   7 N    3.650 --     3 C    1.428     6 C    1.072     1 C    0.976
                             4 N    0.109
     3   6 C    3.840 --     2 N    1.428     4 N    1.226    18 H    0.946
     4   7 N    3.387 --     3 C    1.226     5 C    1.004    25 H    0.924
                             2 N    0.109
     5   6 C    3.859 --     4 N    1.004    23 H    0.953    14 C    0.941
                            13 N    0.868
     6   6 C    3.617 --     7 C    1.212     2 N    1.072    13 N    0.961
                             8 O    0.140
     7   6 C    3.939 --     8 O    1.663     6 C    1.212     9 N    0.953
     8   8 O    2.030 --     7 C    1.663     6 C    0.140
     9   7 N    3.571 --    11 C    1.297    10 C    0.966     7 C    0.953
                            12 O    0.195
    10   6 C    3.918 --    20 H    0.971    19 H    0.967     9 N    0.966
                            21 H    0.965
    11   6 C    3.928 --    12 O    1.755     9 N    1.297    13 N    0.772
    12   8 O    2.141 --    11 C    1.755     9 N    0.195    13 N    0.104
    13   7 N    3.709 --     6 C    0.961    14 C    0.909     5 C    0.868
                            11 C    0.772    12 O    0.104
    14   6 C    3.874 --    22 H    0.966    24 H    0.956     5 C    0.941
                            13 N    0.909
    15   1 H    0.985 --     1 C    0.958
    16   1 H    0.990 --     1 C    0.974
    17   1 H    0.980 --     1 C    0.951
    18   1 H    0.987 --     3 C    0.946
    19   1 H    0.985 --    10 C    0.967
    20   1 H    0.990 --    10 C    0.971
    21   1 H    0.988 --    10 C    0.965
    22   1 H    0.986 --    14 C    0.966
    23   1 H    0.969 --     5 C    0.953
    24   1 H    0.981 --    14 C    0.956
    25   1 H    0.950 --     4 N    0.924
 ---------------------------------------------------------------------------

molecular dipole:
                 x           y           z       tot (Debye)
 q only:        1.540      -2.347      -0.049
   full:        1.670      -2.751      -0.140       8.187

           -------------------------------------------------
          | TOTAL ENERGY              -59.742467208007 Eh   |
          | GRADIENT NORM               0.003831211812 Eh/α |
          | HOMO-LUMO GAP               2.459415163680 eV   |
           -------------------------------------------------

 * finished run on 2024/06/05 at 20:00:26.972
