   * xtb version 6.6.1 (8d0f1dd) compiled by 'conda@1efc2f54142f' on 2023-08-01
          program call               : xtb struc.xyz --opt loose --input .xc1 --gfn2

   ID    Z sym.   atoms
    1    7 N      1, 17
    2    6 C      2-6, 8, 9, 11-16, 18-23, 25, 26, 28-33
    3    8 O      7, 10, 24, 27
    4    1 H      34-72
constraining bond 31 44 to    5.1400000 Å, actual value:    2.8538287 Å

          :  Hamiltonian                  GFN2-xTB          :
 * total energy  :   -98.4709084 Eh     change       -0.4035485E-08 Eh
 * total energy  :   -98.8018865 Eh     change       -0.3309780E+00 Eh
 * total energy  :   -98.9982145 Eh     change       -0.1963281E+00 Eh
 * total energy  :   -99.1026096 Eh     change       -0.1043951E+00 Eh
 * total energy  :   -99.1562411 Eh     change       -0.5363150E-01 Eh
 * total energy  :   -99.1842264 Eh     change       -0.2798529E-01 Eh
 * total energy  :   -99.1988291 Eh     change       -0.1460264E-01 Eh
 * total energy  :   -99.2085739 Eh     change       -0.9744847E-02 Eh
 * total energy  :   -99.2209027 Eh     change       -0.1232876E-01 Eh
 * total energy  :   -99.2321519 Eh     change       -0.1124925E-01 Eh
 * total energy  :   -99.3569812 Eh     change       -0.2042810E-03 Eh
 * total energy  :   -99.3571595 Eh     change       -0.1783171E-03 Eh
 * total energy  :   -99.3573300 Eh     change       -0.1704872E-03 Eh
 * total energy  :   -99.3574830 Eh     change       -0.1529207E-03 Eh
 * total energy  :   -99.3576203 Eh     change       -0.1373522E-03 Eh
 * total energy  :   -99.3577495 Eh     change       -0.1292351E-03 Eh
 * total energy  :   -99.3578214 Eh     change       -0.7183161E-04 Eh
 * total energy  :   -99.3578817 Eh     change       -0.6034087E-04 Eh
 * total energy  :   -99.3579220 Eh     change       -0.4026550E-04 Eh
   *** GEOMETRY OPTIMIZATION CONVERGED AFTER 96 ITERATIONS ***

 final structure:
================
72
 xtb: 6.6.1 (8d0f1dd)
N           -3.29316359043976        3.13283213210661        3.08925641170545
C           -3.17853781032591        1.99933757599622        2.56659604425360
C           -3.44992450139640        1.73730684519740        1.09728564860278
C           -4.09187779329129        0.38159830357262        0.89043651186876
C           -4.03904125554957       -0.20678878673648       -0.37403669814140
C           -4.67157539447069       -1.41146050204674       -0.63264786930672
O           -4.68879555966920       -2.04418195375636       -1.82504741424280
C           -4.14388760530508       -1.40459873984307       -2.95346380674795
C           -5.37929487496067       -2.06990562552791        0.41252673429560
O           -5.95365565923414       -3.24060210169852        0.07746528890019
C           -6.72134713450368       -3.92744512680778        1.03922013353556
C           -5.43590296921137       -1.46855438980114        1.66123597888198
C           -4.80746581104248       -0.25416292747108        1.89374054843879
C           -2.01951030973005        1.78330593281427        0.65574440678663
C           -1.18317474480679        0.70093233389184        0.62302739855128
C            0.18730637233234        0.83705440642000        0.39939906507964
N            1.07236309257667       -0.15833940323716        0.34400659095802
C            2.48498234807012        0.10976512201950        0.23557021838268
C            3.01937076840364       -0.05078281574918       -1.20150664132103
C            4.51291564760441        0.11311281004841       -1.19045558353845
C            5.10548083944580        1.32994572622642       -1.48711169765039
C            6.48124144118438        1.48681465435089       -1.41171166575761
C            7.29444685766871        0.42959363717165       -1.02723879243360
O            8.63216546474450        0.47077170613008       -0.90303742165969
C            9.31229020628837        1.67841375404198       -1.15704377538733
C            6.69554791888499       -0.82714947516018       -0.72904609100964
O            7.55450037394474       -1.80175526172688       -0.37252660102511
C            7.05596050683003       -3.08255138010189       -0.06837177801362
C            5.31889221107503       -0.95947533372620       -0.81396079318350
C            0.65283449886955       -1.53812667189350        0.38763446060583
C           -4.35178890917641        2.80369975463072        0.40828109116258
C           -5.69963540780799        2.89643975152820        1.11904249480332
C           -3.72556949973346        4.19215473800067        0.31427836627312
H           -3.49860314592146        0.29686878945477       -1.16085829471742
H           -4.62230756729632       -0.43895980510704       -3.13856723988622
H           -4.34409288512289       -2.07188132805644       -3.79026606643054
H           -3.06258208133218       -1.26102770285954       -2.85451053819945
H           -7.56272791864383       -3.32101133486899        1.38628430354449
H           -7.09983933494328       -4.81335426631858        0.53274840565973
H           -6.11231122940667       -4.23135844401110        1.89554273943531
H           -5.98422194183609       -1.93329350916882        2.46428845073487
H           -4.89879020142750        0.19758630820683        2.86914744239709
H           -1.60534441226776        2.76575012969738        0.49489950733809
H           -0.99786612613336        0.77726231666937       -2.91961949795488
H           -1.59579557772956       -0.28334237632839        0.78965804129074
H           -0.93128263894803        0.84351003612811       -2.14484976198752
H           -2.79107884641409        1.11390422876337        3.08824061111440
H            0.59382437760007        1.83315259135105        0.29049452306356
H            3.02233944504625       -0.57802761332337        0.89590815492346
H            2.68609592844995        1.12748229141781        0.57600536150446
H            2.55759253403094        0.70132953566942       -1.84269902645467
H            2.75275009953239       -1.03799041388440       -1.58245056597550
H            4.49589776047767        2.16824814944371       -1.78732552719830
H            6.91357388002282        2.44356699637387       -1.65478183411897
H            8.96962584879448        2.47824792045537       -0.49392544978921
H            9.19516335597007        1.99155550205422       -2.19812779754303
H           10.36108147939502        1.46930007866397       -0.95841180892033
H            7.92826492850986       -3.68447027035316        0.17946212909106
H            6.37934891792718       -3.05605306893755        0.79234535070752
H            6.54128829549885       -3.52683510338124       -0.92626963121015
H            4.85621862243408       -1.90929991188752       -0.59543924847872
H           -0.10668162672436       -1.73542781825515       -0.37135294732439
H            0.23666931332930       -1.78669159340338        1.36758252826226
H            1.50656262745461       -2.18357883811474        0.20334639987360
H           -4.52708723468298        2.43604705668093       -0.60991218636802
H           -5.56716085849044        3.30959982126845        2.11491675497026
H           -6.17131770907374        1.92010387284187        1.19967953869743
H           -6.36506035143230        3.55027636145166        0.56187629396471
H           -3.39263651435303        4.51936057504086        1.29485163459099
H           -2.89257720369225        4.21606912792578       -0.38416739280209
H           -4.47447244073619        4.89302939394954       -0.04564523473840
H           -3.03209368807510        3.22729314832067        4.06562595788518

          :  Hamiltonian                  GFN2-xTB          :
         :: total energy             -99.357921984553 Eh    ::
         :: gradient norm              0.002546779004 Eh/a0 ::
         :: HOMO-LUMO gap              1.370480984309 eV    ::
         :: SCC energy              -100.780099171166 Eh    ::
         :: -> dispersion             -0.072259981582 Eh    ::
         :: repulsion energy           1.421304901035 Eh    ::

    * Orbital Energies and Occupations

         #    Occupation            Energy/Eh            Energy/eV
      -------------------------------------------------------------
         1        2.0000           -0.8093156             -22.0226
       ...           ...                  ...                  ...
        78        1.9979           -0.5293980             -14.4057
        79        1.9978           -0.5290181             -14.3953
        80        1.9963           -0.5207356             -14.1699
        81        1.9962           -0.5202484             -14.1567
        82        1.9945           -0.5143391             -13.9959
        83        1.9938           -0.5125587             -13.9474
        84        1.9924           -0.5092421             -13.8572
        85        1.9907           -0.5059799             -13.7684
        86        1.9725           -0.4886954             -13.2981
        87        1.9712           -0.4879321             -13.2773
        88        1.9024           -0.4680669             -12.7367
        89        1.8200           -0.4576682             -12.4538
        90        1.8086           -0.4565993             -12.4247 (HOMO)
        91        0.5640           -0.4062350             -11.0542 (LUMO)
        92        0.0061           -0.3293686              -8.9626
        93        0.0023           -0.3137594              -8.5378
        94        0.0022           -0.3131503              -8.5213
        95        0.0019           -0.3108839              -8.4596
        96        0.0018           -0.3103009              -8.4437
        97        0.0001           -0.2681034              -7.2955
        98        0.0000           -0.1884631              -5.1283
        99        0.0000           -0.1881274              -5.1192
       100                         -0.1224943              -3.3332
       101                         -0.0638861              -1.7384
       ...                                ...                  ...
       171                          0.5762219              15.6798
      -------------------------------------------------------------
                  HL-Gap            0.0503642 Eh            1.3705 eV

     #   Z          covCN         q      C6AA      α(0)
     1   7 N        1.774    -0.275    27.946     7.828
     2   6 C        2.909     0.105    25.688     8.311
     3   6 C        3.915     0.016    20.251     6.396
     4   6 C        2.975     0.004    27.941     8.671
     5   6 C        2.919    -0.076    29.893     8.966
     6   6 C        2.862     0.131    25.140     8.218
     7   8 O        1.706    -0.228    17.786     5.694
     8   6 C        3.644     0.028    20.437     6.498
     9   6 C        2.864     0.133    25.095     8.211
    10   8 O        1.706    -0.223    17.696     5.680
    11   6 C        3.646     0.025    20.486     6.505
    12   6 C        2.914    -0.068    29.696     8.936
    13   6 C        2.920    -0.045    29.115     8.849
    14   6 C        2.996    -0.029    28.711     8.790
    15   6 C        2.892    -0.056    29.402     8.890
    16   6 C        2.856     0.015    27.678     8.623
    17   7 N        2.731     0.000    21.265     6.849
    18   6 C        3.755    -0.016    20.913     6.521
    19   6 C        3.807    -0.071    21.846     6.654
    20   6 C        2.970     0.003    27.947     8.671
    21   6 C        2.921    -0.046    29.146     8.853
    22   6 C        2.914    -0.066    29.649     8.929
    23   6 C        2.864     0.135    25.055     8.205
    24   8 O        1.706    -0.218    17.621     5.668
    25   6 C        3.645     0.024    20.506     6.508
    26   6 C        2.863     0.134    25.069     8.207
    27   8 O        1.706    -0.222    17.682     5.677
    28   6 C        3.645     0.027    20.462     6.501
    29   6 C        2.920    -0.079    29.976     8.978
    30   6 C        3.700    -0.065    21.908     6.694
    31   6 C        3.853    -0.005    20.627     6.460
    32   6 C        3.756    -0.115    22.761     6.802
    33   6 C        3.755    -0.120    22.858     6.817
    34   1 H        0.926     0.049     2.328     2.386
    35   1 H        0.924     0.054     2.271     2.357
    36   1 H        0.925     0.081     1.967     2.193
    37   1 H        0.924     0.045     2.388     2.417
    38   1 H        0.924     0.057     2.232     2.336
    39   1 H        0.925     0.082     1.958     2.188
    40   1 H        0.924     0.054     2.268     2.355
    41   1 H        0.926     0.059     2.214     2.327
    42   1 H        0.926     0.050     2.316     2.380
    43   1 H        0.926     0.062     2.177     2.307
    44   1 H        0.802     0.010     2.946     2.696
    45   1 H        0.926     0.051     2.310     2.377
    46   1 H        0.802    -0.012     3.345     2.873
    47   1 H        0.923     0.016     2.793     2.614
    48   1 H        0.925     0.064     2.156     2.296
    49   1 H        0.924     0.066     2.125     2.280
    50   1 H        0.924     0.066     2.125     2.279
    51   1 H        0.924     0.056     2.246     2.343
    52   1 H        0.924     0.056     2.250     2.346
    53   1 H        0.926     0.050     2.318     2.381
    54   1 H        0.926     0.060     2.193     2.316
    55   1 H        0.924     0.056     2.248     2.345
    56   1 H        0.924     0.058     2.222     2.331
    57   1 H        0.925     0.084     1.942     2.179
    58   1 H        0.925     0.083     1.949     2.183
    59   1 H        0.924     0.050     2.324     2.384
    60   1 H        0.924     0.054     2.274     2.358
    61   1 H        0.926     0.048     2.351     2.398
    62   1 H        0.924     0.073     2.054     2.241
    63   1 H        0.924     0.073     2.058     2.243
    64   1 H        0.925     0.076     2.018     2.221
    65   1 H        0.924     0.040     2.453     2.449
    66   1 H        0.925     0.061     2.191     2.315
    67   1 H        0.925     0.037     2.495     2.470
    68   1 H        0.925     0.052     2.301     2.372
    69   1 H        0.925     0.073     2.049     2.239
    70   1 H        0.925     0.036     2.506     2.475
    71   1 H        0.925     0.056     2.251     2.346
    72   1 H        0.860     0.162     1.321     1.800

Wiberg/Mayer (AO) data.
largest (>0.10) Wiberg bond orders for each atom

     #   Z sym  total        # sym  WBO       # sym  WBO       # sym  WBO
 ---------------------------------------------------------------------------
     1   7 N    2.971 --     2 C    1.913    72 H    0.936
     2   6 C    3.914 --     1 N    1.913     3 C    0.940    47 H    0.933
     3   6 C    3.965 --    14 C    0.991     4 C    0.979     2 C    0.940
                            31 C    0.935
     4   6 C    3.932 --    13 C    1.406     5 C    1.372     3 C    0.979
     5   6 C    3.957 --     6 C    1.400     4 C    1.372    34 H    0.960
     6   6 C    3.892 --     5 C    1.400     9 C    1.217     7 O    1.098
     7   8 O    2.245 --     6 C    1.098     8 C    0.979
     8   6 C    3.933 --     7 O    0.979    36 H    0.977    35 H    0.973
                            37 H    0.973
     9   6 C    3.888 --    12 C    1.384     6 C    1.217    10 O    1.109
    10   8 O    2.249 --     9 C    1.109    11 C    0.976
    11   6 C    3.928 --    39 H    0.977    10 O    0.976    40 H    0.972
                            38 H    0.972
    12   6 C    3.955 --    13 C    1.413     9 C    1.384    41 H    0.963
    13   6 C    3.943 --    12 C    1.413     4 C    1.406    42 H    0.963
    14   6 C    3.691 --    15 C    1.542     3 C    0.991    43 H    0.959
    15   6 C    3.958 --    14 C    1.542    16 C    1.330    45 H    0.956
    16   6 C    3.731 --    17 N    1.344    15 C    1.330    48 H    0.955
    17   7 N    3.461 --    16 C    1.344    30 C    1.000    18 C    0.994
    18   6 C    3.957 --    17 N    0.994    50 H    0.969    19 C    0.967
                            49 H    0.962
    19   6 C    3.975 --    20 C    1.010    51 H    0.973    52 H    0.969
                            18 C    0.967
    20   6 C    3.936 --    21 C    1.406    29 C    1.378    19 C    1.010
    21   6 C    3.942 --    22 C    1.417    20 C    1.406    53 H    0.967
    22   6 C    3.954 --    21 C    1.417    23 C    1.381    54 H    0.963
    23   6 C    3.886 --    22 C    1.381    26 C    1.213    24 O    1.114
    24   8 O    2.253 --    23 C    1.114    25 C    0.975
    25   6 C    3.926 --    57 H    0.977    24 O    0.975    55 H    0.972
                            56 H    0.972
    26   6 C    3.891 --    29 C    1.395    23 C    1.213    27 O    1.107
    27   8 O    2.252 --    26 C    1.107    28 C    0.978
    28   6 C    3.931 --    27 O    0.978    58 H    0.977    59 H    0.973
                            60 H    0.973
    29   6 C    3.956 --    26 C    1.395    20 C    1.378    61 H    0.962
    30   6 C    3.962 --    17 N    1.000    64 H    0.978    62 H    0.971
                            63 H    0.966
    31   6 C    3.965 --    32 C    1.008    33 C    1.008    65 H    0.959
                             3 C    0.935
    32   6 C    3.980 --    31 C    1.008    68 H    0.981    67 H    0.981
                            66 H    0.978
    33   6 C    3.975 --    31 C    1.008    70 H    0.981    71 H    0.978
                            69 H    0.970
    34   1 H    0.996 --     5 C    0.960
    35   1 H    0.992 --     8 C    0.973
    36   1 H    0.993 --     8 C    0.977
    37   1 H    0.993 --     8 C    0.973
    38   1 H    0.991 --    11 C    0.972
    39   1 H    0.992 --    11 C    0.977
    40   1 H    0.991 --    11 C    0.972
    41   1 H    0.994 --    12 C    0.963
    42   1 H    0.996 --    13 C    0.963
    43   1 H    0.995 --    14 C    0.959
    44   1 H    0.998 --    46 H    0.993
    45   1 H    0.997 --    15 C    0.956
    46   1 H    1.000 --    44 H    0.993
    47   1 H    0.979 --     2 C    0.933
    48   1 H    0.996 --    16 C    0.955
    49   1 H    0.989 --    18 C    0.962
    50   1 H    0.994 --    18 C    0.969
    51   1 H    0.996 --    19 C    0.973
    52   1 H    0.995 --    19 C    0.969
    53   1 H    0.997 --    21 C    0.967
    54   1 H    0.994 --    22 C    0.963
    55   1 H    0.991 --    25 C    0.972
    56   1 H    0.990 --    25 C    0.972
    57   1 H    0.992 --    25 C    0.977
    58   1 H    0.992 --    28 C    0.977
    59   1 H    0.992 --    28 C    0.973
    60   1 H    0.992 --    28 C    0.973
    61   1 H    0.996 --    29 C    0.962
    62   1 H    0.988 --    30 C    0.971
    63   1 H    0.986 --    30 C    0.966
    64   1 H    0.994 --    30 C    0.978
    65   1 H    0.990 --    31 C    0.959
    66   1 H    0.992 --    32 C    0.978
    67   1 H    0.996 --    32 C    0.981
    68   1 H    0.994 --    32 C    0.981
    69   1 H    0.989 --    33 C    0.970
    70   1 H    0.996 --    33 C    0.981
    71   1 H    0.993 --    33 C    0.978
    72   1 H    0.964 --     1 N    0.936
 ---------------------------------------------------------------------------

molecular dipole:
                 x           y           z       tot (Debye)
 q only:        0.941      -0.296       0.209
   full:        0.999      -0.483       0.498       3.091

           -------------------------------------------------
          | TOTAL ENERGY              -99.357921984553 Eh   |
          | GRADIENT NORM               0.002546779004 Eh/α |
          | HOMO-LUMO GAP               1.370480984309 eV   |
           -------------------------------------------------

 * finished run on 2024/04/06 at 11:14:56.548
