   * xtb version 6.6.1 (8d0f1dd) compiled by 'conda@1efc2f54142f' on 2023-08-01
          program call               : xtb struc.xyz --opt loose --input .xc1 --gfn2

   ID    Z sym.   atoms
    1    6 C      1, 3, 5-7, 10, 11, 14
    2    7 N      2, 4, 9, 13
    3    8 O      8, 12
    4    1 H      15-25
constraining bond 2 5 to    4.9200000 Å, actual value:    2.2205058 Å

          :  Hamiltonian                  GFN2-xTB          :
 * total energy  :     9.7987523 Eh     change       -0.6650680E-10 Eh
 * total energy  :   -12.8785675 Eh     change       -0.2267732E+02 Eh
 * total energy  :   -26.0515861 Eh     change       -0.1317302E+02 Eh
 * total energy  :   -34.1167391 Eh     change       -0.8065153E+01 Eh
 * total energy  :   -39.3509574 Eh     change       -0.5234218E+01 Eh
 * total energy  :   -40.8907421 Eh     change       -0.1539785E+01 Eh
 * total energy  :   -41.1552592 Eh     change       -0.2645171E+00 Eh
 * total energy  :   -41.2913717 Eh     change       -0.1361125E+00 Eh
 * total energy  :   -41.4027841 Eh     change       -0.1114124E+00 Eh
 * total energy  :   -41.4404471 Eh     change       -0.3766301E-01 Eh
 * total energy  :   -42.1703408 Eh     change        0.2817065E-03 Eh
 * total energy  :   -42.1715180 Eh     change       -0.1177157E-02 Eh
 * total energy  :   -42.1719900 Eh     change       -0.4720068E-03 Eh
 * total energy  :   -42.1721925 Eh     change       -0.2024870E-03 Eh
 * total energy  :   -42.1724277 Eh     change       -0.2351549E-03 Eh
 * total energy  :   -42.1726237 Eh     change       -0.1960572E-03 Eh
 * total energy  :   -42.1727346 Eh     change       -0.1108604E-03 Eh
 * total energy  :   -42.1728031 Eh     change       -0.6848247E-04 Eh
 * total energy  :   -42.1728334 Eh     change       -0.3033134E-04 Eh
   *** GEOMETRY OPTIMIZATION CONVERGED AFTER 51 ITERATIONS ***

 final structure:
================
25
 xtb: 6.6.1 (8d0f1dd)
C            3.47364994767636        1.82206340669715        0.07263893992922
N            3.39548445693546        0.79839071377317       -0.63605359524595
C            1.50118501848169       -1.13884766934930        0.33867361913197
N            0.90374050363750       -2.36245429863960        0.19912846220405
C           -0.42375366908084       -2.23166421565136        0.02945288616007
C            0.49963705277234       -0.21413967812433        0.24671693337722
C            0.15485123338902        1.21309764402319        0.25675830659917
O            0.84841577444768        2.18884179400696        0.37561526181307
N           -1.23143432575061        1.21973325235596        0.07744165415231
C           -2.01650458175882        2.43373803025538        0.02801507760669
C           -1.79339139416856       -0.02187117300778       -0.04697038651119
O           -2.92896780709717       -0.34453380305502       -0.20983012524568
N           -0.67634557424297       -0.91766511870607        0.06069309198548
C           -1.41335352854827       -3.30333512367735       -0.14168048141935
H            3.36354419293384        1.72514389392364        1.14578916640780
H            3.51736608542792        0.89639250953538       -1.63980881481939
H            3.65889558205301        2.83350480797275       -0.28802091434864
H            2.55794650824545       -0.99723720611714        0.45093123611162
H           -1.32993076897506        3.27579323946192        0.08870765474672
H           -2.57971780523475        2.47431513446886       -0.90378827414825
H           -2.71486929473505        2.46315782655729        0.86439297221786
H           -1.37960260115350       -3.99852070432755        0.69769961679594
H           -1.21342020704592       -3.87550367885972       -1.04857701279772
H           -2.41115083280673       -2.87512813261621       -0.20940491080183
H            1.39815754869896       -3.24503290929889        0.22265125399568

          :  Hamiltonian                  GFN2-xTB          :
         :: total energy             -42.172833386021 Eh    ::
         :: gradient norm              0.002696216870 Eh/a0 ::
         :: HOMO-LUMO gap              1.776094133064 eV    ::
         :: SCC energy               -42.726109715060 Eh    ::
         :: -> dispersion             -0.021422255308 Eh    ::
         :: repulsion energy           0.553177836600 Eh    ::

    * Orbital Energies and Occupations

         #    Occupation            Energy/Eh            Energy/eV
      -------------------------------------------------------------
         1        2.0000           -0.9064214             -24.6650
       ...           ...                  ...                  ...
        25        2.0000           -0.6615162             -18.0008
        26        1.9999           -0.6544815             -17.8093
        27        1.9999           -0.6534090             -17.7802
        28        1.9998           -0.6352686             -17.2865
        29        1.9998           -0.6348210             -17.2744
        30        1.9994           -0.6197256             -16.8636
        31        1.9992           -0.6151244             -16.7384
        32        1.9989           -0.6106317             -16.6161
        33        1.9966           -0.5922447             -16.1158
        34        1.9956           -0.5882860             -16.0081
        35        1.9865           -0.5704986             -15.5241
        36        1.9822           -0.5660764             -15.4037
        37        1.7866           -0.5250874             -14.2884 (HOMO)
        38        0.2390           -0.4598171             -12.5123 (LUMO)
        39        0.0142           -0.4132308             -11.2446
        40        0.0022           -0.3839357             -10.4474
        41        0.0002           -0.3418251              -9.3015
        42        0.0000           -0.3145307              -8.5588
        43                         -0.2050744              -5.5804
        44                         -0.1508757              -4.1055
        45                         -0.1363321              -3.7098
        46                         -0.0873439              -2.3767
        47                         -0.0580699              -1.5802
        48                         -0.0325460              -0.8856
       ...                                ...                  ...
        67                          0.6066992              16.5091
      -------------------------------------------------------------
                  HL-Gap            0.0652703 Eh            1.7761 eV

     #   Z          covCN         q      C6AA      α(0)
     1   6 C        2.760     0.064    26.539     8.436
     2   7 N        1.770    -0.236    26.978     7.691
     3   6 C        2.992     0.014    27.696     8.633
     4   7 N        2.845    -0.038    21.973     6.962
     5   6 C        3.013     0.144    24.850     8.177
     6   6 C        3.152     0.010    27.516     8.579
     7   6 C        2.814     0.274    22.367     7.749
     8   8 O        0.857    -0.342    20.550     6.078
     9   7 N        2.809    -0.073    22.663     7.071
    10   6 C        3.692    -0.061    21.858     6.690
    11   6 C        2.766     0.324    21.504     7.594
    12   8 O        0.857    -0.326    20.257     6.034
    13   7 N        2.942    -0.023    21.684     6.916
    14   6 C        3.754    -0.147    23.388     6.896
    15   1 H        0.925     0.104     1.749     2.068
    16   1 H        0.860     0.186     1.178     1.700
    17   1 H        0.925     0.091     1.871     2.139
    18   1 H        0.926     0.141     1.456     1.887
    19   1 H        0.925     0.109     1.706     2.043
    20   1 H        0.925     0.097     1.815     2.107
    21   1 H        0.925     0.097     1.816     2.108
    22   1 H        0.924     0.117     1.642     2.004
    23   1 H        0.924     0.118     1.631     1.997
    24   1 H        0.925     0.125     1.573     1.961
    25   1 H        0.860     0.232     0.958     1.533

Wiberg/Mayer (AO) data.
largest (>0.10) Wiberg bond orders for each atom

     #   Z sym  total        # sym  WBO       # sym  WBO       # sym  WBO
 ---------------------------------------------------------------------------
     1   6 C    3.895 --     2 N    2.019    15 H    0.942    17 H    0.920
     2   7 N    2.985 --     1 C    2.019    16 H    0.924
     3   6 C    3.891 --     6 C    1.538     4 N    1.220    18 H    0.945
     4   7 N    3.629 --     5 C    1.311     3 C    1.220    25 H    0.919
     5   6 C    3.859 --     4 N    1.311    13 N    1.288    14 C    1.060
     6   6 C    3.892 --     3 C    1.538    13 N    1.121     7 C    1.021
     7   6 C    3.903 --     8 O    1.718     9 N    1.089     6 C    1.021
     8   8 O    2.032 --     7 C    1.718     9 N    0.131
     9   7 N    3.566 --    11 C    1.154     7 C    1.089    10 C    0.974
                            12 O    0.145     8 O    0.131
    10   6 C    3.918 --     9 N    0.974    19 H    0.971    20 H    0.966
                            21 H    0.965
    11   6 C    3.907 --    12 O    1.741     9 N    1.154    13 N    0.941
    12   8 O    2.069 --    11 C    1.741     9 N    0.145
    13   7 N    3.633 --     5 C    1.288     6 C    1.121    11 C    0.941
    14   6 C    3.962 --     5 C    1.060    24 H    0.965    22 H    0.940
                            23 H    0.937
    15   1 H    0.966 --     1 C    0.942
    16   1 H    0.947 --     2 N    0.924
    17   1 H    0.938 --     1 C    0.920
    18   1 H    0.979 --     3 C    0.945
    19   1 H    0.987 --    10 C    0.971
    20   1 H    0.986 --    10 C    0.966
    21   1 H    0.985 --    10 C    0.965
    22   1 H    0.980 --    14 C    0.940
    23   1 H    0.979 --    14 C    0.937
    24   1 H    0.984 --    14 C    0.965
    25   1 H    0.946 --     4 N    0.919
 ---------------------------------------------------------------------------

molecular dipole:
                 x           y           z       tot (Debye)
 q only:        1.278      -2.077       0.010
   full:        1.512      -2.074      -0.092       6.528

           -------------------------------------------------
          | TOTAL ENERGY              -42.172833386021 Eh   |
          | GRADIENT NORM               0.002696216870 Eh/α |
          | HOMO-LUMO GAP               1.776094133064 eV   |
           -------------------------------------------------

 * finished run on 2024/06/05 at 20:00:06.680
