   * xtb version 6.6.1 (8d0f1dd) compiled by 'conda@1efc2f54142f' on 2023-08-01
          program call               : xtb xtbopt.xyz --opt crude --input .xc2 --gfn2

   ID    Z sym.   atoms
    1    6 C      1, 3, 5-7, 10, 11, 14
    2    7 N      2, 4, 9, 13
    3    8 O      8, 12
    4    1 H      15-25

          :  Hamiltonian                  GFN2-xTB          :
 * total energy  :   -42.1728348 Eh     change        0.2131628E-13 Eh
 * total energy  :   -42.1730695 Eh     change       -0.2347734E-03 Eh
   *** GEOMETRY OPTIMIZATION CONVERGED AFTER 2 ITERATIONS ***

 final structure:
================
25
 xtb: 6.6.1 (8d0f1dd)
C            3.49136763519415        1.83340800660285        0.06900072137465
N            3.44184733646284        0.81388327586216       -0.64680315718863
C            1.49381152973509       -1.14435225308464        0.34311245319314
N            0.89540272068242       -2.36762090761971        0.20357619373272
C           -0.43266451256303       -2.23646869207508        0.03414010875303
C            0.49342190810200       -0.21922082261156        0.24962255568255
C            0.15165711552153        1.20876719612357        0.25754049812558
O            0.84737294520220        2.18314923455056        0.37585524897948
N           -1.23460060903097        1.21762825257812        0.07786361773899
C           -2.01734625994405        2.43324994500109        0.02802929758080
C           -1.79832152679925       -0.02325674471340       -0.04635079343362
O           -2.93414365004051       -0.34414534535761       -0.21013444388952
N           -0.68329490716212       -0.92152170812585        0.06348867682932
C           -1.41994753907194       -3.30845676054555       -0.14116030337250
H            3.37817248226247        1.72457073444462        1.14070748600599
H            3.54664386117421        0.92153979763672       -1.65179521423985
H            3.64713312970906        2.85301131148114       -0.28564093993272
H            2.55038321838404       -1.00413003851843        0.45704036191346
H           -1.32928975209191        3.27408643612450        0.08895685781792
H           -2.58038945127103        2.47502164563267       -0.90382042881294
H           -2.71585474027155        2.46413584790239        0.86419409861855
H           -1.38648856107825       -4.00464883603948        0.69730614050561
H           -1.21592729134520       -3.87878590090808       -1.04831900747604
H           -2.41790158219967       -2.88118523944366       -0.21107367204642
H            1.38938801454076       -3.25041989329624        0.22583526143736

          :  Hamiltonian                  GFN2-xTB          :
         :: total energy             -42.173069533860 Eh    ::
         :: gradient norm              0.002640673897 Eh/a0 ::
         :: HOMO-LUMO gap              1.765526104321 eV    ::
         :: SCC energy               -42.726487237598 Eh    ::
         :: -> dispersion             -0.021350817598 Eh    ::
         :: repulsion energy           0.553321308339 Eh    ::

    * Orbital Energies and Occupations

         #    Occupation            Energy/Eh            Energy/eV
      -------------------------------------------------------------
         1        2.0000           -0.9064474             -24.6657
       ...           ...                  ...                  ...
        25        2.0000           -0.6617191             -18.0063
        26        1.9999           -0.6545134             -17.8102
        27        1.9999           -0.6535384             -17.7837
        28        1.9998           -0.6352196             -17.2852
        29        1.9998           -0.6349526             -17.2779
        30        1.9994           -0.6195905             -16.8599
        31        1.9992           -0.6149840             -16.7346
        32        1.9989           -0.6106602             -16.6169
        33        1.9966           -0.5922449             -16.1158
        34        1.9957           -0.5884316             -16.0120
        35        1.9867           -0.5706277             -15.5276
        36        1.9824           -0.5660647             -15.4034
        37        1.7838           -0.5247151             -14.2782 (HOMO)
        38        0.2411           -0.4598332             -12.5127 (LUMO)
        39        0.0145           -0.4134353             -11.2501
        40        0.0022           -0.3835701             -10.4375
        41        0.0002           -0.3418371              -9.3019
        42        0.0000           -0.3145645              -8.5597
        43                         -0.2052885              -5.5862
        44                         -0.1511526              -4.1131
        45                         -0.1363540              -3.7104
        46                         -0.0876862              -2.3861
        47                         -0.0576100              -1.5676
        48                         -0.0325297              -0.8852
       ...                                ...                  ...
        67                          0.6067950              16.5117
      -------------------------------------------------------------
                  HL-Gap            0.0648819 Eh            1.7655 eV

     #   Z          covCN         q      C6AA      α(0)
     1   6 C        2.760     0.064    26.547     8.438
     2   7 N        1.770    -0.233    26.922     7.683
     3   6 C        2.992     0.014    27.691     8.632
     4   7 N        2.845    -0.038    21.980     6.963
     5   6 C        3.012     0.144    24.851     8.177
     6   6 C        3.153     0.009    27.519     8.579
     7   6 C        2.814     0.274    22.371     7.749
     8   8 O        0.857    -0.342    20.560     6.079
     9   7 N        2.809    -0.074    22.665     7.071
    10   6 C        3.692    -0.061    21.857     6.690
    11   6 C        2.766     0.324    21.504     7.594
    12   8 O        0.857    -0.326    20.258     6.034
    13   7 N        2.942    -0.023    21.688     6.917
    14   6 C        3.754    -0.146    23.386     6.896
    15   1 H        0.925     0.104     1.747     2.067
    16   1 H        0.860     0.187     1.177     1.699
    17   1 H        0.924     0.091     1.869     2.138
    18   1 H        0.926     0.139     1.467     1.894
    19   1 H        0.925     0.109     1.707     2.043
    20   1 H        0.925     0.097     1.816     2.107
    21   1 H        0.925     0.097     1.817     2.108
    22   1 H        0.924     0.117     1.641     2.003
    23   1 H        0.924     0.118     1.630     1.997
    24   1 H        0.925     0.125     1.572     1.961
    25   1 H        0.860     0.232     0.958     1.533

Wiberg/Mayer (AO) data.
largest (>0.10) Wiberg bond orders for each atom

     #   Z sym  total        # sym  WBO       # sym  WBO       # sym  WBO
 ---------------------------------------------------------------------------
     1   6 C    3.895 --     2 N    2.021    15 H    0.942    17 H    0.919
     2   7 N    2.984 --     1 C    2.021    16 H    0.924
     3   6 C    3.892 --     6 C    1.538     4 N    1.220    18 H    0.947
     4   7 N    3.628 --     5 C    1.311     3 C    1.220    25 H    0.919
     5   6 C    3.858 --     4 N    1.311    13 N    1.288    14 C    1.061
     6   6 C    3.892 --     3 C    1.538    13 N    1.121     7 C    1.021
     7   6 C    3.903 --     8 O    1.717     9 N    1.090     6 C    1.021
     8   8 O    2.031 --     7 C    1.717     9 N    0.131
     9   7 N    3.566 --    11 C    1.154     7 C    1.090    10 C    0.974
                            12 O    0.145     8 O    0.131
    10   6 C    3.919 --     9 N    0.974    19 H    0.971    20 H    0.966
                            21 H    0.965
    11   6 C    3.907 --    12 O    1.741     9 N    1.154    13 N    0.941
    12   8 O    2.069 --    11 C    1.741     9 N    0.145
    13   7 N    3.632 --     5 C    1.288     6 C    1.121    11 C    0.941
    14   6 C    3.963 --     5 C    1.061    24 H    0.965    22 H    0.940
                            23 H    0.937
    15   1 H    0.966 --     1 C    0.942
    16   1 H    0.947 --     2 N    0.924
    17   1 H    0.937 --     1 C    0.919
    18   1 H    0.980 --     3 C    0.947
    19   1 H    0.987 --    10 C    0.971
    20   1 H    0.986 --    10 C    0.966
    21   1 H    0.985 --    10 C    0.965
    22   1 H    0.980 --    14 C    0.940
    23   1 H    0.979 --    14 C    0.937
    24   1 H    0.984 --    14 C    0.965
    25   1 H    0.946 --     4 N    0.919
 ---------------------------------------------------------------------------

molecular dipole:
                 x           y           z       tot (Debye)
 q only:        1.269      -2.074       0.008
   full:        1.493      -2.072      -0.091       6.494

           -------------------------------------------------
          | TOTAL ENERGY              -42.173069533860 Eh   |
          | GRADIENT NORM               0.002640673897 Eh/α |
          | HOMO-LUMO GAP               1.765526104321 eV   |
           -------------------------------------------------

 * finished run on 2024/06/05 at 20:00:06.838
