   * xtb version 6.6.1 (8d0f1dd) compiled by 'conda@1efc2f54142f' on 2023-08-01
          program call               : xtb struc.xyz --opt loose --input .xc1 --gfn2

   ID    Z sym.   atoms
    1    6 C      1, 3, 5-7, 10, 11, 14
    2    7 N      2, 4, 9, 13
    3    8 O      8, 12
    4    1 H      15-25
constraining bond 3 16 to    3.7133300 Å, actual value:    2.7548643 Å

          :  Hamiltonian                  GFN2-xTB          :
 * total energy  :   -43.8881491 Eh     change       -0.6650680E-10 Eh
 * total energy  :   -47.2467150 Eh     change       -0.3358566E+01 Eh
 * total energy  :   -52.4173028 Eh     change       -0.5170588E+01 Eh
 * total energy  :   -58.9498017 Eh     change       -0.6532499E+01 Eh
 * total energy  :   -38.3852116 Eh     change        0.2056459E+02 Eh
 * total energy  :   -56.6012428 Eh     change       -0.1821603E+02 Eh
 * total energy  :   -56.8136209 Eh     change       -0.2123781E+00 Eh
 * total energy  :   -58.5365817 Eh     change       -0.1722961E+01 Eh
 * total energy  :   -57.8401670 Eh     change        0.6964146E+00 Eh
 * total energy  :   -59.2945184 Eh     change       -0.1454351E+01 Eh
 * total energy  :   -59.7422424 Eh     change       -0.6606305E-01 Eh
 * total energy  :   -59.7422791 Eh     change       -0.3662736E-04 Eh
 * total energy  :   -59.7423369 Eh     change       -0.5781804E-04 Eh
 * total energy  :   -59.7423565 Eh     change       -0.1960043E-04 Eh
 * total energy  :   -59.7423960 Eh     change       -0.3947236E-04 Eh
 * total energy  :   -59.7424311 Eh     change       -0.3513856E-04 Eh
 * total energy  :   -59.7424730 Eh     change       -0.4195461E-04 Eh
 * total energy  :   -59.7425032 Eh     change       -0.3016596E-04 Eh
 * total energy  :   -59.7425199 Eh     change       -0.1669823E-04 Eh
   *** GEOMETRY OPTIMIZATION CONVERGED AFTER 53 ITERATIONS ***

 final structure:
================
25
 xtb: 6.6.1 (8d0f1dd)
C            3.24225592980611        1.21545710993427       -0.05775901675434
N            2.19294984405400        0.28808260283775       -0.05340989962729
C            3.51338464872762       -0.29323719690891       -0.15443193271038
N            1.18694457760783       -2.20246983478751       -0.10489910383963
C            0.35985901886156       -1.23835256856098       -0.05996848033784
C            0.91466239577399        0.10758789533370       -0.01494215367531
C            0.04865272384290        1.30225085526666        0.07398615988039
O            0.51555460524820        2.41737824021951        0.13896853780536
N           -1.29639823686400        1.03272815619279        0.07524172926382
C           -2.22594364257718        2.14633367167095        0.14956314806767
C           -1.87368958495082       -0.23200060834584        0.00580110552625
O           -3.06825476814023       -0.36343031890609        0.00144338199228
N           -1.01730754038131       -1.32593772858358       -0.05187123340772
C           -1.62940204469906       -2.64189616479552       -0.12042140391476
H            3.41945275128225        1.77167156910366        0.85534289689379
H            3.65230707345441       -0.48927950915340       -0.50421371259480
H            3.35224090504975        1.81544774174694       -0.95590714569647
H            3.78686132268722       -0.69299902175094        0.86182095302370
H           -1.65546310862344        3.06029102215639        0.30021252784877
H           -2.80319264899019        2.21217107404068       -0.77416824687842
H           -2.92333520359333        1.98848209041789        0.97285137669570
H           -1.32634664206627       -3.24677124200684        0.73584007070925
H           -1.34499374839138       -3.14420168220646       -1.04682516163620
H           -2.71050618337057       -2.51493959654072       -0.10194132645300
H            0.85013907035171       -3.15412801477455       -0.13914145228089

          :  Hamiltonian                  GFN2-xTB          :
         :: total energy             -59.742519915886 Eh    ::
         :: gradient norm              0.003394086197 Eh/a0 ::
         :: HOMO-LUMO gap              1.713497726299 eV    ::
         :: SCC energy               -42.696819926746 Eh    ::
         :: -> dispersion             -0.021791809446 Eh    ::
         :: repulsion energy           2.268900157190 Eh    ::

    * Orbital Energies and Occupations

         #    Occupation            Energy/Eh            Energy/eV
      -------------------------------------------------------------
         1        2.0000           -0.8963859             -24.3919
       ...           ...                  ...                  ...
        25        1.9994           -0.6590516             -17.9337
        26        1.9993           -0.6566440             -17.8682
        27        1.9989           -0.6483346             -17.6421
        28        1.9988           -0.6471752             -17.6105
        29        1.9980           -0.6397207             -17.4077
        30        1.9966           -0.6309686             -17.1695
        31        1.9961           -0.6285857             -17.1047
        32        1.9921           -0.6175743             -16.8051
        33        1.9707           -0.5965912             -16.2341
        34        1.9499           -0.5879473             -15.9989
        35        1.9396           -0.5848963             -15.9158
        36        1.8895           -0.5749143             -15.6442
        37        1.8634           -0.5713428             -15.5470 (HOMO)
        38        0.4073           -0.5083730             -13.8335 (LUMO)
        39        0.0006           -0.4008895             -10.9088
        40        0.0003           -0.3901152             -10.6156
        41        0.0000           -0.3038798              -8.2690
        42        0.0000           -0.3023094              -8.2263
        43                         -0.2182597              -5.9391
        44                         -0.1749840              -4.7616
        45                         -0.1398756              -3.8062
        46                         -0.0989226              -2.6918
        47                         -0.0686140              -1.8671
        48                         -0.0536235              -1.4592
       ...                                ...                  ...
        67                         10.7270991             291.8992
      -------------------------------------------------------------
                  HL-Gap            0.0629699 Eh            1.7135 eV

     #   Z          covCN         q      C6AA      α(0)
     1   6 C        3.737    -0.020    21.017     6.542
     2   7 N        2.747     0.080    19.851     6.617
     3   6 C        3.731    -0.065    21.853     6.673
     4   7 N        1.791    -0.286    28.241     7.871
     5   6 C        2.827     0.164    24.445     8.102
     6   6 C        2.899     0.040    27.097     8.535
     7   6 C        2.772     0.267    22.487     7.767
     8   8 O        0.858    -0.337    20.459     6.064
     9   7 N        2.740    -0.065    22.500     7.045
    10   6 C        3.707    -0.063    21.857     6.683
    11   6 C        2.716     0.323    21.514     7.593
    12   8 O        0.860    -0.335    20.429     6.060
    13   7 N        2.741    -0.069    22.585     7.058
    14   6 C        3.703    -0.064    21.892     6.690
    15   1 H        0.925     0.128     1.547     1.945
    16   1 H        0.936     0.194     1.129     1.661
    17   1 H        0.925     0.131     1.530     1.934
    18   1 H        0.918     0.122     1.596     1.976
    19   1 H        0.925     0.118     1.627     1.995
    20   1 H        0.924     0.112     1.680     2.027
    21   1 H        0.924     0.114     1.666     2.018
    22   1 H        0.924     0.093     1.850     2.127
    23   1 H        0.924     0.093     1.848     2.126
    24   1 H        0.925     0.123     1.585     1.969
    25   1 H        0.860     0.201     1.101     1.643

Wiberg/Mayer (AO) data.
largest (>0.10) Wiberg bond orders for each atom

     #   Z sym  total        # sym  WBO       # sym  WBO       # sym  WBO
 ---------------------------------------------------------------------------
     1   6 C    3.888 --     2 N    0.984     3 C    0.962    15 H    0.944
                            17 H    0.939
     2   7 N    3.519 --     6 C    1.503     1 C    0.984     3 C    0.942
     3   6 C    3.845 --     1 C    0.962     2 N    0.942    16 H    0.940
                            18 H    0.925
     4   7 N    2.844 --     5 C    1.677    25 H    0.921    13 N    0.122
     5   6 C    3.947 --     4 N    1.677    13 N    1.121     6 C    1.058
     6   6 C    3.781 --     2 N    1.503     5 C    1.058     7 C    1.000
     7   6 C    3.930 --     8 O    1.683     9 N    1.151     6 C    1.000
     8   8 O    1.973 --     7 C    1.683     9 N    0.148
     9   7 N    3.523 --     7 C    1.151    11 C    1.080    10 C    0.974
                             8 O    0.148    12 O    0.103
    10   6 C    3.881 --     9 N    0.974    19 H    0.964    21 H    0.951
                            20 H    0.947
    11   6 C    3.949 --    12 O    1.695    13 N    1.091     9 N    1.080
    12   8 O    2.012 --    11 C    1.695    13 N    0.113     9 N    0.103
    13   7 N    3.491 --     5 C    1.121    11 C    1.091    14 C    0.978
                             4 N    0.122    12 O    0.113
    14   6 C    3.904 --    13 N    0.978    24 H    0.961    22 H    0.959
                            23 H    0.959
    15   1 H    0.973 --     1 C    0.944
    16   1 H    0.960 --     3 C    0.940
    17   1 H    0.971 --     1 C    0.939
    18   1 H    0.969 --     3 C    0.925
    19   1 H    0.981 --    10 C    0.964
    20   1 H    0.966 --    10 C    0.947
    21   1 H    0.969 --    10 C    0.951
    22   1 H    0.978 --    14 C    0.959
    23   1 H    0.977 --    14 C    0.959
    24   1 H    0.981 --    14 C    0.961
    25   1 H    0.951 --     4 N    0.921
 ---------------------------------------------------------------------------

molecular dipole:
                 x           y           z       tot (Debye)
 q only:        2.068      -0.626      -0.038
   full:        1.778      -0.833       0.012       4.990

           -------------------------------------------------
          | TOTAL ENERGY              -59.742519915886 Eh   |
          | GRADIENT NORM               0.003394086197 Eh/α |
          | HOMO-LUMO GAP               1.713497726299 eV   |
           -------------------------------------------------

 * finished run on 2024/06/05 at 19:59:23.314
