   * xtb version 6.6.1 (8d0f1dd) compiled by 'conda@1efc2f54142f' on 2023-08-01
          program call               : xtb struc.xyz --opt loose --input .xc1 --gfn2

   ID    Z sym.   atoms
    1    6 C      1, 3, 5-7, 10, 11, 14
    2    7 N      2, 4, 9, 13
    3    8 O      8, 12
    4    1 H      15-25
constraining bond 2 13 to    5.8400000 Å, actual value:    3.5076258 Å

          :  Hamiltonian                  GFN2-xTB          :
 * total energy  :   -32.5320438 Eh     change       -0.6633627E-10 Eh
 * total energy  :   -36.3263714 Eh     change       -0.3794328E+01 Eh
 * total energy  :   -38.9533786 Eh     change       -0.2627007E+01 Eh
 * total energy  :   -40.5758673 Eh     change       -0.1622489E+01 Eh
 * total energy  :   -41.3896678 Eh     change       -0.8138005E+00 Eh
 * total energy  :   -41.5787180 Eh     change       -0.1890502E+00 Eh
 * total energy  :   -41.6330980 Eh     change       -0.5438001E-01 Eh
 * total energy  :   -41.7297192 Eh     change       -0.9662115E-01 Eh
 * total energy  :   -41.7792036 Eh     change       -0.4948440E-01 Eh
 * total energy  :   -41.8201765 Eh     change       -0.4097297E-01 Eh
 * total energy  :   -41.9804233 Eh     change       -0.1053576E-03 Eh
 * total energy  :   -41.9804791 Eh     change       -0.5576054E-04 Eh
 * total energy  :   -41.9806017 Eh     change       -0.1225765E-03 Eh
 * total energy  :   -41.9806922 Eh     change       -0.9050268E-04 Eh
 * total energy  :   -41.9807576 Eh     change       -0.6542487E-04 Eh
 * total energy  :   -41.9808078 Eh     change       -0.5021182E-04 Eh
 * total energy  :   -41.9808627 Eh     change       -0.5493986E-04 Eh
 * total energy  :   -41.9809062 Eh     change       -0.4343382E-04 Eh
 * total energy  :   -41.9809498 Eh     change       -0.4361165E-04 Eh
   *** GEOMETRY OPTIMIZATION CONVERGED AFTER 58 ITERATIONS ***

 final structure:
================
25
 xtb: 6.6.1 (8d0f1dd)
C            3.80008087876029        0.82964323092360       -0.10493960791690
N            4.11245396053722       -0.55091490043518       -0.05984342297995
C            3.36122989331387       -1.53449347843946       -0.11624446830098
N            1.94541448102689       -1.56096684723993       -0.22114532724432
C            1.14848820475411       -0.57778325732481        0.06862821986311
C            0.38855459590531        0.30818966689103        0.42477039221872
C           -0.45523092189826        1.38724149165934        0.63985177078327
O           -0.30458566364447        2.44242302217647        1.15855196463318
N           -1.82925102880220        1.10461766569397        0.02526136343199
C           -2.76220437375629        2.21255166039769       -0.05048102313052
C           -2.09452471332585       -0.04794756048227       -0.43579400634446
O           -2.97071550827542       -0.70212069269785       -1.14105969509407
N           -1.64908820874506       -1.29446127474688       -0.67857519535821
C           -1.77158694780346       -2.38083065885029        0.25789152127206
H            3.70735114284638        1.21104931695652        0.91315536667777
H            4.64558884727540        1.33370120884699       -0.57403862715432
H            2.88146588611680        1.05683928709994       -0.65439432214832
H            3.79047764349431       -2.52750897284891       -0.10831822415813
H           -2.19201138639437        3.12966049961782       -0.20083766221662
H           -3.46645403946194        2.05899261566636       -0.86580878286617
H           -3.30179016859332        2.29896307492385        0.89496187186449
H           -0.93868627918063       -2.31185256804684        0.95849529004919
H           -1.71328513334071       -3.31033594383371       -0.30657344244129
H           -2.71089393263086       -2.35045479370590        0.81625530868500
H            1.53963428591850       -2.40596325059879       -0.60859764422397

          :  Hamiltonian                  GFN2-xTB          :
         :: total energy             -41.980949784457 Eh    ::
         :: gradient norm              0.002956449171 Eh/a0 ::
         :: HOMO-LUMO gap              1.350298257980 eV    ::
         :: SCC energy               -42.575949310657 Eh    ::
         :: -> dispersion             -0.020046935012 Eh    ::
         :: repulsion energy           0.594893247632 Eh    ::

    * Orbital Energies and Occupations

         #    Occupation            Energy/Eh            Energy/eV
      -------------------------------------------------------------
         1        2.0000           -0.9735508             -26.4917
       ...           ...                  ...                  ...
        25        2.0000           -0.6634474             -18.0533
        26        2.0000           -0.6515216             -17.7288
        27        2.0000           -0.6443625             -17.5340
        28        2.0000           -0.6395065             -17.4019
        29        2.0000           -0.6347751             -17.2731
        30        2.0000           -0.6232584             -16.9597
        31        2.0000           -0.6057497             -16.4833
        32        2.0000           -0.6017199             -16.3736
        33        2.0000           -0.5975602             -16.2604
        34        2.0000           -0.5945353             -16.1781
        35        2.0000           -0.5859009             -15.9432
        36        1.9986           -0.5426914             -14.7674
        37        1.9171           -0.5097905             -13.8721 (HOMO)
        38        0.0840           -0.4601680             -12.5218 (LUMO)
        39        0.0002           -0.4127741             -11.2322
        40        0.0001           -0.4078592             -11.0984
        41        0.0000           -0.3664194              -9.9708
        42        0.0000           -0.3533150              -9.6142
        43                         -0.2604888              -7.0883
        44                         -0.2219008              -6.0382
        45                         -0.2155063              -5.8642
        46                         -0.1538658              -4.1869
        47                         -0.0931876              -2.5358
        48                         -0.0504317              -1.3723
       ...                                ...                  ...
        67                          1.2363489              33.6428
      -------------------------------------------------------------
                  HL-Gap            0.0496225 Eh            1.3503 eV

     #   Z          covCN         q      C6AA      α(0)
     1   6 C        3.697    -0.043    21.510     6.634
     2   7 N        1.822    -0.149    25.016     7.411
     3   6 C        2.773     0.109    25.576     8.283
     4   7 N        2.682    -0.066    22.516     7.047
     5   6 C        1.905     0.078    29.148     8.719
     6   6 C        1.971    -0.102    33.876     9.399
     7   6 C        2.749     0.298    21.948     7.671
     8   8 O        0.857    -0.277    19.374     5.901
     9   7 N        2.726    -0.032    21.864     6.945
    10   6 C        3.702    -0.067    21.941     6.698
    11   6 C        2.714     0.320    21.555     7.600
    12   8 O        1.726    -0.163    16.751     5.526
    13   7 N        2.689    -0.026    21.755     6.927
    14   6 C        3.689    -0.064    21.927     6.702
    15   1 H        0.924     0.087     1.906     2.159
    16   1 H        0.924     0.094     1.840     2.121
    17   1 H        0.924     0.046     2.369     2.407
    18   1 H        0.925     0.088     1.894     2.152
    19   1 H        0.924     0.128     1.547     1.945
    20   1 H        0.925     0.104     1.752     2.070
    21   1 H        0.924     0.117     1.638     2.002
    22   1 H        0.924     0.100     1.790     2.092
    23   1 H        0.925     0.115     1.655     2.012
    24   1 H        0.924     0.095     1.827     2.114
    25   1 H        0.860     0.208     1.064     1.616

Wiberg/Mayer (AO) data.
largest (>0.10) Wiberg bond orders for each atom

     #   Z sym  total        # sym  WBO       # sym  WBO       # sym  WBO
 ---------------------------------------------------------------------------
     1   6 C    3.962 --     2 N    1.046    16 H    0.961    17 H    0.955
                            15 H    0.944
     2   7 N    3.128 --     3 C    1.889     1 C    1.046
     3   6 C    3.950 --     2 N    1.889     4 N    1.006    18 H    0.942
     4   7 N    3.547 --     5 C    1.333     3 C    1.006    25 H    0.907
                             6 C    0.103
     5   6 C    3.958 --     6 C    2.432     4 N    1.333
     6   6 C    3.951 --     5 C    2.432     7 C    1.192     4 N    0.103
     7   6 C    3.918 --     8 O    1.822     6 C    1.192     9 N    0.788
     8   8 O    2.180 --     7 C    1.822     9 N    0.102
     9   7 N    3.617 --    11 C    1.541    10 C    0.958     7 C    0.788
                            12 O    0.107     8 O    0.102
    10   6 C    3.908 --    20 H    0.970    19 H    0.960     9 N    0.958
                            21 H    0.953
    11   6 C    3.870 --     9 N    1.541    12 O    1.121    13 N    1.095
    12   8 O    2.193 --    11 C    1.121    13 N    0.853     9 N    0.107
    13   7 N    3.078 --    11 C    1.095    14 C    0.992    12 O    0.853
    14   6 C    3.929 --    13 N    0.992    23 H    0.970    24 H    0.965
                            22 H    0.949
    15   1 H    0.991 --     1 C    0.944
    16   1 H    0.984 --     1 C    0.961
    17   1 H    0.986 --     1 C    0.955
    18   1 H    0.988 --     3 C    0.942
    19   1 H    0.983 --    10 C    0.960
    20   1 H    0.988 --    10 C    0.970
    21   1 H    0.985 --    10 C    0.953
    22   1 H    0.990 --    14 C    0.949
    23   1 H    0.986 --    14 C    0.970
    24   1 H    0.990 --    14 C    0.965
    25   1 H    0.955 --     4 N    0.907
 ---------------------------------------------------------------------------

molecular dipole:
                 x           y           z       tot (Debye)
 q only:       -0.668      -1.232      -0.222
   full:       -1.310      -1.460      -0.243       5.024

           -------------------------------------------------
          | TOTAL ENERGY              -41.980949784457 Eh   |
          | GRADIENT NORM               0.002956449171 Eh/α |
          | HOMO-LUMO GAP               1.350298257980 eV   |
           -------------------------------------------------

 * finished run on 2024/06/05 at 19:57:53.609
