   * xtb version 6.6.1 (8d0f1dd) compiled by 'conda@1efc2f54142f' on 2023-08-01
          program call               : xtb struc.xyz --opt loose --input .xc1 --gfn2

   ID    Z sym.   atoms
    1    7 N      1, 17
    2    6 C      2-6, 8, 9, 11-16, 18-23, 25, 26, 28-33
    3    8 O      7, 10, 24, 27
    4    1 H      34-72
constraining bond 17 46 to    3.6866700 Å, actual value:    3.0043012 Å

          :  Hamiltonian                  GFN2-xTB          :
 * total energy  :   -99.4872701 Eh     change       -0.4035485E-08 Eh
 * total energy  :   -99.6591584 Eh     change       -0.1718882E+00 Eh
 * total energy  :   -99.9093109 Eh     change       -0.2501525E+00 Eh
 * total energy  :  -100.2670766 Eh     change       -0.3577657E+00 Eh
 * total energy  :  -100.3478559 Eh     change       -0.8077930E-01 Eh
 * total energy  :  -100.5193802 Eh     change       -0.1715243E+00 Eh
 * total energy  :  -100.6063681 Eh     change       -0.8698786E-01 Eh
 * total energy  :  -100.6621618 Eh     change       -0.5579366E-01 Eh
 * total energy  :  -100.7103467 Eh     change       -0.4818489E-01 Eh
 * total energy  :  -100.7299187 Eh     change       -0.1957207E-01 Eh
 * total energy  :  -100.7808412 Eh     change       -0.7466889E-03 Eh
 * total energy  :  -100.7816358 Eh     change       -0.7945959E-03 Eh
 * total energy  :  -100.7820554 Eh     change       -0.4196876E-03 Eh
 * total energy  :  -100.7823291 Eh     change       -0.2736205E-03 Eh
 * total energy  :  -100.7824308 Eh     change       -0.1017017E-03 Eh
 * total energy  :  -100.7826132 Eh     change       -0.1824330E-03 Eh
 * total energy  :  -100.7826754 Eh     change       -0.6223374E-04 Eh
 * total energy  :  -100.7827634 Eh     change       -0.8796755E-04 Eh
 * total energy  :  -100.7828032 Eh     change       -0.3979567E-04 Eh
   *** GEOMETRY OPTIMIZATION CONVERGED AFTER 33 ITERATIONS ***

 final structure:
================
72
 xtb: 6.6.1 (8d0f1dd)
N           -2.20846964544868        3.01911798669676        2.46170588133492
C           -2.07975195302214        2.23003255831641        1.49788583115275
C           -3.14833588404547        1.99452296634156        0.46292000697003
C           -3.58788648331285        0.53753561152448        0.49923596847150
C           -4.45147453169100        0.05227544520300       -0.48614093058544
C           -4.87357670023825       -1.26527707085083       -0.49511775227675
O           -5.72095663656587       -1.80489020525084       -1.40372905871633
C           -6.39541373727249       -0.95179872017307       -2.29778503808763
C           -4.40082424313467       -2.15696070765239        0.50118058393107
O           -4.83673745640079       -3.43310062526932        0.39647830272923
C           -4.49501295069233       -4.35304201755122        1.40597572577682
C           -3.55594477861749       -1.66806909423798        1.48269801043226
C           -3.16281080768599       -0.33499477066049        1.48559287069948
C           -2.45778689087010        2.28286859151349       -0.91396147083887
C           -1.58371055963095        1.15386600068873       -1.32918506070709
C           -0.25223484522251        1.17882637279541       -1.21660982633575
N            0.62333828900790        0.03549083053614       -1.57378977905824
C            1.99323932404181        0.22468791082781       -0.99054206632692
C            3.04672437794835       -0.62556915863523       -1.69829637890094
C            4.40818227523562       -0.32981409449794       -1.11113673019368
C            5.02211330815062        0.88843482909114       -1.33825441390433
C            6.26386694348228        1.16781576610229       -0.78602611340179
C            6.91884800274898        0.22721099503904       -0.00657438180904
O            8.12499843745589        0.38797113545167        0.57203399318376
C            8.82577232139794        1.59382396577487        0.37013116377151
C            6.30112080048561       -1.03135608016288        0.21917090093593
O            7.01599854031811       -1.89617875761056        0.97069470897689
C            6.51698726821566       -3.19436815644012        1.18437475703350
C            5.05306807556355       -1.28301105882719       -0.32599941480425
C            0.03392440255441       -1.24476515185046       -1.10303546776426
C           -4.39525563346615        2.90431158449497        0.63177476077266
C           -5.11701231805070        2.60966026999151        1.94510671816610
C           -4.07261277789786        4.39275922844907        0.53456070376551
H           -4.81059258085916        0.72204453501263       -1.25038643386681
H           -6.94532084106007       -0.16874425790522       -1.76695475222650
H           -7.09926241601234       -1.58666225108838       -2.83243196537868
H           -5.70895045473281       -0.49279388482463       -3.01760981656076
H           -4.84959833980516       -4.02321883271516        2.38691316376821
H           -4.99411177565093       -5.28147258160918        1.13564919094204
H           -3.41372828474960       -4.52269076135739        1.44723612796489
H           -3.20610132521674       -2.31473645191377        2.27114276809950
H           -2.53556089717992        0.01417934602169        2.29074886650239
H           -3.23508186607712        2.42828082674482       -1.66428807293505
H           -1.88051169439009        3.20307810283005       -0.82786303863186
H           -2.09933847325306        0.27300111429924       -1.67790661238482
H            0.69458465942530        0.00529877352489       -2.33394079708509
H           -1.15906448321114        1.65782245054441        1.29456936565400
H            0.27709256763430        2.05535532007110       -0.88454634841422
H            1.95857988208537       -0.00545103464404        0.07444440279502
H            2.26900877785094        1.27364908291846       -1.10696115344495
H            3.05341503680124       -0.38554693769730       -2.76447745121378
H            2.83876218232517       -1.68927499259071       -1.58592855485233
H            4.54961524234847        1.63246667280582       -1.96232993645794
H            6.71711770178961        2.12598341596698       -0.97855472227513
H            8.28231930139219        2.44796280656729        0.78673832360662
H            9.02553951999366        1.76868599711880       -0.69168163119705
H            9.76962985897313        1.47484895236494        0.89932300762558
H            7.27478303411529       -3.70459779875646        1.77547779942991
H            5.57559538042788       -3.17845249473158        1.74318054792121
H            6.37454202275592       -3.72975263750415        0.24029382737735
H            4.57555609637979       -2.23565321449563       -0.15737085783379
H           -0.81797983039211       -1.51481660233596       -1.72305392010493
H           -0.29953997366755       -1.14550961955352       -0.07194009558068
H            0.77385666445411       -2.03931182721314       -1.16915681142166
H           -5.07892861237214        2.65444882369357       -0.18787645925034
H           -4.49272487117152        2.89577300810961        2.78467137819809
H           -5.35874374890685        1.55269572072206        2.02837302906064
H           -6.04221756402891        3.17801320955741        1.98841864507412
H           -3.37217113172050        4.67713941870351        1.31295326082097
H           -3.65782872934919        4.65434809555288       -0.43564676470564
H           -4.98633905474576        4.96476124324226        0.67119842055999
H           -1.41215891654594        3.11497240789841        3.08550190863531

          :  Hamiltonian                  GFN2-xTB          :
         :: total energy            -100.782803190890 Eh    ::
         :: gradient norm              0.003400854713 Eh/a0 ::
         :: HOMO-LUMO gap              2.581359005743 eV    ::
         :: SCC energy              -100.772050469254 Eh    ::
         :: -> dispersion             -0.073623720492 Eh    ::
         :: repulsion energy           1.513195531571 Eh    ::

    * Orbital Energies and Occupations

         #    Occupation            Energy/Eh            Energy/eV
      -------------------------------------------------------------
         1        2.0000           -0.8586888             -23.3661
       ...           ...                  ...                  ...
        78        1.9995           -0.5267831             -14.3345
        79        1.9992           -0.5202087             -14.1556
        80        1.9991           -0.5194985             -14.1363
        81        1.9990           -0.5179411             -14.0939
        82        1.9988           -0.5138822             -13.9834
        83        1.9981           -0.5069509             -13.7948
        84        1.9976           -0.5034018             -13.6983
        85        1.9974           -0.5020504             -13.6615
        86        1.9928           -0.4858233             -13.2199
        87        1.9903           -0.4811803             -13.0936
        88        1.9601           -0.4584873             -12.4761
        89        1.9422           -0.4524677             -12.3123
        90        1.9368           -0.4510114             -12.2726 (HOMO)
        91        0.1423           -0.3561482              -9.6913 (LUMO)
        92        0.0214           -0.3251686              -8.8483
        93        0.0088           -0.3108912              -8.4598
        94        0.0073           -0.3080807              -8.3833
        95        0.0071           -0.3074899              -8.3672
        96        0.0055           -0.3034932              -8.2585
        97        0.0000           -0.2110923              -5.7441
        98        0.0000           -0.1827064              -4.9717
        99        0.0000           -0.1813772              -4.9355
       100        0.0000           -0.1430224              -3.8918
       101        0.0000           -0.1358014              -3.6953
       ...           ...                  ...                  ...
       171                          0.6748352              18.3632
      -------------------------------------------------------------
                  HL-Gap            0.0948632 Eh            2.5814 eV

     #   Z          covCN         q      C6AA      α(0)
     1   7 N        1.774    -0.283    28.157     7.858
     2   6 C        2.826     0.100    25.779     8.320
     3   6 C        3.908     0.010    20.354     6.413
     4   6 C        2.973    -0.003    28.099     8.695
     5   6 C        2.922    -0.082    30.049     8.989
     6   6 C        2.863     0.124    25.269     8.240
     7   8 O        1.705    -0.243    18.020     5.731
     8   6 C        3.644     0.031    20.384     6.489
     9   6 C        2.864     0.124    25.276     8.241
    10   8 O        1.706    -0.240    17.973     5.724
    11   6 C        3.645     0.030    20.407     6.493
    12   6 C        2.915    -0.077    29.920     8.970
    13   6 C        2.922    -0.057    29.407     8.893
    14   6 C        3.816    -0.064    21.708     6.631
    15   6 C        2.888    -0.036    28.891     8.812
    16   6 C        2.835    -0.059    29.454     8.894
    17   7 N        3.579     0.038    20.581     6.738
    18   6 C        3.749    -0.034    21.242     6.573
    19   6 C        3.807    -0.074    21.917     6.665
    20   6 C        2.970    -0.011    28.298     8.726
    21   6 C        2.921    -0.056    29.394     8.891
    22   6 C        2.915    -0.071    29.761     8.946
    23   6 C        2.865     0.131    25.128     8.217
    24   8 O        1.706    -0.230    17.816     5.699
    25   6 C        3.645     0.027    20.456     6.500
    26   6 C        2.864     0.130    25.148     8.220
    27   8 O        1.706    -0.233    17.856     5.705
    28   6 C        3.645     0.029    20.420     6.495
    29   6 C        2.919    -0.083    30.075     8.993
    30   6 C        3.697    -0.088    22.362     6.764
    31   6 C        3.852    -0.007    20.668     6.466
    32   6 C        3.756    -0.118    22.807     6.809
    33   6 C        3.755    -0.119    22.837     6.814
    34   1 H        0.926     0.046     2.365     2.405
    35   1 H        0.924     0.051     2.310     2.377
    36   1 H        0.925     0.077     2.014     2.219
    37   1 H        0.924     0.040     2.445     2.445
    38   1 H        0.924     0.052     2.296     2.369
    39   1 H        0.925     0.077     2.012     2.218
    40   1 H        0.924     0.042     2.425     2.436
    41   1 H        0.926     0.047     2.356     2.400
    42   1 H        0.926     0.035     2.512     2.478
    43   1 H        0.925     0.070     2.083     2.257
    44   1 H        0.925     0.056     2.242     2.342
    45   1 H        0.926     0.058     2.225     2.333
    46   1 H        0.863     0.235     0.942     1.520
    47   1 H        0.923    -0.014     3.306     2.844
    48   1 H        0.926     0.071     2.076     2.253
    49   1 H        0.925     0.089     1.893     2.152
    50   1 H        0.924     0.092     1.857     2.131
    51   1 H        0.924     0.055     2.263     2.352
    52   1 H        0.925     0.053     2.279     2.361
    53   1 H        0.926     0.035     2.521     2.483
    54   1 H        0.926     0.055     2.255     2.348
    55   1 H        0.924     0.050     2.319     2.382
    56   1 H        0.924     0.052     2.298     2.371
    57   1 H        0.925     0.080     1.983     2.202
    58   1 H        0.925     0.079     1.985     2.203
    59   1 H        0.924     0.044     2.390     2.418
    60   1 H        0.924     0.048     2.343     2.394
    61   1 H        0.926     0.042     2.421     2.433
    62   1 H        0.925     0.096     1.822     2.111
    63   1 H        0.925     0.101     1.774     2.083
    64   1 H        0.925     0.099     1.796     2.096
    65   1 H        0.924     0.033     2.538     2.491
    66   1 H        0.925     0.068     2.104     2.268
    67   1 H        0.925     0.034     2.526     2.486
    68   1 H        0.925     0.048     2.345     2.395
    69   1 H        0.925     0.062     2.172     2.305
    70   1 H        0.925     0.030     2.579     2.512
    71   1 H        0.925     0.052     2.298     2.371
    72   1 H        0.860     0.150     1.402     1.855

Wiberg/Mayer (AO) data.
largest (>0.10) Wiberg bond orders for each atom

     #   Z sym  total        # sym  WBO       # sym  WBO       # sym  WBO
 ---------------------------------------------------------------------------
     1   7 N    3.010 --     2 C    1.945    72 H    0.946
     2   6 C    3.937 --     1 N    1.945     3 C    0.996    47 H    0.935
     3   6 C    3.969 --     2 C    0.996     4 C    0.971    31 C    0.952
                            14 C    0.917
     4   6 C    3.963 --    13 C    1.429     5 C    1.364     3 C    0.971
     5   6 C    3.969 --     6 C    1.410     4 C    1.364    34 H    0.958
     6   6 C    3.919 --     5 C    1.410     9 C    1.235     7 O    1.084
     7   8 O    2.248 --     6 C    1.084     8 C    0.980
     8   6 C    3.937 --     7 O    0.980    36 H    0.977    35 H    0.975
                            37 H    0.975
     9   6 C    3.917 --    12 C    1.401     6 C    1.235    10 O    1.088
    10   8 O    2.250 --     9 C    1.088    11 C    0.980
    11   6 C    3.937 --    10 O    0.980    39 H    0.978    40 H    0.975
                            38 H    0.975
    12   6 C    3.970 --     9 C    1.401    13 C    1.399    41 H    0.964
    13   6 C    3.968 --     4 C    1.429    12 C    1.399    42 H    0.963
    14   6 C    3.987 --    15 C    1.040    44 H    0.970    43 H    0.955
                             3 C    0.917
    15   6 C    3.858 --    16 C    1.793    14 C    1.040    45 H    0.957
    16   6 C    3.768 --    15 C    1.793    48 H    0.958    17 N    0.908
    17   7 N    3.754 --    30 C    0.951    18 C    0.920    46 H    0.918
                            16 C    0.908
    18   6 C    3.918 --    19 C    0.998    49 H    0.973    50 H    0.964
                            17 N    0.920
    19   6 C    3.985 --    18 C    0.998    20 C    0.993    52 H    0.969
                            51 H    0.969
    20   6 C    3.960 --    21 C    1.426    29 C    1.376    19 C    0.993
    21   6 C    3.971 --    20 C    1.426    22 C    1.408    53 H    0.969
    22   6 C    3.971 --    21 C    1.408    23 C    1.394    54 H    0.964
    23   6 C    3.921 --    22 C    1.394    26 C    1.232    24 O    1.103
    24   8 O    2.267 --    23 C    1.103    25 C    0.977
    25   6 C    3.933 --    57 H    0.977    24 O    0.977    55 H    0.975
                            56 H    0.974
    26   6 C    3.922 --    29 C    1.402    23 C    1.232    27 O    1.095
    27   8 O    2.264 --    26 C    1.095    28 C    0.980
    28   6 C    3.937 --    27 O    0.980    58 H    0.977    60 H    0.975
                            59 H    0.975
    29   6 C    3.969 --    26 C    1.402    20 C    1.376    61 H    0.963
    30   6 C    3.921 --    63 H    0.980    62 H    0.975    64 H    0.971
                            17 N    0.951
    31   6 C    3.982 --    33 C    1.009    32 C    1.007    65 H    0.962
                             3 C    0.952
    32   6 C    3.984 --    31 C    1.007    67 H    0.983    68 H    0.983
                            66 H    0.977
    33   6 C    3.988 --    31 C    1.009    70 H    0.984    71 H    0.982
                            69 H    0.978
    34   1 H    0.997 --     5 C    0.958
    35   1 H    0.996 --     8 C    0.975
    36   1 H    0.994 --     8 C    0.977
    37   1 H    0.996 --     8 C    0.975
    38   1 H    0.995 --    11 C    0.975
    39   1 H    0.994 --    11 C    0.978
    40   1 H    0.996 --    11 C    0.975
    41   1 H    0.996 --    12 C    0.964
    42   1 H    0.998 --    13 C    0.963
    43   1 H    0.992 --    14 C    0.955
    44   1 H    0.996 --    14 C    0.970
    45   1 H    0.997 --    15 C    0.957
    46   1 H    0.943 --    17 N    0.918
    47   1 H    0.992 --     2 C    0.935
    48   1 H    0.995 --    16 C    0.958
    49   1 H    0.992 --    18 C    0.973
    50   1 H    0.991 --    18 C    0.964
    51   1 H    0.996 --    19 C    0.969
    52   1 H    0.997 --    19 C    0.969
    53   1 H    0.999 --    21 C    0.969
    54   1 H    0.996 --    22 C    0.964
    55   1 H    0.995 --    25 C    0.975
    56   1 H    0.995 --    25 C    0.974
    57   1 H    0.993 --    25 C    0.977
    58   1 H    0.993 --    28 C    0.977
    59   1 H    0.996 --    28 C    0.975
    60   1 H    0.996 --    28 C    0.975
    61   1 H    0.997 --    29 C    0.963
    62   1 H    0.991 --    30 C    0.975
    63   1 H    0.990 --    30 C    0.980
    64   1 H    0.990 --    30 C    0.971
    65   1 H    0.996 --    31 C    0.962
    66   1 H    0.993 --    32 C    0.977
    67   1 H    0.998 --    32 C    0.983
    68   1 H    0.995 --    32 C    0.983
    69   1 H    0.994 --    33 C    0.978
    70   1 H    0.998 --    33 C    0.984
    71   1 H    0.995 --    33 C    0.982
    72   1 H    0.974 --     1 N    0.946
 ---------------------------------------------------------------------------

molecular dipole:
                 x           y           z       tot (Debye)
 q only:        1.177      -0.234      -1.830
   full:        1.448      -0.403      -2.131       6.628

           -------------------------------------------------
          | TOTAL ENERGY             -100.782803190890 Eh   |
          | GRADIENT NORM               0.003400854713 Eh/α |
          | HOMO-LUMO GAP               2.581359005743 eV   |
           -------------------------------------------------

 * finished run on 2024/04/06 at 11:16:43.590
