   * xtb version 6.6.1 (8d0f1dd) compiled by 'conda@1efc2f54142f' on 2023-08-01
          program call               : xtb xtbopt.xyz --opt crude --input .xc2 --gfn2

   ID    Z sym.   atoms
    1    7 N      1, 17
    2    6 C      2-6, 8, 9, 11-16, 18-23, 25, 26, 28-33
    3    8 O      7, 10, 24, 27
    4    1 H      34-72
########################################################################
[WARNING] Please study the warnings concerning your input carefully
-1- readin_getIntValue: could not parse ''
########################################################################

          :  Hamiltonian                  GFN2-xTB          :
 * total energy  :   -99.2576845 Eh     change        0.7105427E-13 Eh
 * total energy  :   -99.3526994 Eh     change       -0.9501482E-01 Eh
 * total energy  :   -99.3537040 Eh     change       -0.1004654E-02 Eh
 * total energy  :   -99.3539180 Eh     change       -0.2140133E-03 Eh
   *** GEOMETRY OPTIMIZATION CONVERGED AFTER 4 ITERATIONS ***

 final structure:
================
72
 xtb: 6.6.1 (8d0f1dd)
N           -2.20864417346717        3.01733355835273        2.46496263759753
C           -2.08060332850221        2.23184032655665        1.49801664289801
C           -3.15013764188204        1.99611290318656        0.46411381731520
C           -3.58905317512974        0.53882795313528        0.50050604979768
C           -4.45111665254579        0.05299622668267       -0.48592296640927
C           -4.87173485836379       -1.26487009338849       -0.49561225544885
O           -5.71601171582789       -1.80603199913962       -1.40624798262864
C           -6.38947689921270       -0.95395446215484       -2.30195511742955
C           -4.40098951342445       -2.15593814386932        0.50202194999182
O           -4.83719145673128       -3.43217970394755        0.39731558936767
C           -4.49707523202238       -4.35129509670024        1.40798849694233
C           -3.55754729016979       -1.66664051182314        1.48448298374350
C           -3.16427786048662       -0.33352399975147        1.48703759560998
C           -2.45958178550713        2.28318317978189       -0.91327706553034
C           -1.58404758035412        1.15300171803785       -1.32255485059557
C           -0.25280784731119        1.17664031527370       -1.19810953573601
N            0.62127682437492        0.03701459650051       -1.52832679859261
C            1.99317482551706        0.22309353738946       -0.97364436963489
C            3.04338648289494       -0.62191974541815       -1.69364690187649
C            4.40749698691044       -0.33014408538350       -1.11221597702893
C            5.02175586847124        0.88763610032648       -1.34051538571853
C            6.26470660137242        1.16629098681425       -0.79031941249701
C            6.91898700455856        0.22643911379783       -0.00961219957228
O            8.12557127993764        0.38769613432666        0.56900515336716
C            8.82510272672156        1.59424026192718        0.36805484266759
C            6.30062477318760       -1.03135574758414        0.21807077222845
O            7.01373990925096       -1.89471360133033        0.97252541619811
C            6.51414300507023       -3.19239819434629        1.18824132190686
C            5.05295731301712       -1.28362433190901       -0.32768675104229
C            0.03518317012358       -1.24882220620001       -1.09125635404001
C           -4.39655526082602        2.90533651282054        0.63274632120064
C           -5.11910945050282        2.60935284345609        1.94523485831240
C           -4.07343905124767        4.39399671670378        0.53914635140272
H           -4.80941824343463        0.72240312557997       -1.25078377287372
H           -6.94025299294406       -0.17066790169259       -1.77254604911635
H           -7.09254807601090       -1.58930042959574       -2.83708831572568
H           -5.70206089597549       -0.49547675458042       -3.02125722852173
H           -4.85280603561772       -4.02067638036238        2.38824013473652
H           -4.99590949968969       -5.28004803325204        1.13811220415483
H           -3.41592803696863       -4.52114778586743        1.45072075882393
H           -3.20903646945313       -2.31271651203030        2.27387491633696
H           -2.53684679669851        0.01643634655840        2.29180290622704
H           -3.23645405922156        2.42788077828977       -1.66367251324032
H           -1.88199661646137        3.20303252634092       -0.82774993273615
H           -2.09625652453891        0.27179770079420       -1.67538826645153
H            0.72024910817379       -0.00046003887563       -2.54425223797303
H           -1.15834143348425        1.66290321079561        1.29049017149045
H            0.27443302613775        2.05296785039067       -0.86102140264898
H            1.97378426321345       -0.01463029240603        0.09223696379902
H            2.26941162994887        1.27330334661627       -1.08398272484507
H            3.04160972212478       -0.37158629790402       -2.75824835213998
H            2.83598197936494       -1.68726265519440       -1.59021983365041
H            4.54821133337534        1.63193221086119       -1.96344217865774
H            6.71918181562570        2.12342014668762       -0.98543643528972
H            8.27888972690701        2.44790834783424        0.78129685133195
H            9.02858621524099        1.76801121168307       -0.69284862021634
H            9.76659120481725        1.47689444235859        0.90108186248178
H            7.27287103800023       -3.70251953425765        1.77841564521222
H            5.57370262493489       -3.17495981002080        1.74888032700868
H            6.36951161409275       -3.72863288948573        0.24483140912791
H            4.57571183632216       -2.23634849679221       -0.15902536922081
H           -0.81973756954853       -1.51104596787756       -1.70862850741162
H           -0.29881861795218       -1.16487314397486       -0.05751839627035
H            0.77362542846242       -2.04298677753494       -1.16957091649345
H           -5.07920974291539        2.65726946643164       -0.18820778465103
H           -4.49341433338517        2.89297346455163        2.78476596872499
H           -5.36273233073005        1.55270779991963        2.02674276182666
H           -6.04314101823643        3.17965989779207        1.98974680634061
H           -3.37318673464640        4.67584079504597        1.31862045827621
H           -3.65851852963450        4.65843757438923       -0.43035860304552
H           -4.98716823491668        4.96588769367016        0.67751063753478
H           -1.41076017517722        3.11419022549222        3.08657462358516

          :  Hamiltonian                  GFN2-xTB          :
         :: total energy             -99.353918022314 Eh    ::
         :: gradient norm              0.008196108016 Eh/a0 ::
         :: HOMO-LUMO gap              2.589915634389 eV    ::
         :: SCC energy              -100.745237851503 Eh    ::
         :: -> dispersion             -0.073651082709 Eh    ::
         :: repulsion energy           1.390145014599 Eh    ::

    * Orbital Energies and Occupations

         #    Occupation            Energy/Eh            Energy/eV
      -------------------------------------------------------------
         1        2.0000           -0.8478328             -23.0707
       ...           ...                  ...                  ...
        78        1.9995           -0.5266257             -14.3302
        79        1.9992           -0.5199293             -14.1480
        80        1.9991           -0.5192306             -14.1290
        81        1.9991           -0.5178229             -14.0907
        82        1.9988           -0.5135919             -13.9755
        83        1.9981           -0.5066372             -13.7863
        84        1.9976           -0.5031640             -13.6918
        85        1.9974           -0.5017643             -13.6537
        86        1.9929           -0.4856601             -13.2155
        87        1.9904           -0.4808946             -13.0858
        88        1.9602           -0.4581645             -12.4673
        89        1.9429           -0.4523330             -12.3086
        90        1.9372           -0.4507652             -12.2659 (HOMO)
        91        0.1406           -0.3555876              -9.6760 (LUMO)
        92        0.0215           -0.3248638              -8.8400
        93        0.0088           -0.3107167              -8.4550
        94        0.0074           -0.3078992              -8.3784
        95        0.0071           -0.3071932              -8.3592
        96        0.0055           -0.3031648              -8.2495
        97        0.0000           -0.2128341              -5.7915
        98        0.0000           -0.1835809              -4.9955
        99        0.0000           -0.1810317              -4.9261
       100        0.0000           -0.1304484              -3.5497
       101                         -0.1220405              -3.3209
       ...                                ...                  ...
       171                          0.5835639              15.8796
      -------------------------------------------------------------
                  HL-Gap            0.0951776 Eh            2.5899 eV

     #   Z          covCN         q      C6AA      α(0)
     1   7 N        1.774    -0.283    28.164     7.859
     2   6 C        2.826     0.100    25.777     8.319
     3   6 C        3.909     0.010    20.352     6.412
     4   6 C        2.973    -0.003    28.096     8.695
     5   6 C        2.922    -0.082    30.047     8.989
     6   6 C        2.863     0.124    25.269     8.240
     7   8 O        1.705    -0.243    18.023     5.732
     8   6 C        3.644     0.031    20.383     6.489
     9   6 C        2.864     0.124    25.277     8.241
    10   8 O        1.706    -0.240    17.976     5.724
    11   6 C        3.645     0.030    20.405     6.492
    12   6 C        2.915    -0.077    29.919     8.969
    13   6 C        2.922    -0.056    29.403     8.892
    14   6 C        3.816    -0.064    21.707     6.631
    15   6 C        2.889    -0.036    28.905     8.814
    16   6 C        2.835    -0.055    29.359     8.879
    17   7 N        3.578     0.054    20.286     6.690
    18   6 C        3.750    -0.032    21.206     6.568
    19   6 C        3.807    -0.074    21.911     6.664
    20   6 C        2.970    -0.011    28.296     8.725
    21   6 C        2.922    -0.056    29.394     8.891
    22   6 C        2.915    -0.071    29.759     8.946
    23   6 C        2.865     0.131    25.130     8.217
    24   8 O        1.706    -0.231    17.822     5.700
    25   6 C        3.645     0.027    20.455     6.500
    26   6 C        2.864     0.130    25.147     8.220
    27   8 O        1.706    -0.233    17.856     5.705
    28   6 C        3.645     0.029    20.419     6.495
    29   6 C        2.919    -0.083    30.075     8.993
    30   6 C        3.697    -0.085    22.309     6.756
    31   6 C        3.853    -0.007    20.668     6.466
    32   6 C        3.756    -0.118    22.807     6.809
    33   6 C        3.755    -0.119    22.835     6.814
    34   1 H        0.926     0.046     2.366     2.405
    35   1 H        0.924     0.051     2.311     2.377
    36   1 H        0.925     0.077     2.015     2.220
    37   1 H        0.924     0.040     2.447     2.446
    38   1 H        0.924     0.052     2.297     2.370
    39   1 H        0.925     0.077     2.013     2.219
    40   1 H        0.924     0.042     2.427     2.436
    41   1 H        0.926     0.047     2.357     2.401
    42   1 H        0.926     0.035     2.514     2.480
    43   1 H        0.925     0.070     2.088     2.259
    44   1 H        0.925     0.056     2.243     2.342
    45   1 H        0.926     0.057     2.236     2.338
    46   1 H        0.860     0.220     1.011     1.575
    47   1 H        0.923    -0.014     3.308     2.844
    48   1 H        0.926     0.070     2.084     2.258
    49   1 H        0.924     0.089     1.890     2.150
    50   1 H        0.924     0.091     1.866     2.136
    51   1 H        0.924     0.053     2.285     2.364
    52   1 H        0.924     0.053     2.283     2.363
    53   1 H        0.926     0.035     2.523     2.484
    54   1 H        0.926     0.055     2.256     2.349
    55   1 H        0.924     0.050     2.321     2.382
    56   1 H        0.924     0.052     2.299     2.371
    57   1 H        0.925     0.080     1.983     2.202
    58   1 H        0.925     0.079     1.985     2.203
    59   1 H        0.924     0.044     2.390     2.418
    60   1 H        0.924     0.048     2.344     2.394
    61   1 H        0.926     0.042     2.422     2.434
    62   1 H        0.925     0.095     1.832     2.117
    63   1 H        0.925     0.101     1.779     2.086
    64   1 H        0.925     0.098     1.807     2.102
    65   1 H        0.924     0.033     2.539     2.492
    66   1 H        0.925     0.068     2.104     2.268
    67   1 H        0.925     0.034     2.527     2.486
    68   1 H        0.925     0.048     2.346     2.395
    69   1 H        0.925     0.062     2.173     2.305
    70   1 H        0.925     0.030     2.581     2.512
    71   1 H        0.925     0.052     2.299     2.371
    72   1 H        0.860     0.150     1.403     1.855

Wiberg/Mayer (AO) data.
largest (>0.10) Wiberg bond orders for each atom

     #   Z sym  total        # sym  WBO       # sym  WBO       # sym  WBO
 ---------------------------------------------------------------------------
     1   7 N    3.010 --     2 C    1.945    72 H    0.946
     2   6 C    3.936 --     1 N    1.945     3 C    0.996    47 H    0.935
     3   6 C    3.969 --     2 C    0.996     4 C    0.970    31 C    0.953
                            14 C    0.917
     4   6 C    3.963 --    13 C    1.430     5 C    1.364     3 C    0.970
     5   6 C    3.969 --     6 C    1.411     4 C    1.364    34 H    0.958
     6   6 C    3.919 --     5 C    1.411     9 C    1.235     7 O    1.083
     7   8 O    2.248 --     6 C    1.083     8 C    0.981
     8   6 C    3.937 --     7 O    0.981    36 H    0.977    35 H    0.975
                            37 H    0.975
     9   6 C    3.917 --    12 C    1.401     6 C    1.235    10 O    1.087
    10   8 O    2.250 --     9 C    1.087    11 C    0.980
    11   6 C    3.937 --    10 O    0.980    39 H    0.978    40 H    0.975
                            38 H    0.975
    12   6 C    3.970 --     9 C    1.401    13 C    1.399    41 H    0.964
    13   6 C    3.968 --     4 C    1.430    12 C    1.399    42 H    0.963
    14   6 C    3.987 --    15 C    1.041    44 H    0.970    43 H    0.955
                             3 C    0.917
    15   6 C    3.860 --    16 C    1.791    14 C    1.041    45 H    0.957
    16   6 C    3.772 --    15 C    1.791    48 H    0.957    17 N    0.919
    17   7 N    3.771 --    30 C    0.959    18 C    0.930    16 C    0.919
                            46 H    0.910
    18   6 C    3.921 --    19 C    0.998    49 H    0.969    50 H    0.964
                            17 N    0.930
    19   6 C    3.986 --    18 C    0.998    20 C    0.994    52 H    0.969
                            51 H    0.967
    20   6 C    3.960 --    21 C    1.426    29 C    1.375    19 C    0.994
    21   6 C    3.971 --    20 C    1.426    22 C    1.407    53 H    0.969
    22   6 C    3.971 --    21 C    1.407    23 C    1.394    54 H    0.964
    23   6 C    3.921 --    22 C    1.394    26 C    1.233    24 O    1.102
    24   8 O    2.267 --    23 C    1.102    25 C    0.977
    25   6 C    3.933 --    57 H    0.977    24 O    0.977    55 H    0.975
                            56 H    0.975
    26   6 C    3.922 --    29 C    1.402    23 C    1.233    27 O    1.095
    27   8 O    2.264 --    26 C    1.095    28 C    0.980
    28   6 C    3.937 --    27 O    0.980    58 H    0.977    60 H    0.975
                            59 H    0.975
    29   6 C    3.969 --    26 C    1.402    20 C    1.375    61 H    0.963
    30   6 C    3.923 --    63 H    0.977    62 H    0.975    64 H    0.971
                            17 N    0.959
    31   6 C    3.982 --    33 C    1.009    32 C    1.007    65 H    0.962
                             3 C    0.953
    32   6 C    3.984 --    31 C    1.007    67 H    0.983    68 H    0.983
                            66 H    0.977
    33   6 C    3.988 --    31 C    1.009    70 H    0.984    71 H    0.982
                            69 H    0.978
    34   1 H    0.997 --     5 C    0.958
    35   1 H    0.996 --     8 C    0.975
    36   1 H    0.994 --     8 C    0.977
    37   1 H    0.996 --     8 C    0.975
    38   1 H    0.995 --    11 C    0.975
    39   1 H    0.994 --    11 C    0.978
    40   1 H    0.996 --    11 C    0.975
    41   1 H    0.996 --    12 C    0.964
    42   1 H    0.998 --    13 C    0.963
    43   1 H    0.992 --    14 C    0.955
    44   1 H    0.996 --    14 C    0.970
    45   1 H    0.997 --    15 C    0.957
    46   1 H    0.948 --    17 N    0.910
    47   1 H    0.992 --     2 C    0.935
    48   1 H    0.995 --    16 C    0.957
    49   1 H    0.992 --    18 C    0.969
    50   1 H    0.992 --    18 C    0.964
    51   1 H    0.996 --    19 C    0.967
    52   1 H    0.997 --    19 C    0.969
    53   1 H    0.999 --    21 C    0.969
    54   1 H    0.996 --    22 C    0.964
    55   1 H    0.995 --    25 C    0.975
    56   1 H    0.995 --    25 C    0.975
    57   1 H    0.993 --    25 C    0.977
    58   1 H    0.993 --    28 C    0.977
    59   1 H    0.996 --    28 C    0.975
    60   1 H    0.996 --    28 C    0.975
    61   1 H    0.997 --    29 C    0.963
    62   1 H    0.991 --    30 C    0.975
    63   1 H    0.990 --    30 C    0.977
    64   1 H    0.990 --    30 C    0.971
    65   1 H    0.996 --    31 C    0.962
    66   1 H    0.993 --    32 C    0.977
    67   1 H    0.998 --    32 C    0.983
    68   1 H    0.995 --    32 C    0.983
    69   1 H    0.994 --    33 C    0.978
    70   1 H    0.998 --    33 C    0.984
    71   1 H    0.995 --    33 C    0.982
    72   1 H    0.974 --     1 N    0.946
 ---------------------------------------------------------------------------

molecular dipole:
                 x           y           z       tot (Debye)
 q only:        1.189      -0.235      -1.879
   full:        1.461      -0.406      -2.181       6.752

           -------------------------------------------------
          | TOTAL ENERGY              -99.353918022314 Eh   |
          | GRADIENT NORM               0.008196108016 Eh/α |
          | HOMO-LUMO GAP               2.589915634389 eV   |
           -------------------------------------------------

 * finished run on 2024/04/06 at 11:16:44.525
