   * xtb version 6.6.1 (8d0f1dd) compiled by 'conda@1efc2f54142f' on 2023-08-01
          program call               : xtb xtbopt.xyz --opt crude --input .xc2 --gfn2

   ID    Z sym.   atoms
    1    6 C      1, 3, 5-7, 10, 11, 14
    2    7 N      2, 4, 9, 13
    3    8 O      8, 12
    4    1 H      15-25

          :  Hamiltonian                  GFN2-xTB          :
 * total energy  :   -42.1312954 Eh     change       -0.5684342E-13 Eh
   *** GEOMETRY OPTIMIZATION CONVERGED AFTER 1 ITERATIONS ***

 final structure:
================
25
 xtb: 6.6.1 (8d0f1dd)
C            3.89376457319494        0.90903590716501       -0.00326909189910
N            2.86448141448367       -0.09243299021167       -0.03724244394990
C            3.01058206985590       -1.39408331129005       -0.09987588684158
N            1.84230934200452       -2.02172658000940       -0.08205751656758
C            0.76830824002855       -1.07860939260636        0.00563905711380
C            1.48958718787695        0.20778703051510        0.03430444514322
C            0.95770831625095        1.41461017362827        0.10344426689356
O            0.42630437258652        2.43211662943714        0.15929739124507
N           -3.28716352142273        1.08553814017821        0.02120374919845
C           -3.33948819214516        2.49586380133874        0.01133707111295
C           -3.87891238645523        0.05681073394160        0.02303272155380
O           -4.25112621279886       -1.04144272793504        0.02061142125561
N           -0.46328264481460       -1.25575751376601        0.04991694647988
C           -1.11392184007793       -2.53084367440716        0.01919428574436
H            3.98359954957417        1.32856332615058        1.00278483025604
H            4.84744907592668        0.46807436031372       -0.28956051069098
H            3.64854022570761        1.71622661334926       -0.69544873815155
H            3.96906560949055       -1.88132466413830       -0.16029965747967
H           -2.31414633124056        2.86562450834623        0.04310790398141
H           -3.82378476644184        2.85945716890877       -0.89741976994037
H           -3.88285771543641        2.87136355061640        0.88090156091648
H           -0.87106740837635       -3.11717374960742        0.90893580265464
H           -0.83486227507489       -3.10930278519501       -0.86529034986106
H           -2.18629625030209       -2.34963304232450        0.00224073085843
H            1.70564108170612       -3.02050297079781       -0.12431660112594

          :  Hamiltonian                  GFN2-xTB          :
         :: total energy             -42.131295369067 Eh    ::
         :: gradient norm              0.003933477988 Eh/a0 ::
         :: HOMO-LUMO gap              1.585889506199 eV    ::
         :: SCC energy               -42.759007271661 Eh    ::
         :: -> dispersion             -0.018287091462 Eh    ::
         :: repulsion energy           0.627653037248 Eh    ::

    * Orbital Energies and Occupations

         #    Occupation            Energy/Eh            Energy/eV
      -------------------------------------------------------------
         1        2.0000           -0.9301027             -25.3094
       ...           ...                  ...                  ...
        25        2.0000           -0.6560987             -17.8534
        26        2.0000           -0.6507636             -17.7082
        27        2.0000           -0.6464187             -17.5899
        28        2.0000           -0.6281280             -17.0922
        29        2.0000           -0.6248917             -17.0042
        30        2.0000           -0.6045439             -16.4505
        31        2.0000           -0.6038023             -16.4303
        32        2.0000           -0.6014232             -16.3656
        33        2.0000           -0.5988073             -16.2944
        34        1.9985           -0.5367592             -14.6060
        35        1.9920           -0.5235258             -14.2459
        36        1.9772           -0.5151440             -14.0178
        37        1.9529           -0.5093116             -13.8591 (HOMO)
        38        0.0513           -0.4510312             -12.2732 (LUMO)
        39        0.0282           -0.4461885             -12.1414
        40        0.0000           -0.3804908             -10.3537
        41                         -0.2996384              -8.1536
        42                         -0.2813749              -7.6566
        43                         -0.2582929              -7.0285
        44                         -0.1927691              -5.2455
        45                         -0.1587186              -4.3190
        46                         -0.1071288              -2.9151
        47                         -0.0594061              -1.6165
        48                         -0.0453865              -1.2350
       ...                                ...                  ...
        67                          1.2372321              33.6668
      -------------------------------------------------------------
                  HL-Gap            0.0582804 Eh            1.5859 eV

     #   Z          covCN         q      C6AA      α(0)
     1   6 C        3.691    -0.087    22.349     6.765
     2   7 N        2.802     0.067    20.080     6.655
     3   6 C        2.957     0.095    25.896     8.347
     4   7 N        2.771    -0.090    22.998     7.123
     5   6 C        2.920     0.157    24.611     8.135
     6   6 C        3.042    -0.023    28.533     8.761
     7   6 C        1.844     0.271    24.939     8.067
     8   8 O        0.856    -0.093    16.418     5.432
     9   7 N        1.820    -0.169    25.452     7.475
    10   6 C        3.686    -0.028    21.283     6.604
    11   6 C        1.770     0.311    24.244     7.960
    12   8 O        0.856    -0.272    19.288     5.888
    13   7 N        1.823    -0.211    26.411     7.615
    14   6 C        3.704    -0.043    21.498     6.629
    15   1 H        0.924     0.106     1.731     2.058
    16   1 H        0.925     0.107     1.726     2.055
    17   1 H        0.924     0.103     1.758     2.073
    18   1 H        0.926     0.121     1.605     1.981
    19   1 H        0.924     0.078     2.002     2.213
    20   1 H        0.924     0.077     2.013     2.219
    21   1 H        0.924     0.077     2.011     2.217
    22   1 H        0.924     0.066     2.134     2.284
    23   1 H        0.924     0.058     2.217     2.329
    24   1 H        0.925     0.099     1.797     2.096
    25   1 H        0.860     0.225     0.986     1.555

Wiberg/Mayer (AO) data.
largest (>0.10) Wiberg bond orders for each atom

     #   Z sym  total        # sym  WBO       # sym  WBO       # sym  WBO
 ---------------------------------------------------------------------------
     1   6 C    3.931 --     2 N    0.991    16 H    0.972    17 H    0.966
                            15 H    0.959
     2   7 N    3.677 --     3 C    1.437     6 C    1.034     1 C    0.991
                             4 N    0.135
     3   6 C    3.935 --     2 N    1.437     4 N    1.364    18 H    0.945
     4   7 N    3.579 --     3 C    1.364     5 C    0.991    25 H    0.921
                             2 N    0.135    13 N    0.104
     5   6 C    3.950 --    13 N    1.789     6 C    1.015     4 N    0.991
     6   6 C    3.896 --     7 C    1.517     2 N    1.034     5 C    1.015
                             8 O    0.172
     7   6 C    3.843 --     8 O    2.137     6 C    1.517
     8   8 O    2.467 --     7 C    2.137     6 C    0.172
     9   7 N    3.382 --    11 C    1.996    10 C    1.015    12 O    0.369
    10   6 C    3.945 --     9 N    1.015    19 H    0.969    21 H    0.960
                            20 H    0.960
    11   6 C    3.942 --     9 N    1.996    12 O    1.878
    12   8 O    2.294 --    11 C    1.878     9 N    0.369
    13   7 N    3.138 --     5 C    1.789    14 C    1.018     4 N    0.104
    14   6 C    3.960 --    13 N    1.018    24 H    0.972    23 H    0.961
                            22 H    0.956
    15   1 H    0.988 --     1 C    0.959
    16   1 H    0.988 --     1 C    0.972
    17   1 H    0.989 --     1 C    0.966
    18   1 H    0.983 --     3 C    0.945
    19   1 H    0.991 --    10 C    0.969
    20   1 H    0.986 --    10 C    0.960
    21   1 H    0.986 --    10 C    0.960
    22   1 H    0.991 --    14 C    0.956
    23   1 H    0.993 --    14 C    0.961
    24   1 H    0.989 --    14 C    0.972
    25   1 H    0.948 --     4 N    0.921
 ---------------------------------------------------------------------------

molecular dipole:
                 x           y           z       tot (Debye)
 q only:        3.991      -0.241      -0.069
   full:        4.309      -0.619      -0.102      11.068

           -------------------------------------------------
          | TOTAL ENERGY              -42.131295369067 Eh   |
          | GRADIENT NORM               0.003933477988 Eh/α |
          | HOMO-LUMO GAP               1.585889506199 eV   |
           -------------------------------------------------

 * finished run on 2024/06/05 at 19:58:02.194
