   * xtb version 6.6.1 (8d0f1dd) compiled by 'conda@1efc2f54142f' on 2023-08-01
          program call               : xtb struc.xyz --opt loose --input .xc1 --gfn2

   ID    Z sym.   atoms
    1    7 N      1, 17
    2    6 C      2-6, 8, 9, 11-16, 18-23, 25, 26, 28-33
    3    8 O      7, 10, 24, 27
    4    1 H      34-72
constraining bond 44 45 to    4.2800000 Å, actual value:    3.0539963 Å

          :  Hamiltonian                  GFN2-xTB          :
 * total energy  :   -99.1357503 Eh     change       -0.4035485E-08 Eh
 * total energy  :   -99.2617944 Eh     change       -0.1260441E+00 Eh
 * total energy  :   -99.3009741 Eh     change       -0.3917970E-01 Eh
 * total energy  :   -99.3055506 Eh     change       -0.4576530E-02 Eh
 * total energy  :   -99.3066327 Eh     change       -0.1082105E-02 Eh
 * total energy  :   -99.3083949 Eh     change       -0.1762120E-02 Eh
 * total energy  :   -99.3091768 Eh     change       -0.7819616E-03 Eh
 * total energy  :   -99.3097616 Eh     change       -0.5848180E-03 Eh
 * total energy  :   -99.3101355 Eh     change       -0.3738552E-03 Eh
 * total energy  :   -99.3103320 Eh     change       -0.1964867E-03 Eh
 * total energy  :   -99.3104659 Eh     change       -0.1338924E-03 Eh
 * total energy  :   -99.3105806 Eh     change       -0.1147289E-03 Eh
 * total energy  :   -99.3106685 Eh     change       -0.8792537E-04 Eh
 * total energy  :   -99.3107210 Eh     change       -0.5244263E-04 Eh
 * total energy  :   -99.3107533 Eh     change       -0.3231155E-04 Eh
   *** GEOMETRY OPTIMIZATION CONVERGED AFTER 15 ITERATIONS ***

 final structure:
================
72
 xtb: 6.6.1 (8d0f1dd)
N           -1.85040115611990        2.85649096431318        2.20175064547312
C           -1.81187865866860        2.14271537084451        1.17678695322420
C           -2.96989824357018        1.95070954403797        0.23165964366799
C           -3.44233411083792        0.50568633682011        0.29093340335766
C           -4.39810627306292        0.04413710078181       -0.61647671394013
C           -4.87522460410668       -1.25503211417759       -0.56458833649878
O           -5.80550478696846       -1.78467877250563       -1.38598827320110
C           -6.46100136238820       -0.96113743400357       -2.32123459371540
C           -4.37382618540759       -2.14651329496581        0.42230157962228
O           -4.88781221225842       -3.39291720734792        0.39547030442712
C           -4.50388307606643       -4.30687848901748        1.39583455355667
C           -3.42646370047324       -1.68202996001467        1.31957375762846
C           -2.97278088276642       -0.37051590282338        1.25635141987975
C           -2.42170549663034        2.27984083385025       -1.17433871442209
C           -1.53472977186154        0.91958201303706       -1.81071803344228
C           -0.19672360455495        0.95660726165232       -1.22072301079287
N            0.47659128092065       -0.06169305245615       -0.69261722009495
C            1.84778177787457        0.11498166221800       -0.27069101139064
C            2.83891347273100       -0.33755871160939       -1.36012719231294
C            4.25466970136292       -0.12562979384410       -0.90203300389242
C            4.89513762019925        1.08352887374155       -1.11877477036446
C            6.19782902590754        1.28415524628168       -0.68889221922962
C            6.88633832259657        0.27757735134974       -0.02710757743459
O            8.15041565469581        0.35743807080066        0.42760367921738
C            8.88323715701775        1.54292693716579        0.21960064198678
C            6.23476115649351       -0.96514350891743        0.20631932449970
O            6.97623393816625       -1.88864100853206        0.84990373736156
C            6.43097043195258       -3.16301421503324        1.09432082763926
C            4.93135522882540       -1.14118206918336       -0.23042564900220
C           -0.06255083107471       -1.40018718404164       -0.63430048886524
C           -4.19048696284901        2.86490567789780        0.56654038048405
C           -4.80136605743549        2.48934994083633        1.91541270208549
C           -3.86760198031211        4.35751814751983        0.54806506342900
H           -4.78495333406206        0.71450991168039       -1.36594266501606
H           -6.96914146779427       -0.12434987917602       -1.83289864894495
H           -7.20030684851683       -1.60003410189708       -2.80099467797197
H           -5.76918935823713       -0.57950132990399       -3.07896320173058
H           -4.74564225635628       -3.93123189607607        2.39447796202014
H           -5.07603319798293       -5.21173086774812        1.20200157887135
H           -3.43462810653968       -4.53560912710414        1.34014412743184
H           -3.04262930077449       -2.32921607840866        2.09130592263216
H           -2.26362141290890       -0.03452661885547        1.99686475394004
H           -3.25572677567625        2.35388935769505       -1.87012662810995
H           -2.04523997807994        3.48975852361830       -1.05516186904540
H           -1.86342297620347       -0.30807222884287       -1.90325072865101
H           -1.45894986135785        1.22897855351865       -2.85767340983007
H           -0.90778208066161        1.61181398540590        0.83131703331412
H            0.32173761521431        1.90553353930160       -1.22955088399457
H            2.02011144074999       -0.46313339951144        0.64097730045790
H            2.02616707265539        1.16835868065919       -0.04472210955147
H            2.64990521645306        0.24283167134625       -2.26489705763114
H            2.67370602455560       -1.39198554529752       -1.58509966565376
H            4.38569962667243        1.87942292690881       -1.64050292916844
H            6.67343674222399        2.23155135116466       -0.88240685658409
H            8.41363252991323        2.39685659740697        0.71719209883195
H            9.00030198819995        1.75939112003247       -0.84645767523391
H            9.86158415063194        1.36196450557433        0.66055313653891
H            7.21569308927760       -3.72451884303889        1.59745793430216
H            5.55329638739835       -3.10606895519769        1.74621692217643
H            6.16367500923162       -3.67092848261057        0.16239318913449
H            4.43158786874810       -2.08295889329342       -0.06561485240873
H           -0.12807146293944       -1.84698511503484       -1.62973445271029
H           -1.05647239856125       -1.38771236671251       -0.18058034429065
H            0.58842295148593       -2.02210935270144       -0.02388069644350
H           -4.94177516233115        2.67346839017742       -0.20785002919496
H           -4.08775964433377        2.67674759781692        2.71110963131367
H           -5.08930624043944        1.44128852642736        1.93809585906915
H           -5.68818188743518        3.09117592186040        2.09510893374388
H           -3.05234238404147        4.57785087798226        1.23016974435276
H           -3.61599043887269        4.71041631469931       -0.44964188378252
H           -4.74193655333660        4.91338630406185        0.87713296518442
H           -1.00329380030051        2.94021933189799        2.75530520629199

          :  Hamiltonian                  GFN2-xTB          :
         :: total energy             -99.310753291597 Eh    ::
         :: gradient norm              0.002330517953 Eh/a0 ::
         :: HOMO-LUMO gap              1.668607511097 eV    ::
         :: SCC energy              -100.682666617419 Eh    ::
         :: -> dispersion             -0.074984267839 Eh    ::
         :: repulsion energy           1.344253596731 Eh    ::

    * Orbital Energies and Occupations

         #    Occupation            Energy/Eh            Energy/eV
      -------------------------------------------------------------
         1        2.0000           -0.8084199             -21.9982
       ...           ...                  ...                  ...
        78        1.9984           -0.5293120             -14.4033
        79        1.9983           -0.5282703             -14.3750
        80        1.9982           -0.5271875             -14.3455
        81        1.9976           -0.5225116             -14.2183
        82        1.9971           -0.5195426             -14.1375
        83        1.9958           -0.5138295             -13.9820
        84        1.9953           -0.5120427             -13.9334
        85        1.9943           -0.5089839             -13.8502
        86        1.9805           -0.4893944             -13.3171
        87        1.9786           -0.4879197             -13.2770
        88        1.9348           -0.4699092             -12.7869
        89        1.8728           -0.4588018             -12.4846
        90        1.8447           -0.4554074             -12.3923 (HOMO)
        91        0.3964           -0.3940872             -10.7237 (LUMO)
        92        0.0140           -0.3378175              -9.1925
        93        0.0035           -0.3158472              -8.5946
        94        0.0029           -0.3127995              -8.5117
        95        0.0028           -0.3119245              -8.4879
        96        0.0024           -0.3095518              -8.4233
        97        0.0001           -0.2654263              -7.2226
        98        0.0000           -0.1899832              -5.1697
        99        0.0000           -0.1869766              -5.0879
       100                         -0.1391039              -3.7852
       101                         -0.1220105              -3.3201
       ...                                ...                  ...
       171                          0.5771349              15.7046
      -------------------------------------------------------------
                  HL-Gap            0.0613202 Eh            1.6686 eV

     #   Z          covCN         q      C6AA      α(0)
     1   7 N        1.774    -0.272    27.885     7.820
     2   6 C        2.828     0.101    25.746     8.315
     3   6 C        3.907     0.006    20.417     6.423
     4   6 C        2.974     0.004    27.930     8.669
     5   6 C        2.920    -0.078    29.949     8.974
     6   6 C        2.861     0.129    25.162     8.222
     7   8 O        1.706    -0.230    17.817     5.699
     8   6 C        3.643     0.028    20.453     6.501
     9   6 C        2.865     0.128    25.194     8.228
    10   8 O        1.706    -0.229    17.795     5.696
    11   6 C        3.646     0.027    20.450     6.498
    12   6 C        2.914    -0.076    29.890     8.965
    13   6 C        2.922    -0.053    29.326     8.881
    14   6 C        3.622    -0.059    22.112     6.778
    15   6 C        3.610    -0.060    22.214     6.807
    16   6 C        2.841     0.010    27.788     8.639
    17   7 N        2.729     0.005    21.166     6.833
    18   6 C        3.755    -0.016    20.908     6.520
    19   6 C        3.808    -0.071    21.843     6.653
    20   6 C        2.969    -0.000    28.033     8.685
    21   6 C        2.922    -0.049    29.207     8.863
    22   6 C        2.914    -0.067    29.679     8.933
    23   6 C        2.865     0.133    25.079     8.209
    24   8 O        1.706    -0.222    17.681     5.677
    25   6 C        3.645     0.025    20.489     6.506
    26   6 C        2.863     0.133    25.089     8.210
    27   8 O        1.706    -0.225    17.728     5.685
    28   6 C        3.645     0.027    20.452     6.500
    29   6 C        2.920    -0.080    29.988     8.980
    30   6 C        3.698    -0.068    21.978     6.705
    31   6 C        3.852    -0.008    20.681     6.468
    32   6 C        3.756    -0.119    22.833     6.813
    33   6 C        3.755    -0.117    22.805     6.809
    34   1 H        0.926     0.051     2.302     2.373
    35   1 H        0.924     0.054     2.276     2.359
    36   1 H        0.925     0.081     1.965     2.192
    37   1 H        0.924     0.048     2.351     2.398
    38   1 H        0.924     0.055     2.261     2.351
    39   1 H        0.925     0.081     1.968     2.194
    40   1 H        0.924     0.047     2.354     2.399
    41   1 H        0.926     0.052     2.300     2.372
    42   1 H        0.926     0.039     2.468     2.457
    43   1 H        0.925     0.061     2.190     2.314
    44   1 H        0.813     0.058     2.254     2.357
    45   1 H        0.811     0.055     2.297     2.379
    46   1 H        0.924     0.082     1.962     2.190
    47   1 H        0.923     0.003     3.012     2.714
    48   1 H        0.925     0.070     2.085     2.258
    49   1 H        0.924     0.067     2.115     2.274
    50   1 H        0.924     0.067     2.123     2.279
    51   1 H        0.924     0.055     2.264     2.353
    52   1 H        0.924     0.055     2.255     2.348
    53   1 H        0.926     0.045     2.382     2.414
    54   1 H        0.926     0.059     2.216     2.328
    55   1 H        0.924     0.054     2.267     2.355
    56   1 H        0.924     0.056     2.248     2.345
    57   1 H        0.925     0.082     1.955     2.186
    58   1 H        0.925     0.082     1.960     2.189
    59   1 H        0.924     0.048     2.339     2.392
    60   1 H        0.924     0.052     2.291     2.367
    61   1 H        0.926     0.047     2.359     2.402
    62   1 H        0.924     0.074     2.039     2.233
    63   1 H        0.924     0.081     1.968     2.194
    64   1 H        0.925     0.079     1.989     2.206
    65   1 H        0.924     0.036     2.501     2.473
    66   1 H        0.925     0.069     2.091     2.261
    67   1 H        0.925     0.036     2.506     2.476
    68   1 H        0.925     0.052     2.300     2.372
    69   1 H        0.925     0.062     2.180     2.309
    70   1 H        0.925     0.036     2.508     2.477
    71   1 H        0.925     0.056     2.248     2.344
    72   1 H        0.860     0.156     1.363     1.829

Wiberg/Mayer (AO) data.
largest (>0.10) Wiberg bond orders for each atom

     #   Z sym  total        # sym  WBO       # sym  WBO       # sym  WBO
 ---------------------------------------------------------------------------
     1   7 N    3.029 --     2 C    1.955    72 H    0.942
     2   6 C    3.936 --     1 N    1.955     3 C    0.991    47 H    0.915
     3   6 C    3.976 --     2 C    0.991    14 C    0.973     4 C    0.968
                            31 C    0.936
     4   6 C    3.949 --    13 C    1.416     5 C    1.369     3 C    0.968
     5   6 C    3.962 --     6 C    1.403     4 C    1.369    34 H    0.958
     6   6 C    3.906 --     5 C    1.403     9 C    1.222     7 O    1.099
     7   8 O    2.254 --     6 C    1.099     8 C    0.978
     8   6 C    3.932 --     7 O    0.978    36 H    0.977    35 H    0.974
                            37 H    0.973
     9   6 C    3.902 --    12 C    1.393     6 C    1.222    10 O    1.100
    10   8 O    2.252 --     9 C    1.100    11 C    0.978
    11   6 C    3.932 --    10 O    0.978    39 H    0.977    40 H    0.974
                            38 H    0.973
    12   6 C    3.962 --    13 C    1.401     9 C    1.393    41 H    0.964
    13   6 C    3.954 --     4 C    1.416    12 C    1.401    42 H    0.962
    14   6 C    3.912 --     3 C    0.973    43 H    0.973    44 H    0.953
                            15 C    0.892
    15   6 C    3.970 --    16 C    1.119    45 H    0.949    46 H    0.932
                            14 C    0.892
    16   6 C    3.612 --    17 N    1.393    15 C    1.119    48 H    0.955
    17   7 N    3.477 --    16 C    1.393    30 C    0.998    18 C    0.988
    18   6 C    3.956 --    17 N    0.988    50 H    0.968    19 C    0.967
                            49 H    0.964
    19   6 C    3.977 --    20 C    1.008    52 H    0.972    51 H    0.972
                            18 C    0.967
    20   6 C    3.944 --    21 C    1.410    29 C    1.380    19 C    1.008
    21   6 C    3.950 --    22 C    1.417    20 C    1.410    53 H    0.968
    22   6 C    3.959 --    21 C    1.417    23 C    1.384    54 H    0.963
    23   6 C    3.895 --    22 C    1.384    26 C    1.220    24 O    1.110
    24   8 O    2.255 --    23 C    1.110    25 C    0.976
    25   6 C    3.928 --    57 H    0.977    24 O    0.976    55 H    0.973
                            56 H    0.973
    26   6 C    3.899 --    29 C    1.395    23 C    1.220    27 O    1.103
    27   8 O    2.254 --    26 C    1.103    28 C    0.979
    28   6 C    3.932 --    27 O    0.979    58 H    0.977    59 H    0.973
                            60 H    0.973
    29   6 C    3.959 --    26 C    1.395    20 C    1.380    61 H    0.962
    30   6 C    3.958 --    17 N    0.998    64 H    0.976    62 H    0.965
                            63 H    0.960
    31   6 C    3.970 --    33 C    1.009    32 C    1.008    65 H    0.961
                             3 C    0.936
    32   6 C    3.979 --    31 C    1.008    67 H    0.982    68 H    0.981
                            66 H    0.974
    33   6 C    3.983 --    31 C    1.009    71 H    0.979    70 H    0.977
                            69 H    0.976
    34   1 H    0.996 --     5 C    0.958
    35   1 H    0.993 --     8 C    0.974
    36   1 H    0.993 --     8 C    0.977
    37   1 H    0.994 --     8 C    0.973
    38   1 H    0.993 --    11 C    0.973
    39   1 H    0.993 --    11 C    0.977
    40   1 H    0.993 --    11 C    0.974
    41   1 H    0.996 --    12 C    0.964
    42   1 H    0.998 --    13 C    0.962
    43   1 H    0.994 --    14 C    0.973
    44   1 H    0.994 --    14 C    0.953
    45   1 H    0.994 --    15 C    0.949
    46   1 H    0.969 --    15 C    0.932
    47   1 H    0.986 --     2 C    0.915
    48   1 H    0.995 --    16 C    0.955
    49   1 H    0.991 --    18 C    0.964
    50   1 H    0.994 --    18 C    0.968
    51   1 H    0.996 --    19 C    0.972
    52   1 H    0.996 --    19 C    0.972
    53   1 H    0.997 --    21 C    0.968
    54   1 H    0.995 --    22 C    0.963
    55   1 H    0.992 --    25 C    0.973
    56   1 H    0.992 --    25 C    0.973
    57   1 H    0.992 --    25 C    0.977
    58   1 H    0.993 --    28 C    0.977
    59   1 H    0.993 --    28 C    0.973
    60   1 H    0.993 --    28 C    0.973
    61   1 H    0.997 --    29 C    0.962
    62   1 H    0.985 --    30 C    0.965
    63   1 H    0.987 --    30 C    0.960
    64   1 H    0.993 --    30 C    0.976
    65   1 H    0.993 --    31 C    0.961
    66   1 H    0.991 --    32 C    0.974
    67   1 H    0.997 --    32 C    0.982
    68   1 H    0.994 --    32 C    0.981
    69   1 H    0.993 --    33 C    0.976
    70   1 H    0.997 --    33 C    0.977
    71   1 H    0.994 --    33 C    0.979
    72   1 H    0.971 --     1 N    0.942
 ---------------------------------------------------------------------------

molecular dipole:
                 x           y           z       tot (Debye)
 q only:        0.597      -0.009      -0.841
   full:        0.870      -0.063      -1.040       3.450

           -------------------------------------------------
          | TOTAL ENERGY              -99.310753291597 Eh   |
          | GRADIENT NORM               0.002330517953 Eh/α |
          | HOMO-LUMO GAP               1.668607511097 eV   |
           -------------------------------------------------

 * finished run on 2024/04/06 at 11:15:03.071
