   * xtb version 6.6.1 (8d0f1dd) compiled by 'conda@1efc2f54142f' on 2023-08-01
          program call               : xtb xtbopt.xyz --opt crude --input .xc2 --gfn2

   ID    Z sym.   atoms
    1    7 N      1, 17
    2    6 C      2-6, 8, 9, 11-16, 18-23, 25, 26, 28-33
    3    8 O      7, 10, 24, 27
    4    1 H      34-72
########################################################################
[WARNING] Please study the warnings concerning your input carefully
-1- readin_getIntValue: could not parse ''
########################################################################

          :  Hamiltonian                  GFN2-xTB          :
 * total energy  :   -99.3371346 Eh     change       -0.5115908E-12 Eh
 * total energy  :   -99.3840037 Eh     change       -0.4686913E-01 Eh
 * total energy  :   -99.3990226 Eh     change       -0.1501889E-01 Eh
 * total energy  :   -99.4038027 Eh     change       -0.4780088E-02 Eh
 * total energy  :   -99.4056398 Eh     change       -0.1837142E-02 Eh
 * total energy  :   -99.4061114 Eh     change       -0.4715881E-03 Eh
   *** GEOMETRY OPTIMIZATION CONVERGED AFTER 6 ITERATIONS ***

 final structure:
================
72
 xtb: 6.6.1 (8d0f1dd)
N           -1.84809620503591        2.83486258705397        2.19241552207430
C           -1.80914943549963        2.12621742077525        1.16435800568194
C           -2.97014958892595        1.91695014590458        0.23081463253097
C           -3.45158983594525        0.47703792608638        0.31426597912456
C           -4.40653164317773        0.01831100102976       -0.59592918104072
C           -4.88377624520882       -1.28019834168032       -0.54963138500922
O           -5.80947713962933       -1.80157308450728       -1.38044228767702
C           -6.45052800178621       -0.96434725793179       -2.31441229821410
C           -4.38279168999262       -2.17302532809028        0.43624243735183
O           -4.89356197656290       -3.42000295448195        0.40345566282312
C           -4.51141347578973       -4.33637896260603        1.40202880551511
C           -3.43763641596080       -1.71032734828211        1.33746422538025
C           -2.98151132284723       -0.39911210558052        1.27859889244806
C           -2.42920290267803        2.18908804102027       -1.19651416853465
C           -1.52426946179807        1.07505459857564       -1.76178528933610
C           -0.17810745380302        1.05219000539579       -1.15279389388019
N            0.47306231555633       -0.00848882528362       -0.68767190698004
C            1.85251355608347        0.12261722449450       -0.27248760006740
C            2.83406795607578       -0.33933457895553       -1.36627688851352
C            4.25112234605647       -0.13016519160881       -0.90866791062706
C            4.89090535394522        1.08004742248110       -1.12308157450528
C            6.19223545959100        1.28279898423304       -0.69021621825667
C            6.88122954142922        0.27692496431035       -0.02791726901159
O            8.14455291202023        0.35788070981808        0.42831024000376
C            8.87823707963103        1.54278147880276        0.21948967166853
C            6.23050346100071       -0.96672112128293        0.20393514901885
O            6.97192226998044       -1.88806017030313        0.85035096328240
C            6.42924656410299       -3.16354908426637        1.09451941588071
C            4.92817391638184       -1.14484567315724       -0.23597546805213
C           -0.09887611575603       -1.33369116157704       -0.66224435462476
C           -4.18137574329793        2.84569501772859        0.54993812097532
C           -4.80129517908823        2.49347298067948        1.90146468194874
C           -3.83707561256350        4.33182592054214        0.51096589653917
H           -4.79239981013499        0.69157176451144       -1.34300995312189
H           -6.95313358422769       -0.12583305324214       -1.82305577970599
H           -7.19284318715122       -1.59108752985344       -2.80500554854461
H           -5.74946767590142       -0.58354406598005       -3.06439068005464
H           -4.75578663236516       -3.96317320525619        2.40097183225639
H           -5.08279987368369       -5.24067820700939        1.20401041204977
H           -3.44190696644132       -4.56431410504964        1.34832913034043
H           -3.05248620081051       -2.36015772203686        2.10605678261144
H           -2.27062825634932       -0.06280836163759        2.01731943437504
H           -3.27479746281184        2.30652335795877       -1.87305891406034
H           -1.88826783424577        3.12660800960125       -1.19356651687103
H           -2.02398185835030        0.11492866034481       -1.67496984023411
H           -1.39252732695782        1.29257159852456       -2.83148211608814
H           -0.89669946941508        1.61534925839976        0.80692621824676
H            0.38289050996771        1.97557346191921       -1.17635694734833
H            2.01126237199599       -0.47186764025846        0.63115271017134
H            2.05849507736426        1.16790641532335       -0.03217461782383
H            2.64776517351227        0.24039345892423       -2.27198985647116
H            2.66328451468169       -1.39330588074845       -1.58871607633967
H            4.38166120499968        1.87574649111893       -1.64533676565262
H            6.66633717131704        2.23156217321800       -0.88080408411488
H            8.40977877481841        2.39740736613697        0.71694883572189
H            8.99509370357374        1.75867202309362       -0.84670868169005
H            9.85671039593907        1.36129994894255        0.66003155668849
H            7.21482996145966       -3.72362147564302        1.59797074860462
H            5.55126338231584       -3.10832431497483        1.74615288342026
H            6.16342862196006       -3.67174572046591        0.16239482388326
H            4.42981492872438       -2.08755083777361       -0.07219065351229
H           -0.17758595400737       -1.75350479959804       -1.66799765789951
H           -1.09348782404312       -1.31448524292979       -0.21155705924061
H            0.53848471788640       -1.98323848568030       -0.06567533892283
H           -4.93286607253585        2.65537604408982       -0.22436512325068
H           -4.09077750525202        2.68915298310534        2.69802507251310
H           -5.09543667239946        1.44742309292916        1.93977607127720
H           -5.68537621938184        3.10318972594335        2.06812059438505
H           -3.03887612189814        4.55619115718679        1.21164089274291
H           -3.54470425678006        4.65535105148542       -0.48551901830512
H           -4.71354793358379        4.90440620840632        0.80581990226412
H           -0.99555750129709        2.93224068013731        2.73497756238318

          :  Hamiltonian                  GFN2-xTB          :
         :: total energy             -99.406111400003 Eh    ::
         :: gradient norm              0.008098280434 Eh/a0 ::
         :: HOMO-LUMO gap              1.660924169677 eV    ::
         :: SCC energy              -100.785870445245 Eh    ::
         :: -> dispersion             -0.075218846309 Eh    ::
         :: repulsion energy           1.378504831183 Eh    ::

    * Orbital Energies and Occupations

         #    Occupation            Energy/Eh            Energy/eV
      -------------------------------------------------------------
         1        2.0000           -0.8091068             -22.0169
       ...           ...                  ...                  ...
        78        1.9983           -0.5290425             -14.3960
        79        1.9982           -0.5286344             -14.3849
        80        1.9981           -0.5276162             -14.3572
        81        1.9975           -0.5230554             -14.2331
        82        1.9970           -0.5202484             -14.1567
        83        1.9959           -0.5151317             -14.0174
        84        1.9951           -0.5123023             -13.9405
        85        1.9942           -0.5096391             -13.8680
        86        1.9809           -0.4907080             -13.3528
        87        1.9784           -0.4887096             -13.2985
        88        1.9356           -0.4710601             -12.8182
        89        1.8728           -0.4597546             -12.5106
        90        1.8426           -0.4561329             -12.4120 (HOMO)
        91        0.3974           -0.3950951             -10.7511 (LUMO)
        92        0.0147           -0.3394898              -9.2380
        93        0.0035           -0.3169016              -8.6233
        94        0.0029           -0.3136871              -8.5359
        95        0.0027           -0.3126851              -8.5086
        96        0.0024           -0.3104002              -8.4464
        97        0.0000           -0.1909781              -5.1968
        98        0.0000           -0.1879303              -5.1138
        99                         -0.1386995              -3.7742
       100                         -0.0708740              -1.9286
       101                         -0.0646084              -1.7581
       ...                                ...                  ...
       171                          0.5760018              15.6738
      -------------------------------------------------------------
                  HL-Gap            0.0610378 Eh            1.6609 eV

     #   Z          covCN         q      C6AA      α(0)
     1   7 N        1.774    -0.269    27.790     7.806
     2   6 C        2.826     0.100    25.765     8.317
     3   6 C        3.908     0.006    20.415     6.422
     4   6 C        2.975     0.003    27.957     8.673
     5   6 C        2.920    -0.080    29.999     8.982
     6   6 C        2.862     0.130    25.155     8.221
     7   8 O        1.706    -0.230    17.810     5.698
     8   6 C        3.644     0.027    20.452     6.500
     9   6 C        2.866     0.128    25.187     8.227
    10   8 O        1.706    -0.229    17.790     5.695
    11   6 C        3.646     0.027    20.450     6.498
    12   6 C        2.914    -0.075    29.878     8.963
    13   6 C        2.921    -0.054    29.335     8.882
    14   6 C        3.813    -0.065    21.738     6.636
    15   6 C        3.801    -0.068    21.809     6.649
    16   6 C        2.843     0.008    27.831     8.646
    17   7 N        2.728     0.011    21.072     6.818
    18   6 C        3.757    -0.017    20.922     6.521
    19   6 C        3.807    -0.070    21.842     6.653
    20   6 C        2.969    -0.000    28.033     8.685
    21   6 C        2.922    -0.049    29.209     8.863
    22   6 C        2.914    -0.067    29.678     8.933
    23   6 C        2.864     0.134    25.076     8.208
    24   8 O        1.706    -0.221    17.675     5.676
    25   6 C        3.645     0.025    20.492     6.506
    26   6 C        2.863     0.133    25.086     8.210
    27   8 O        1.706    -0.224    17.722     5.684
    28   6 C        3.645     0.027    20.454     6.500
    29   6 C        2.919    -0.079    29.986     8.980
    30   6 C        3.698    -0.070    22.021     6.712
    31   6 C        3.853    -0.007    20.675     6.467
    32   6 C        3.756    -0.119    22.830     6.813
    33   6 C        3.755    -0.118    22.824     6.812
    34   1 H        0.926     0.052     2.290     2.367
    35   1 H        0.924     0.054     2.271     2.357
    36   1 H        0.925     0.081     1.965     2.192
    37   1 H        0.924     0.048     2.349     2.397
    38   1 H        0.924     0.055     2.259     2.350
    39   1 H        0.925     0.081     1.966     2.193
    40   1 H        0.924     0.048     2.349     2.397
    41   1 H        0.926     0.052     2.298     2.371
    42   1 H        0.926     0.038     2.471     2.458
    43   1 H        0.925     0.060     2.194     2.316
    44   1 H        0.925     0.054     2.265     2.353
    45   1 H        0.925     0.066     2.129     2.282
    46   1 H        0.923     0.080     1.977     2.199
    47   1 H        0.922     0.005     2.966     2.693
    48   1 H        0.926     0.069     2.093     2.262
    49   1 H        0.924     0.068     2.113     2.273
    50   1 H        0.924     0.067     2.119     2.276
    51   1 H        0.924     0.055     2.256     2.349
    52   1 H        0.924     0.056     2.249     2.345
    53   1 H        0.926     0.045     2.382     2.413
    54   1 H        0.926     0.059     2.214     2.327
    55   1 H        0.924     0.054     2.265     2.354
    56   1 H        0.924     0.056     2.246     2.343
    57   1 H        0.925     0.083     1.953     2.185
    58   1 H        0.925     0.082     1.958     2.188
    59   1 H        0.924     0.049     2.336     2.390
    60   1 H        0.924     0.053     2.288     2.366
    61   1 H        0.926     0.047     2.355     2.400
    62   1 H        0.924     0.076     2.016     2.220
    63   1 H        0.924     0.080     1.974     2.197
    64   1 H        0.925     0.079     1.988     2.205
    65   1 H        0.924     0.037     2.484     2.465
    66   1 H        0.925     0.069     2.095     2.264
    67   1 H        0.925     0.035     2.511     2.478
    68   1 H        0.925     0.051     2.308     2.376
    69   1 H        0.925     0.061     2.191     2.315
    70   1 H        0.925     0.034     2.525     2.485
    71   1 H        0.925     0.055     2.257     2.349
    72   1 H        0.860     0.156     1.359     1.826

Wiberg/Mayer (AO) data.
largest (>0.10) Wiberg bond orders for each atom

     #   Z sym  total        # sym  WBO       # sym  WBO       # sym  WBO
 ---------------------------------------------------------------------------
     1   7 N    3.037 --     2 C    1.955    72 H    0.942
     2   6 C    3.931 --     1 N    1.955     3 C    0.995    47 H    0.904
     3   6 C    3.976 --     2 C    0.995     4 C    0.969    14 C    0.958
                            31 C    0.942
     4   6 C    3.950 --    13 C    1.415     5 C    1.366     3 C    0.969
     5   6 C    3.962 --     6 C    1.402     4 C    1.366    34 H    0.957
     6   6 C    3.906 --     5 C    1.402     9 C    1.221     7 O    1.100
     7   8 O    2.255 --     6 C    1.100     8 C    0.978
     8   6 C    3.932 --     7 O    0.978    36 H    0.977    35 H    0.974
                            37 H    0.973
     9   6 C    3.902 --    12 C    1.393     6 C    1.221    10 O    1.101
    10   8 O    2.253 --     9 C    1.101    11 C    0.978
    11   6 C    3.931 --    10 O    0.978    39 H    0.977    40 H    0.974
                            38 H    0.973
    12   6 C    3.962 --    13 C    1.401     9 C    1.393    41 H    0.964
    13   6 C    3.955 --     4 C    1.415    12 C    1.401    42 H    0.963
    14   6 C    3.970 --    15 C    0.977    44 H    0.973    43 H    0.968
                             3 C    0.958
    15   6 C    3.987 --    16 C    1.062    14 C    0.977    45 H    0.962
                            46 H    0.928
    16   6 C    3.590 --    17 N    1.402    15 C    1.062    48 H    0.957
    17   7 N    3.478 --    16 C    1.402    30 C    0.999    18 C    0.987
    18   6 C    3.955 --    17 N    0.987    50 H    0.968    19 C    0.967
                            49 H    0.964
    19   6 C    3.977 --    20 C    1.007    52 H    0.972    51 H    0.972
                            18 C    0.967
    20   6 C    3.944 --    21 C    1.409    29 C    1.380    19 C    1.007
    21   6 C    3.950 --    22 C    1.417    20 C    1.409    53 H    0.968
    22   6 C    3.959 --    21 C    1.417    23 C    1.383    54 H    0.963
    23   6 C    3.895 --    22 C    1.383    26 C    1.219    24 O    1.111
    24   8 O    2.255 --    23 C    1.111    25 C    0.976
    25   6 C    3.928 --    57 H    0.977    24 O    0.976    55 H    0.973
                            56 H    0.973
    26   6 C    3.898 --    29 C    1.395    23 C    1.219    27 O    1.104
    27   8 O    2.255 --    26 C    1.104    28 C    0.978
    28   6 C    3.932 --    27 O    0.978    58 H    0.977    59 H    0.973
                            60 H    0.973
    29   6 C    3.959 --    26 C    1.395    20 C    1.380    61 H    0.962
    30   6 C    3.957 --    17 N    0.999    64 H    0.977    62 H    0.965
                            63 H    0.961
    31   6 C    3.972 --    33 C    1.009    32 C    1.008    65 H    0.960
                             3 C    0.942
    32   6 C    3.978 --    31 C    1.008    67 H    0.981    68 H    0.981
                            66 H    0.974
    33   6 C    3.982 --    31 C    1.009    70 H    0.984    71 H    0.980
                            69 H    0.975
    34   1 H    0.996 --     5 C    0.957
    35   1 H    0.993 --     8 C    0.974
    36   1 H    0.993 --     8 C    0.977
    37   1 H    0.994 --     8 C    0.973
    38   1 H    0.993 --    11 C    0.973
    39   1 H    0.993 --    11 C    0.977
    40   1 H    0.993 --    11 C    0.974
    41   1 H    0.996 --    12 C    0.964
    42   1 H    0.998 --    13 C    0.963
    43   1 H    0.995 --    14 C    0.968
    44   1 H    0.996 --    14 C    0.973
    45   1 H    0.995 --    15 C    0.962
    46   1 H    0.971 --    15 C    0.928
    47   1 H    0.987 --     2 C    0.904
    48   1 H    0.995 --    16 C    0.957
    49   1 H    0.991 --    18 C    0.964
    50   1 H    0.994 --    18 C    0.968
    51   1 H    0.996 --    19 C    0.972
    52   1 H    0.996 --    19 C    0.972
    53   1 H    0.997 --    21 C    0.968
    54   1 H    0.995 --    22 C    0.963
    55   1 H    0.992 --    25 C    0.973
    56   1 H    0.991 --    25 C    0.973
    57   1 H    0.992 --    25 C    0.977
    58   1 H    0.993 --    28 C    0.977
    59   1 H    0.993 --    28 C    0.973
    60   1 H    0.993 --    28 C    0.973
    61   1 H    0.997 --    29 C    0.962
    62   1 H    0.984 --    30 C    0.965
    63   1 H    0.988 --    30 C    0.961
    64   1 H    0.993 --    30 C    0.977
    65   1 H    0.992 --    31 C    0.960
    66   1 H    0.991 --    32 C    0.974
    67   1 H    0.997 --    32 C    0.981
    68   1 H    0.994 --    32 C    0.981
    69   1 H    0.993 --    33 C    0.975
    70   1 H    0.997 --    33 C    0.984
    71   1 H    0.994 --    33 C    0.980
    72   1 H    0.970 --     1 N    0.942
 ---------------------------------------------------------------------------

molecular dipole:
                 x           y           z       tot (Debye)
 q only:        0.678      -0.069      -0.817
   full:        0.969      -0.130      -0.995       3.546

           -------------------------------------------------
          | TOTAL ENERGY              -99.406111400003 Eh   |
          | GRADIENT NORM               0.008098280434 Eh/α |
          | HOMO-LUMO GAP               1.660924169677 eV   |
           -------------------------------------------------

 * finished run on 2024/04/06 at 11:15:04.345
