   * xtb version 6.6.1 (8d0f1dd) compiled by 'conda@1efc2f54142f' on 2023-08-01
          program call               : xtb struc.xyz --opt loose --input .xc1 --gfn2

   ID    Z sym.   atoms
    1    6 C      1, 3, 5-7, 10, 11, 14
    2    7 N      2, 4, 9, 13
    3    8 O      8, 12
    4    1 H      15-25
constraining bond 18 25 to    4.2800000 Å, actual value:    2.5465365 Å

          :  Hamiltonian                  GFN2-xTB          :
 * total energy  :   -36.8799457 Eh     change       -0.6633627E-10 Eh
 * total energy  :   -39.5692607 Eh     change       -0.2689315E+01 Eh
 * total energy  :   -41.3297096 Eh     change       -0.1760449E+01 Eh
 * total energy  :   -41.9752567 Eh     change       -0.6455471E+00 Eh
 * total energy  :   -42.0590298 Eh     change       -0.8377305E-01 Eh
 * total energy  :   -42.0607033 Eh     change       -0.1673549E-02 Eh
 * total energy  :   -42.0626601 Eh     change       -0.1956763E-02 Eh
 * total energy  :   -42.0672096 Eh     change       -0.4549488E-02 Eh
 * total energy  :   -42.0720520 Eh     change       -0.4842361E-02 Eh
 * total energy  :   -42.0755052 Eh     change       -0.3453272E-02 Eh
 * total energy  :   -42.2295570 Eh     change       -0.5827501E-02 Eh
 * total energy  :   -42.2329015 Eh     change       -0.3344526E-02 Eh
 * total energy  :   -42.2349698 Eh     change       -0.2068281E-02 Eh
 * total energy  :   -42.2364211 Eh     change       -0.1451299E-02 Eh
 * total energy  :   -42.2374508 Eh     change       -0.1029685E-02 Eh
 * total energy  :   -42.2377218 Eh     change       -0.2709975E-03 Eh
 * total energy  :   -42.2379255 Eh     change       -0.2037521E-03 Eh
 * total energy  :   -42.2379927 Eh     change       -0.6716765E-04 Eh
 * total energy  :   -42.2380051 Eh     change       -0.1238524E-04 Eh
   *** GEOMETRY OPTIMIZATION CONVERGED AFTER 39 ITERATIONS ***

 final structure:
================
25
 xtb: 6.6.1 (8d0f1dd)
C            3.34660804709788        1.30232360983383        0.01817495119608
N            2.42688175706454        0.19545298560502       -0.00012012229720
C            2.73315265622508       -1.11480313876963       -0.00500221532652
N            1.67491952369871       -1.90020406031701       -0.00621709685533
C            0.63291980412742       -1.06069165154883       -0.00062525606224
C            1.05951499827374        0.26570694390149        0.00385574683417
C            0.14924291196663        1.36830386785741       -0.00134781636719
O            0.37777136491219        2.54492251592452       -0.00854547164955
N           -1.21416132531927        0.88753889331534        0.00026081720857
C           -2.26290405124859        1.89763956514439       -0.00029634357811
C           -1.58110140614039       -0.39638807672484       -0.00125044060402
O           -2.87323825509504       -0.62990250313836       -0.00250306571566
N           -0.70012774843744       -1.39835952075114       -0.00203640561837
C           -1.06223654982967       -2.80511232898357       -0.00501485902742
H            3.85134726181695        1.35610680199572        0.98398946941128
H            4.09595447105284        1.17566293220957       -0.76251124367938
H            2.79779241568813        2.22720023558688       -0.14749952968690
H            3.73461030551683       -1.49407685102018       -0.00905649257208
H           -1.77731679996180        2.87184783951786        0.00728661256256
H           -2.88066061853890        1.79908833447900       -0.89136593916067
H           -2.89037867290452        1.78917157012285        0.88270358596322
H           -1.62463666547355       -3.06997485202882        0.89217756662213
H           -1.62412589106103       -3.06662849559923       -0.90282824756802
H           -3.10894116567937       -1.57164158948576       -0.00475249005075
H           -0.12045485365134       -3.35494448552647       -0.00630409607859

          :  Hamiltonian                  GFN2-xTB          :
         :: total energy             -42.238005056649 Eh    ::
         :: gradient norm              0.001531821162 Eh/a0 ::
         :: HOMO-LUMO gap              3.456522818636 eV    ::
         :: SCC energy               -42.759931929068 Eh    ::
         :: -> dispersion             -0.022623361367 Eh    ::
         :: repulsion energy           0.521823588659 Eh    ::

    * Orbital Energies and Occupations

         #    Occupation            Energy/Eh            Energy/eV
      -------------------------------------------------------------
         1        2.0000           -0.9388403             -25.5471
       ...           ...                  ...                  ...
        25        2.0000           -0.6590862             -17.9346
        26        2.0000           -0.6588054             -17.9270
        27        2.0000           -0.6496674             -17.6784
        28        2.0000           -0.6426401             -17.4871
        29        2.0000           -0.6414455             -17.4546
        30        2.0000           -0.6244250             -16.9915
        31        2.0000           -0.6209355             -16.8965
        32        2.0000           -0.6172096             -16.7951
        33        2.0000           -0.5942637             -16.1707
        34        2.0000           -0.5805447             -15.7974
        35        2.0000           -0.5751150             -15.6497
        36        1.9996           -0.5534000             -15.0588
        37        1.9994           -0.5515829             -15.0093 (HOMO)
        38        0.0008           -0.4245580             -11.5528 (LUMO)
        39        0.0003           -0.4158151             -11.3149
        40                         -0.3508814              -9.5480
        41                         -0.2847883              -7.7495
        42                         -0.2178892              -5.9291
        43                         -0.1718902              -4.6774
        44                         -0.1376826              -3.7465
        45                         -0.1279088              -3.4806
        46                         -0.0740879              -2.0160
        47                         -0.0551766              -1.5014
        48                         -0.0347090              -0.9445
       ...                                ...                  ...
        67                          0.5655945              15.3906
      -------------------------------------------------------------
                  HL-Gap            0.1270249 Eh            3.4565 eV

     #   Z          covCN         q      C6AA      α(0)
     1   6 C        3.689    -0.079    22.212     6.745
     2   7 N        2.843     0.039    20.565     6.735
     3   6 C        3.222     0.096    25.173     8.155
     4   7 N        1.896    -0.245    27.248     7.739
     5   6 C        3.239     0.116    24.615     8.045
     6   6 C        3.114    -0.024    28.429     8.734
     7   6 C        2.761     0.268    22.477     7.764
     8   8 O        0.857    -0.340    20.525     6.074
     9   7 N        2.746    -0.048    22.166     6.992
    10   6 C        3.706    -0.075    22.081     6.718
    11   6 C        2.754     0.280    22.267     7.727
    12   8 O        1.663    -0.308    19.143     5.907
    13   7 N        2.740    -0.024    21.713     6.921
    14   6 C        3.698    -0.083    22.269     6.749
    15   1 H        0.924     0.096     1.817     2.108
    16   1 H        0.925     0.096     1.823     2.111
    17   1 H        0.925     0.112     1.680     2.027
    18   1 H        0.926     0.100     1.783     2.088
    19   1 H        0.925     0.129     1.543     1.943
    20   1 H        0.925     0.101     1.779     2.086
    21   1 H        0.925     0.101     1.779     2.086
    22   1 H        0.924     0.094     1.845     2.124
    23   1 H        0.924     0.094     1.845     2.124
    24   1 H        0.804     0.366     0.552     1.167
    25   1 H        0.924     0.140     1.461     1.890

Wiberg/Mayer (AO) data.
largest (>0.10) Wiberg bond orders for each atom

     #   Z sym  total        # sym  WBO       # sym  WBO       # sym  WBO
 ---------------------------------------------------------------------------
     1   6 C    3.934 --     2 N    0.989    17 H    0.971    16 H    0.967
                            15 H    0.962
     2   7 N    3.686 --     3 C    1.321     6 C    1.188     1 C    0.989
     3   6 C    3.951 --     4 N    1.465     2 N    1.321    18 H    0.957
     4   7 N    3.029 --     3 C    1.465     5 C    1.329
     5   6 C    3.955 --     4 N    1.329     6 C    1.320    13 N    1.084
     6   6 C    3.953 --     5 C    1.320     2 N    1.188     7 C    1.118
     7   6 C    3.954 --     8 O    1.746     6 C    1.118     9 N    0.980
     8   8 O    2.115 --     7 C    1.746     9 N    0.129
     9   7 N    3.607 --    11 C    1.311     7 C    0.980    10 C    0.966
                             8 O    0.129
    10   6 C    3.912 --     9 N    0.966    21 H    0.965    20 H    0.965
                            19 H    0.963
    11   6 C    3.956 --     9 N    1.311    13 N    1.295    12 O    1.189
    12   8 O    2.243 --    11 C    1.189    24 H    0.833
    13   7 N    3.622 --    11 C    1.295     5 C    1.084    14 C    0.966
    14   6 C    3.917 --    23 H    0.967    22 H    0.967    13 N    0.966
                            25 H    0.961
    15   1 H    0.990 --     1 C    0.962
    16   1 H    0.989 --     1 C    0.967
    17   1 H    0.987 --     1 C    0.971
    18   1 H    0.989 --     3 C    0.957
    19   1 H    0.983 --    10 C    0.963
    20   1 H    0.988 --    10 C    0.965
    21   1 H    0.988 --    10 C    0.965
    22   1 H    0.990 --    14 C    0.967
    23   1 H    0.990 --    14 C    0.967
    24   1 H    0.865 --    12 O    0.833
    25   1 H    0.980 --    14 C    0.961
 ---------------------------------------------------------------------------

molecular dipole:
                 x           y           z       tot (Debye)
 q only:       -0.758      -1.404       0.007
   full:       -0.792      -1.488       0.013       4.286

           -------------------------------------------------
          | TOTAL ENERGY              -42.238005056649 Eh   |
          | GRADIENT NORM               0.001531821162 Eh/α |
          | HOMO-LUMO GAP               3.456522818636 eV   |
           -------------------------------------------------

 * finished run on 2024/06/05 at 19:58:08.359
