   * xtb version 6.6.1 (8d0f1dd) compiled by 'conda@1efc2f54142f' on 2023-08-01
          program call               : xtb xtbopt.xyz --opt crude --input .xc2 --gfn2

   ID    Z sym.   atoms
    1    6 C      1, 3, 5-7, 10, 11, 14
    2    7 N      2, 4, 9, 13
    3    8 O      8, 12
    4    1 H      15-25
########################################################################
[WARNING] Please study the warnings concerning your input carefully
-1- readin_getIntValue: could not parse ''
########################################################################

          :  Hamiltonian                  GFN2-xTB          :
 * total energy  :   -42.2380059 Eh     change        0.1136868E-12 Eh
 * total energy  :   -42.2380514 Eh     change       -0.4543024E-04 Eh
   *** GEOMETRY OPTIMIZATION CONVERGED AFTER 2 ITERATIONS ***

 final structure:
================
25
 xtb: 6.6.1 (8d0f1dd)
C            3.34548875124877        1.30534067272827        0.01822927003650
N            2.42869843853646        0.19632475773136       -0.00000370212722
C            2.73718706966506       -1.11306423432765       -0.00485611060128
N            1.67951881205476       -1.90005555982241       -0.00610975078033
C            0.63565030215099       -1.06225202078520       -0.00058229159807
C            1.06114913486946        0.26478981913062        0.00389174341677
C            0.15096058475070        1.36735215354915       -0.00140763177719
O            0.37868567381519        2.54401733277458       -0.00875361852309
N           -1.21221152987069        0.88637606655556        0.00026136520728
C           -2.26089696531727        1.89652673312282       -0.00034485707254
C           -1.57854863684799       -0.39770477450994       -0.00117988814721
O           -2.87048870340549       -0.63070828397700       -0.00234380781329
N           -0.69830630569075       -1.40032153578381       -0.00202936169074
C           -1.06827331257139       -2.80593171046867       -0.00513536651682
H            3.85020306329425        1.36021188636631        0.98397399204401
H            4.09489339354938        1.18087047031618       -0.76275189166694
H            2.79351099027272        2.22848333440603       -0.14718259420053
H            3.74068823185706       -1.48879310089428       -0.00898952794169
H           -1.77524935237182        2.87070749383027        0.00699360621571
H           -2.87869821493660        1.79789097516908       -0.89133560724633
H           -2.88826197704304        1.78832570913391        0.88274145217872
H           -1.63259207350553       -3.06700814377289        0.89152964616452
H           -1.63247096997967       -3.06335626416209       -0.90275301279650
H           -3.10620568583340       -1.57260258773792       -0.00437046122341
H           -0.13399920459112       -3.36718064697225       -0.00631997564032

          :  Hamiltonian                  GFN2-xTB          :
         :: total energy             -42.238051354465 Eh    ::
         :: gradient norm              0.001234135580 Eh/a0 ::
         :: HOMO-LUMO gap              3.448504732112 eV    ::
         :: SCC energy               -42.759693397077 Eh    ::
         :: -> dispersion             -0.022622117386 Eh    ::
         :: repulsion energy           0.521539720851 Eh    ::

    * Orbital Energies and Occupations

         #    Occupation            Energy/Eh            Energy/eV
      -------------------------------------------------------------
         1        2.0000           -0.9389213             -25.5494
       ...           ...                  ...                  ...
        25        2.0000           -0.6590822             -17.9345
        26        2.0000           -0.6587849             -17.9265
        27        2.0000           -0.6497347             -17.6802
        28        2.0000           -0.6427564             -17.4903
        29        2.0000           -0.6416056             -17.4590
        30        2.0000           -0.6244387             -16.9918
        31        2.0000           -0.6209367             -16.8965
        32        2.0000           -0.6171814             -16.7944
        33        2.0000           -0.5942583             -16.1706
        34        2.0000           -0.5803756             -15.7928
        35        2.0000           -0.5750530             -15.6480
        36        1.9996           -0.5534156             -15.0592
        37        1.9994           -0.5512793             -15.0011 (HOMO)
        38        0.0008           -0.4245491             -11.5526 (LUMO)
        39        0.0003           -0.4157574             -11.3133
        40                         -0.3508333              -9.5467
        41                         -0.2848384              -7.7508
        42                         -0.2180636              -5.9338
        43                         -0.1723576              -4.6901
        44                         -0.1375547              -3.7431
        45                         -0.1279198              -3.4809
        46                         -0.0748851              -2.0377
        47                         -0.0554013              -1.5075
        48                         -0.0342617              -0.9323
       ...                                ...                  ...
        67                          0.5659715              15.4009
      -------------------------------------------------------------
                  HL-Gap            0.1267302 Eh            3.4485 eV

     #   Z          covCN         q      C6AA      α(0)
     1   6 C        3.689    -0.079    22.213     6.745
     2   7 N        2.842     0.039    20.564     6.735
     3   6 C        3.220     0.096    25.196     8.162
     4   7 N        1.896    -0.245    27.239     7.737
     5   6 C        3.236     0.116    24.653     8.056
     6   6 C        3.114    -0.024    28.430     8.734
     7   6 C        2.761     0.268    22.477     7.764
     8   8 O        0.857    -0.340    20.526     6.074
     9   7 N        2.746    -0.048    22.166     6.992
    10   6 C        3.706    -0.075    22.082     6.718
    11   6 C        2.754     0.280    22.265     7.727
    12   8 O        1.663    -0.308    19.144     5.907
    13   7 N        2.739    -0.024    21.713     6.921
    14   6 C        3.697    -0.083    22.263     6.749
    15   1 H        0.924     0.096     1.817     2.108
    16   1 H        0.925     0.096     1.823     2.111
    17   1 H        0.925     0.112     1.679     2.026
    18   1 H        0.926     0.100     1.783     2.088
    19   1 H        0.925     0.129     1.543     1.943
    20   1 H        0.925     0.101     1.779     2.086
    21   1 H        0.925     0.101     1.779     2.086
    22   1 H        0.924     0.093     1.846     2.125
    23   1 H        0.924     0.093     1.846     2.125
    24   1 H        0.804     0.366     0.552     1.167
    25   1 H        0.925     0.140     1.464     1.892

Wiberg/Mayer (AO) data.
largest (>0.10) Wiberg bond orders for each atom

     #   Z sym  total        # sym  WBO       # sym  WBO       # sym  WBO
 ---------------------------------------------------------------------------
     1   6 C    3.934 --     2 N    0.989    17 H    0.971    16 H    0.967
                            15 H    0.962
     2   7 N    3.687 --     3 C    1.321     6 C    1.187     1 C    0.989
     3   6 C    3.951 --     4 N    1.464     2 N    1.321    18 H    0.957
     4   7 N    3.028 --     3 C    1.464     5 C    1.329
     5   6 C    3.955 --     4 N    1.329     6 C    1.320    13 N    1.083
     6   6 C    3.953 --     5 C    1.320     2 N    1.187     7 C    1.119
     7   6 C    3.954 --     8 O    1.746     6 C    1.119     9 N    0.980
     8   8 O    2.115 --     7 C    1.746     9 N    0.129
     9   7 N    3.607 --    11 C    1.311     7 C    0.980    10 C    0.966
                             8 O    0.129
    10   6 C    3.912 --     9 N    0.966    21 H    0.965    20 H    0.965
                            19 H    0.963
    11   6 C    3.956 --     9 N    1.311    13 N    1.295    12 O    1.189
    12   8 O    2.244 --    11 C    1.189    24 H    0.833
    13   7 N    3.621 --    11 C    1.295     5 C    1.083    14 C    0.966
    14   6 C    3.917 --    23 H    0.967    22 H    0.967    13 N    0.966
                            25 H    0.961
    15   1 H    0.990 --     1 C    0.962
    16   1 H    0.989 --     1 C    0.967
    17   1 H    0.987 --     1 C    0.971
    18   1 H    0.989 --     3 C    0.957
    19   1 H    0.983 --    10 C    0.963
    20   1 H    0.988 --    10 C    0.965
    21   1 H    0.988 --    10 C    0.965
    22   1 H    0.990 --    14 C    0.967
    23   1 H    0.990 --    14 C    0.967
    24   1 H    0.865 --    12 O    0.833
    25   1 H    0.980 --    14 C    0.961
 ---------------------------------------------------------------------------

molecular dipole:
                 x           y           z       tot (Debye)
 q only:       -0.761      -1.404       0.007
   full:       -0.795      -1.490       0.014       4.292

           -------------------------------------------------
          | TOTAL ENERGY              -42.238051354465 Eh   |
          | GRADIENT NORM               0.001234135580 Eh/α |
          | HOMO-LUMO GAP               3.448504732112 eV   |
           -------------------------------------------------

 * finished run on 2024/06/05 at 19:58:08.533
