   * xtb version 6.6.1 (8d0f1dd) compiled by 'conda@1efc2f54142f' on 2023-08-01
          program call               : xtb struc.xyz --opt loose --input .xc1 --gfn2

   ID    Z sym.   atoms
    1    6 C      1, 3, 5-7, 10, 11, 14
    2    7 N      2, 4, 9, 13
    3    8 O      8, 12
    4    1 H      15-25
constraining bond 9 21 to    4.0600000 Å, actual value:    2.0945494 Å

          :  Hamiltonian                  GFN2-xTB          :
 * total energy  :   -35.3477801 Eh     change       -0.6633627E-10 Eh
 * total energy  :   -38.3774018 Eh     change       -0.3029622E+01 Eh
 * total energy  :   -40.5701356 Eh     change       -0.2192734E+01 Eh
 * total energy  :   -41.5866137 Eh     change       -0.1016478E+01 Eh
 * total energy  :   -41.8468413 Eh     change       -0.2602276E+00 Eh
 * total energy  :   -41.8798765 Eh     change       -0.3303514E-01 Eh
 * total energy  :   -41.8969758 Eh     change       -0.1709935E-01 Eh
 * total energy  :   -41.9432584 Eh     change       -0.4628258E-01 Eh
 * total energy  :   -41.9581579 Eh     change       -0.1489953E-01 Eh
 * total energy  :   -41.9649218 Eh     change       -0.6763809E-02 Eh
 * total energy  :   -42.0799361 Eh     change       -0.4962140E-03 Eh
 * total energy  :   -42.0801635 Eh     change       -0.2274408E-03 Eh
 * total energy  :   -42.0802055 Eh     change       -0.4194393E-04 Eh
 * total energy  :   -42.0803824 Eh     change       -0.1769042E-03 Eh
 * total energy  :   -42.0804457 Eh     change       -0.6328984E-04 Eh
 * total energy  :   -42.0805203 Eh     change       -0.7462868E-04 Eh
 * total energy  :   -42.0805579 Eh     change       -0.3762471E-04 Eh
 * total energy  :   -42.0805920 Eh     change       -0.3409679E-04 Eh
 * total energy  :   -42.0806178 Eh     change       -0.2581429E-04 Eh
   *** GEOMETRY OPTIMIZATION CONVERGED AFTER 34 ITERATIONS ***

 final structure:
================
25
 xtb: 6.6.1 (8d0f1dd)
C            3.27990076799657        1.09755465256694        0.04627222538649
N            2.33179784866254        0.01532166935223        0.00980115411091
C            2.60079277206179       -1.28171564032912        0.03722961193469
N            1.45365197378003       -1.99092304341638        0.00849156898646
C            0.41323048958143       -1.11155621878241       -0.03897942988451
C            0.96318582976474        0.16521996506766       -0.03986336696268
C            0.15900163956448        1.35084239186466       -0.10134850146560
O            0.54135828068341        2.50000798228032       -0.11727418147087
N           -1.23557016872820        1.03065964185480       -0.15473010692158
C           -2.10167996584734        2.05637065820677       -0.23893528411409
C           -1.80035938805612       -0.27454776303624       -0.12864261133962
O           -2.98752492152274       -0.44236051882413       -0.15592946711883
N           -0.91208723888180       -1.34864250305167       -0.07326463196922
C           -1.44650626674347       -2.69875147387235       -0.05544444386819
H            3.78227298332847        1.12669967669038        1.01365824767611
H            4.02840051923103        0.97285926106162       -0.73517062893973
H            2.74492719600173        2.03491855910135       -0.10357664097259
H            3.58253255810180       -1.71121281372654        0.07744115219161
H           -1.69340968127284        3.04879554136113       -0.26613746231042
H           -3.15110840058031        1.84009810286902       -0.28670525690929
H           -3.99201008108949        3.52802408200903        1.46970131442246
H           -1.12977804064153       -3.21991238607911        0.84761131060918
H           -1.12675023999370       -3.24693717395459       -0.94176416151518
H           -2.53305131945912       -2.62326519761814       -0.05898758445306
H            1.38921436815851       -2.99930890999521        0.01771879279750

          :  Hamiltonian                  GFN2-xTB          :
         :: total energy             -42.080617839394 Eh    ::
         :: gradient norm              0.002381863866 Eh/a0 ::
         :: HOMO-LUMO gap              0.282042296851 eV    ::
         :: SCC energy               -42.602816134373 Eh    ::
         :: -> dispersion             -0.022723016205 Eh    ::
         :: repulsion energy           0.522107638532 Eh    ::

    * Orbital Energies and Occupations

         #    Occupation            Energy/Eh            Energy/eV
      -------------------------------------------------------------
         1        2.0000           -0.9169121             -24.9504
       ...           ...                  ...                  ...
        25        2.0000           -0.6704919             -18.2450
        26        2.0000           -0.6677395             -18.1701
        27        2.0000           -0.6623177             -18.0226
        28        2.0000           -0.6349768             -17.2786
        29        2.0000           -0.6303928             -17.1539
        30        2.0000           -0.6284492             -17.1010
        31        2.0000           -0.6216120             -16.9149
        32        2.0000           -0.6149627             -16.7340
        33        2.0000           -0.6096203             -16.5886
        34        2.0000           -0.5845544             -15.9065
        35        2.0000           -0.5651264             -15.3779
        36        2.0000           -0.5602795             -15.2460
        37        1.3052           -0.4742457             -12.9049 (HOMO)
        38        0.6731           -0.4638809             -12.6228 (LUMO)
        39        0.0213           -0.4333806             -11.7929
        40        0.0003           -0.4003447             -10.8939
        41        0.0000           -0.3725577             -10.1378
        42                         -0.2876870              -7.8284
        43                         -0.2078124              -5.6549
        44                         -0.2001079              -5.4452
        45                         -0.1517683              -4.1298
        46                         -0.1439529              -3.9172
        47                         -0.0822473              -2.2381
        48                         -0.0564162              -1.5352
       ...                                ...                  ...
        67                          0.5486442              14.9294
      -------------------------------------------------------------
                  HL-Gap            0.0103649 Eh            0.2820 eV

     #   Z          covCN         q      C6AA      α(0)
     1   6 C        3.691    -0.096    22.529     6.792
     2   7 N        2.834     0.084    19.778     6.605
     3   6 C        3.057     0.053    26.750     8.482
     4   7 N        2.796    -0.053    22.271     7.009
     5   6 C        3.045     0.106    25.626     8.303
     6   6 C        3.116    -0.024    28.444     8.736
     7   6 C        2.775     0.254    22.727     7.808
     8   8 O        0.857    -0.367    21.042     6.150
     9   7 N        2.741    -0.032    21.860     6.944
    10   6 C        2.816    -0.027    28.658     8.771
    11   6 C        2.738     0.310    21.736     7.633
    12   8 O        0.859    -0.350    20.701     6.100
    13   7 N        2.737    -0.050    22.207     6.999
    14   6 C        3.698    -0.074    22.088     6.722
    15   1 H        0.924     0.109     1.704     2.041
    16   1 H        0.925     0.107     1.726     2.054
    17   1 H        0.925     0.138     1.476     1.900
    18   1 H        0.926     0.127     1.558     1.952
    19   1 H        0.926     0.133     1.516     1.925
    20   1 H        0.926     0.130     1.532     1.936
    21   1 H        0.000    -0.004     7.788     5.103
    22   1 H        0.925     0.083     1.948     2.182
    23   1 H        0.925     0.084     1.939     2.177
    24   1 H        0.925     0.128     1.549     1.946
    25   1 H        0.860     0.231     0.959     1.534

Wiberg/Mayer (AO) data.
largest (>0.10) Wiberg bond orders for each atom

     #   Z sym  total        # sym  WBO       # sym  WBO       # sym  WBO
 ---------------------------------------------------------------------------
     1   6 C    3.914 --     2 N    0.984    16 H    0.962    17 H    0.961
                            15 H    0.957
     2   7 N    3.689 --     3 C    1.404     6 C    1.150     1 C    0.984
     3   6 C    3.886 --     2 N    1.404     4 N    1.286    18 H    0.952
     4   7 N    3.608 --     3 C    1.286     5 C    1.193    25 H    0.918
     5   6 C    3.909 --     6 C    1.325    13 N    1.197     4 N    1.193
     6   6 C    3.917 --     5 C    1.325     2 N    1.150     7 C    1.111
     7   6 C    3.885 --     8 O    1.671     6 C    1.111     9 N    1.000
     8   8 O    1.972 --     7 C    1.671     9 N    0.113
     9   7 N    3.632 --    10 C    1.329    11 C    1.020     7 C    1.000
                             8 O    0.113
    10   6 C    3.422 --     9 N    1.329    19 H    0.959    20 H    0.958
    11   6 C    3.919 --    12 O    1.713    13 N    1.083     9 N    1.020
    12   8 O    2.036 --    11 C    1.713    13 N    0.136
    13   7 N    3.575 --     5 C    1.197    11 C    1.083    14 C    0.970
                            12 O    0.136
    14   6 C    3.924 --    22 H    0.972    23 H    0.972    13 N    0.970
                            24 H    0.964
    15   1 H    0.985 --     1 C    0.957
    16   1 H    0.986 --     1 C    0.962
    17   1 H    0.981 --     1 C    0.961
    18   1 H    0.983 --     3 C    0.952
    19   1 H    0.982 --    10 C    0.959
    20   1 H    0.982 --    10 C    0.958
    21   1 H    0.102
    22   1 H    0.992 --    14 C    0.972
    23   1 H    0.991 --    14 C    0.972
    24   1 H    0.983 --    14 C    0.964
    25   1 H    0.946 --     4 N    0.918
 ---------------------------------------------------------------------------

molecular dipole:
                 x           y           z       tot (Debye)
 q only:        2.652      -2.199      -0.032
   full:        2.899      -2.671       0.001      10.018

           -------------------------------------------------
          | TOTAL ENERGY              -42.080617839394 Eh   |
          | GRADIENT NORM               0.002381863866 Eh/α |
          | HOMO-LUMO GAP               0.282042296851 eV   |
           -------------------------------------------------

 * finished run on 2024/06/05 at 19:58:04.167
