   * xtb version 6.6.1 (8d0f1dd) compiled by 'conda@1efc2f54142f' on 2023-08-01
          program call               : xtb struc.xyz --opt loose --input .xc1 --gfn2

   ID    Z sym.   atoms
    1    6 C      1, 3, 5-7, 10, 11, 14
    2    7 N      2, 4, 9, 13
    3    8 O      8, 12
    4    1 H      15-25
constraining bond 12 21 to    4.6333300 Å, actual value:    2.6132888 Å

          :  Hamiltonian                  GFN2-xTB          :
 * total energy  :   -49.5460327 Eh     change       -0.2401990E-09 Eh
 * total energy  :   -55.8910515 Eh     change       -0.6345019E+01 Eh
 * total energy  :   -64.1418177 Eh     change       -0.8250766E+01 Eh
 * total energy  :   -71.9532813 Eh     change       -0.7811464E+01 Eh
 * total energy  :   -71.1357375 Eh     change        0.8175438E+00 Eh
 * total energy  :   -72.0144370 Eh     change       -0.8786995E+00 Eh
 * total energy  :   -72.0503055 Eh     change       -0.3586852E-01 Eh
 * total energy  :   -72.0961519 Eh     change       -0.4584643E-01 Eh
 * total energy  :   -72.1170339 Eh     change       -0.2088197E-01 Eh
 * total energy  :   -72.1596065 Eh     change       -0.4257263E-01 Eh
 * total energy  :   -72.2443110 Eh     change       -0.2098656E-03 Eh
 * total energy  :   -72.2443188 Eh     change       -0.7807829E-05 Eh
 * total energy  :   -72.2443312 Eh     change       -0.1237614E-04 Eh
 * total energy  :   -72.2443482 Eh     change       -0.1703150E-04 Eh
 * total energy  :   -72.2443633 Eh     change       -0.1506071E-04 Eh
 * total energy  :   -72.2443855 Eh     change       -0.2221644E-04 Eh
 * total energy  :   -72.2444148 Eh     change       -0.2929198E-04 Eh
 * total energy  :   -72.2444458 Eh     change       -0.3101401E-04 Eh
 * total energy  :   -72.2444701 Eh     change       -0.2427910E-04 Eh
   *** GEOMETRY OPTIMIZATION CONVERGED AFTER 54 ITERATIONS ***

 final structure:
================
25
 xtb: 6.6.1 (8d0f1dd)
C            3.31325553053777        1.10491832536136       -0.00719707731871
N            2.31335884204922        0.07414257070037       -0.01179726977812
C            2.53576196639429       -1.25299061991138        0.00897351633931
N            1.34381689490968       -1.91582671081229        0.02282033325581
C            0.34661687763850       -0.98392192302637        0.00872542149385
C            0.94657691559852        0.27739898957337       -0.01313579963253
C            0.21081020569832        1.48796899758554       -0.04461090797235
O            0.61997399090723        2.63204320436100       -0.06501255228779
N           -1.23965888910325        1.23435584368931       -0.05703116390259
C           -2.01445519418827        2.33370670676062       -0.12895308599638
C           -1.77357735480370       -0.01842292188247        0.01525208105324
O           -3.11027713665250       -0.18313654824914        0.05733198977234
N           -0.99906950492320       -1.15698789614171        0.02523536013276
C           -1.57935470308169       -2.48124323543049        0.09018452586491
H            3.89032583322714        1.07168599638280        0.91818041163201
H            3.99407795330815        0.97839630747183       -0.84917803907897
H            2.81643650017768        2.07051354707755       -0.08358968954506
H            3.49755463359515       -1.71870777019000        0.01510327848098
H           -1.50779166670739        3.27608342092593       -0.16903176224805
H           -3.08100488199555        2.26744588719741       -0.17209319638453
H           -3.40603274059527        0.08817381047185        0.12081333767105
H           -1.30365433040222       -2.96807071923608        1.02724310603193
H           -1.23141379424988       -3.08086959459196       -0.75162246794026
H           -2.66096361993343       -2.40105976789130        0.03931257384278
H            1.23911918669477       -2.91735735859582        0.03524869441434

          :  Hamiltonian                  GFN2-xTB          :
         :: total energy             -72.244470078213 Eh    ::
         :: gradient norm              0.002830078502 Eh/a0 ::
         :: HOMO-LUMO gap              1.325755430844 eV    ::
         :: SCC energy               -42.745040384009 Eh    ::
         :: -> dispersion             -0.022940071379 Eh    ::
         :: repulsion energy           2.403388613957 Eh    ::

    * Orbital Energies and Occupations

         #    Occupation            Energy/Eh            Energy/eV
      -------------------------------------------------------------
         1        2.0000           -0.9176477             -24.9705
       ...           ...                  ...                  ...
        25        1.9998           -0.6647726             -18.0894
        26        1.9997           -0.6591492             -17.9364
        27        1.9997           -0.6536471             -17.7866
        28        1.9994           -0.6395730             -17.4037
        29        1.9992           -0.6311206             -17.1737
        30        1.9990           -0.6272371             -17.0680
        31        1.9983           -0.6148071             -16.7298
        32        1.9982           -0.6122607             -16.6605
        33        1.9968           -0.5993092             -16.3080
        34        1.9959           -0.5929302             -16.1345
        35        1.9762           -0.5511968             -14.9988
        36        1.9752           -0.5501560             -14.9705
        37        1.3817           -0.4652970             -12.6614 (HOMO)
        38        0.4464           -0.4165764             -11.3356 (LUMO)
        39        0.1320           -0.3832618             -10.4291
        40        0.1016           -0.3766586             -10.2494
        41        0.0015           -0.2747084              -7.4752
        42        0.0001           -0.2042663              -5.5584
        43        0.0000           -0.1816094              -4.9418
        44        0.0000           -0.1561613              -4.2494
        45        0.0000           -0.1243655              -3.3842
        46        0.0000           -0.0751490              -2.0449
        47                         -0.0401629              -1.0929
        48                         -0.0167495              -0.4558
       ...                                ...                  ...
        67                          5.3389809             145.2811
      -------------------------------------------------------------
                  HL-Gap            0.0487206 Eh            1.3258 eV

     #   Z          covCN         q      C6AA      α(0)
     1   6 C        3.690    -0.089    22.389     6.771
     2   7 N        2.818     0.056    20.269     6.687
     3   6 C        3.021     0.028    27.363     8.580
     4   7 N        2.773    -0.070    22.598     7.060
     5   6 C        3.043     0.082    26.134     8.385
     6   6 C        3.077    -0.023    28.505     8.753
     7   6 C        2.773     0.236    23.057     7.864
     8   8 O        0.857    -0.370    21.097     6.158
     9   7 N        2.736    -0.015    21.541     6.893
    10   6 C        2.809    -0.075    29.857     8.952
    11   6 C        2.801     0.200    23.739     7.982
    12   8 O        1.664    -0.371    20.286     6.080
    13   7 N        2.735    -0.019    21.609     6.904
    14   6 C        3.697    -0.081    22.224     6.743
    15   1 H        0.924     0.098     1.806     2.102
    16   1 H        0.925     0.097     1.810     2.104
    17   1 H        0.925     0.128     1.550     1.947
    18   1 H        0.927     0.110     1.699     2.039
    19   1 H        0.926     0.119     1.625     1.994
    20   1 H        0.927     0.077     2.013     2.219
    21   1 H        0.862     0.370     0.538     1.149
    22   1 H        0.924     0.091     1.873     2.140
    23   1 H        0.924     0.090     1.876     2.142
    24   1 H        0.925     0.116     1.645     2.005
    25   1 H        0.860     0.216     1.028     1.589

Wiberg/Mayer (AO) data.
largest (>0.10) Wiberg bond orders for each atom

     #   Z sym  total        # sym  WBO       # sym  WBO       # sym  WBO
 ---------------------------------------------------------------------------
     1   6 C    3.921 --     2 N    0.992    16 H    0.963    17 H    0.962
                            15 H    0.960
     2   7 N    3.550 --     3 C    1.303     6 C    1.133     1 C    0.992
     3   6 C    3.657 --     2 N    1.303     4 N    1.223    18 H    0.958
     4   7 N    3.496 --     3 C    1.223     5 C    1.181    25 H    0.926
     5   6 C    3.821 --     6 C    1.288     4 N    1.181    13 N    1.157
     6   6 C    3.854 --     5 C    1.288     7 C    1.158     2 N    1.133
     7   6 C    3.799 --     8 O    1.639     6 C    1.158     9 N    0.915
     8   8 O    1.907 --     7 C    1.639
     9   7 N    3.615 --    10 C    1.283    11 C    1.188     7 C    0.915
    10   6 C    3.397 --     9 N    1.283    20 H    0.972    19 H    0.960
    11   6 C    3.627 --     9 N    1.188    13 N    1.144    12 O    1.106
    12   8 O    2.123 --    11 C    1.106    21 H    0.856
    13   7 N    3.495 --     5 C    1.157    11 C    1.144    14 C    0.978
    14   6 C    3.927 --    13 N    0.978    24 H    0.969    23 H    0.969
                            22 H    0.968
    15   1 H    0.980 --     1 C    0.960
    16   1 H    0.982 --     1 C    0.963
    17   1 H    0.982 --     1 C    0.962
    18   1 H    0.987 --     3 C    0.958
    19   1 H    0.984 --    10 C    0.960
    20   1 H    0.992 --    10 C    0.972
    21   1 H    0.863 --    12 O    0.856
    22   1 H    0.985 --    14 C    0.968
    23   1 H    0.986 --    14 C    0.969
    24   1 H    0.986 --    14 C    0.969
    25   1 H    0.953 --     4 N    0.926
 ---------------------------------------------------------------------------

molecular dipole:
                 x           y           z       tot (Debye)
 q only:        0.600      -2.260       0.084
   full:        0.352      -2.597       0.124       6.669

           -------------------------------------------------
          | TOTAL ENERGY              -72.244470078213 Eh   |
          | GRADIENT NORM               0.002830078502 Eh/α |
          | HOMO-LUMO GAP               1.325755430844 eV   |
           -------------------------------------------------

 * finished run on 2024/06/05 at 19:58:45.941
