   * xtb version 6.6.1 (8d0f1dd) compiled by 'conda@1efc2f54142f' on 2023-08-01
          program call               : xtb xtbopt.xyz --opt crude --input .xc2 --gfn2

   ID    Z sym.   atoms
    1    6 C      1, 3, 5-7, 10, 11, 14
    2    7 N      2, 4, 9, 13
    3    8 O      8, 12
    4    1 H      15-25
########################################################################
[WARNING] Please study the warnings concerning your input carefully
-1- readin_getIntValue: could not parse ''
########################################################################

          :  Hamiltonian                  GFN2-xTB          :
 * total energy  :   -40.3415451 Eh     change       -0.3097966E-11 Eh
 * total energy  :   -42.1585858 Eh     change       -0.1817041E+01 Eh
 * total energy  :   -42.1891719 Eh     change       -0.3058612E-01 Eh
 * total energy  :   -42.1919304 Eh     change       -0.2758490E-02 Eh
 * total energy  :   -42.1927120 Eh     change       -0.7815853E-03 Eh
 * total energy  :   -42.1934089 Eh     change       -0.6969364E-03 Eh
 * total energy  :   -42.1944780 Eh     change       -0.1069094E-02 Eh
 * total energy  :   -42.1956961 Eh     change       -0.1218105E-02 Eh
 * total energy  :   -42.1965589 Eh     change       -0.8627907E-03 Eh
 * total energy  :   -42.1969027 Eh     change       -0.3437923E-03 Eh
 * total energy  :   -42.1970658 Eh     change       -0.1630808E-03 Eh
 * total energy  :   -42.1972114 Eh     change       -0.1455584E-03 Eh
 * total energy  :   -42.1974318 Eh     change       -0.2204180E-03 Eh
 * total energy  :   -42.1976797 Eh     change       -0.2479012E-03 Eh
 * total energy  :   -42.1978810 Eh     change       -0.2013530E-03 Eh
   *** GEOMETRY OPTIMIZATION CONVERGED AFTER 15 ITERATIONS ***

 final structure:
================
25
 xtb: 6.6.1 (8d0f1dd)
C            3.30483383412798        1.11656934478899       -0.00642328642029
N            2.32043763763216        0.07045560815882        0.00947840729454
C            2.55439925098068       -1.25400112367341        0.03861475244196
N            1.36822435150485       -1.92700055029129        0.04194386344204
C            0.36204574473250       -1.00533701316013        0.01384260385058
C            0.95106472802947        0.26060571323815       -0.00676067919169
C            0.20378062045457        1.46427578635530       -0.04396147307766
O            0.60570734065472        2.61142930685289       -0.06830320464056
N           -1.24229119462048        1.20057382845683       -0.06861097445919
C           -2.01409124218307        2.30784778104560       -0.15540762827733
C           -1.76209027536771       -0.05194006624978        0.02349776444866
O           -3.08596497995661       -0.27452292698880        0.05234825079596
N           -0.98284404956623       -1.18637864066916        0.02657451388598
C           -1.55971274446994       -2.51374407007756        0.06147090974530
H            3.92664618016778        1.06907141533916        0.88879605217965
H            3.94609339449265        1.02387103826973       -0.88430318387118
H            2.78927154652022        2.07548439625206       -0.03642734117137
H            3.51869836386375       -1.71476475250994        0.05822329116272
H           -1.50007203424474        3.24711253166341       -0.18317640566585
H           -3.07876225524020        2.25279575617596       -0.26018308968632
H           -3.59575865935453        0.52088569811232        0.25504367236871
H           -1.20270869108640       -3.05399257050240        0.93980257720960
H           -1.29011226961916       -3.06166123953407       -0.84296282963021
H           -2.64154556298366       -2.43045097355001        0.11185683335275
H            1.26518247963144       -2.92894573590274        0.06619822181317

          :  Hamiltonian                  GFN2-xTB          :
         :: total energy             -42.197881025671 Eh    ::
         :: gradient norm              0.006924358917 Eh/a0 ::
         :: HOMO-LUMO gap              1.343519626290 eV    ::
         :: SCC energy               -42.708357212944 Eh    ::
         :: -> dispersion             -0.022918349918 Eh    ::
         :: repulsion energy           0.510371030332 Eh    ::

    * Orbital Energies and Occupations

         #    Occupation            Energy/Eh            Energy/eV
      -------------------------------------------------------------
         1        2.0000           -0.8926259             -24.2896
       ...           ...                  ...                  ...
        25        1.9998           -0.6655277             -18.1099
        26        1.9997           -0.6584148             -17.9164
        27        1.9997           -0.6561207             -17.8540
        28        1.9995           -0.6417600             -17.4632
        29        1.9991           -0.6286487             -17.1064
        30        1.9989           -0.6254236             -17.0186
        31        1.9982           -0.6133060             -16.6889
        32        1.9981           -0.6122913             -16.6613
        33        1.9971           -0.6019459             -16.3798
        34        1.9958           -0.5929797             -16.1358
        35        1.9758           -0.5510002             -14.9935
        36        1.9749           -0.5500520             -14.9677
        37        1.3880           -0.4658626             -12.6768 (HOMO)
        38        0.4420           -0.4164892             -11.3332 (LUMO)
        39        0.1333           -0.3837364             -10.4420
        40        0.0990           -0.3762411             -10.2380
        41        0.0015           -0.2748207              -7.4783
        42        0.0001           -0.2045944              -5.5673
        43        0.0000           -0.1841358              -5.0106
        44        0.0000           -0.1558549              -4.2410
        45        0.0000           -0.1249054              -3.3988
        46        0.0000           -0.1070780              -2.9137
        47        0.0000           -0.0505879              -1.3766
        48                         -0.0346055              -0.9417
       ...                                ...                  ...
        67                          0.5431967              14.7811
      -------------------------------------------------------------
                  HL-Gap            0.0493734 Eh            1.3435 eV

     #   Z          covCN         q      C6AA      α(0)
     1   6 C        3.690    -0.088    22.385     6.771
     2   7 N        2.817     0.055    20.281     6.689
     3   6 C        3.020     0.029    27.335     8.576
     4   7 N        2.774    -0.070    22.604     7.061
     5   6 C        3.042     0.082    26.125     8.383
     6   6 C        3.078    -0.023    28.503     8.753
     7   6 C        2.776     0.237    23.042     7.862
     8   8 O        0.857    -0.373    21.158     6.167
     9   7 N        2.737    -0.021    21.661     6.912
    10   6 C        2.807    -0.083    30.051     8.981
    11   6 C        2.746     0.210    23.540     7.944
    12   8 O        1.660    -0.348    19.867     6.017
    13   7 N        2.736    -0.016    21.554     6.895
    14   6 C        3.697    -0.076    22.137     6.730
    15   1 H        0.924     0.097     1.811     2.104
    16   1 H        0.924     0.097     1.810     2.104
    17   1 H        0.925     0.128     1.547     1.945
    18   1 H        0.927     0.110     1.700     2.039
    19   1 H        0.926     0.120     1.615     1.987
    20   1 H        0.926     0.069     2.100     2.266
    21   1 H        0.805     0.352     0.584     1.201
    22   1 H        0.924     0.087     1.910     2.161
    23   1 H        0.924     0.090     1.884     2.146
    24   1 H        0.925     0.121     1.605     1.981
    25   1 H        0.860     0.216     1.028     1.588

Wiberg/Mayer (AO) data.
largest (>0.10) Wiberg bond orders for each atom

     #   Z sym  total        # sym  WBO       # sym  WBO       # sym  WBO
 ---------------------------------------------------------------------------
     1   6 C    3.921 --     2 N    0.992    16 H    0.961    17 H    0.961
                            15 H    0.961
     2   7 N    3.550 --     3 C    1.305     6 C    1.132     1 C    0.992
     3   6 C    3.659 --     2 N    1.305     4 N    1.223    18 H    0.958
     4   7 N    3.497 --     3 C    1.223     5 C    1.181    25 H    0.926
     5   6 C    3.822 --     6 C    1.290     4 N    1.181    13 N    1.157
     6   6 C    3.855 --     5 C    1.290     7 C    1.158     2 N    1.132
     7   6 C    3.799 --     8 O    1.635     6 C    1.158     9 N    0.919
     8   8 O    1.905 --     7 C    1.635
     9   7 N    3.609 --    10 C    1.264    11 C    1.199     7 C    0.919
    10   6 C    3.382 --     9 N    1.264    20 H    0.963    19 H    0.959
    11   6 C    3.650 --     9 N    1.199    13 N    1.149    12 O    1.114
    12   8 O    2.110 --    11 C    1.114    21 H    0.838
    13   7 N    3.499 --     5 C    1.157    11 C    1.149    14 C    0.977
    14   6 C    3.926 --    13 N    0.977    22 H    0.969    23 H    0.968
                            24 H    0.967
    15   1 H    0.981 --     1 C    0.961
    16   1 H    0.981 --     1 C    0.961
    17   1 H    0.982 --     1 C    0.961
    18   1 H    0.987 --     3 C    0.958
    19   1 H    0.983 --    10 C    0.959
    20   1 H    0.993 --    10 C    0.963
    21   1 H    0.875 --    12 O    0.838
    22   1 H    0.986 --    14 C    0.969
    23   1 H    0.985 --    14 C    0.968
    24   1 H    0.984 --    14 C    0.967
    25   1 H    0.953 --     4 N    0.926
 ---------------------------------------------------------------------------

molecular dipole:
                 x           y           z       tot (Debye)
 q only:        0.491      -2.061       0.184
   full:        0.378      -2.372       0.218       6.129

           -------------------------------------------------
          | TOTAL ENERGY              -42.197881025671 Eh   |
          | GRADIENT NORM               0.006924358917 Eh/α |
          | HOMO-LUMO GAP               1.343519626290 eV   |
           -------------------------------------------------

 * finished run on 2024/06/05 at 19:58:46.488
