   * xtb version 6.6.1 (8d0f1dd) compiled by 'conda@1efc2f54142f' on 2023-08-01
          program call               : xtb xtbopt.xyz --opt crude --input .xc2 --gfn2

   ID    Z sym.   atoms
    1    6 C      1, 3, 5-7, 10, 11, 14
    2    7 N      2, 4, 9, 13
    3    8 O      8, 12
    4    1 H      15-25
########################################################################
[WARNING] Please study the warnings concerning your input carefully
-1- readin_getIntValue: could not parse ''
########################################################################

          :  Hamiltonian                  GFN2-xTB          :
 * total energy  :   -42.1994574 Eh     change       -0.6394885E-12 Eh
   *** GEOMETRY OPTIMIZATION CONVERGED AFTER 1 ITERATIONS ***

 final structure:
================
25
 xtb: 6.6.1 (8d0f1dd)
C            3.23907341298617        1.20727070571592        0.07269469216847
N            2.33226249657814        0.09282187559452        0.05885659011167
C            2.66717404665037       -1.20985246762734        0.07699781163718
N            1.54142712279394       -1.97247404478604        0.05221422675710
C            0.46487266103794       -1.12768933559702        0.01921606635624
C            0.95774430715884        0.17833699510385        0.02190331782072
C            0.10810985800480        1.32816305626489       -0.03767442558700
O            0.43784312488831        2.49901724273367       -0.06906511953700
N           -1.25958385296242        0.94380843131820       -0.05501179867901
C           -2.25337907880440        2.00153610835316       -0.08743677631932
C           -1.70339227930058       -0.33314927326822       -0.03040241674958
O           -3.01821126935344       -0.51888059449336        0.01295890097355
N           -0.87318751941787       -1.42475971111727       -0.03053473665581
C           -1.35890095225747       -2.70319956823449       -0.03100985478590
H            3.80160327310651        1.22897695271720        1.00752721867706
H            3.94176280424694        1.13423989451735       -0.75802627655437
H            2.66094221840179        2.12607046560685       -0.01932403911978
H            3.66468445272354       -1.59390559021889        0.10578924803443
H           -1.71695613445605        2.94849906848052       -0.09587365866896
H           -2.86965046498430        1.91229247094882       -0.98110749940929
H           -2.89461329731971        1.94256445493523        0.79135850654278
H           -0.67993873972153       -3.50530062644657        0.14546096683785
H           -2.32420543213216       -2.92004249769730       -0.43682685768609
H           -3.22469143140221       -1.43608919450624        0.25767004723648
H            1.51964218763485       -2.98001627669744        0.04081748449859

          :  Hamiltonian                  GFN2-xTB          :
         :: total energy             -42.199457410894 Eh    ::
         :: gradient norm              0.004058596023 Eh/a0 ::
         :: HOMO-LUMO gap              1.616569643986 eV    ::
         :: SCC energy               -42.711254619951 Eh    ::
         :: -> dispersion             -0.022973094661 Eh    ::
         :: repulsion energy           0.511692648750 Eh    ::

    * Orbital Energies and Occupations

         #    Occupation            Energy/Eh            Energy/eV
      -------------------------------------------------------------
         1        2.0000           -0.9007293             -24.5101
       ...           ...                  ...                  ...
        25        1.9998           -0.6675894             -18.1660
        26        1.9997           -0.6635892             -18.0572
        27        1.9996           -0.6558209             -17.8458
        28        1.9993           -0.6434192             -17.5083
        29        1.9991           -0.6354679             -17.2920
        30        1.9985           -0.6247558             -17.0005
        31        1.9979           -0.6167077             -16.7815
        32        1.9960           -0.6010200             -16.3546
        33        1.9955           -0.5986095             -16.2890
        34        1.9895           -0.5782000             -15.7336
        35        1.9822           -0.5655342             -15.3890
        36        1.9692           -0.5524053             -15.0317
        37        1.4231           -0.4750788             -12.9276 (HOMO)
        38        0.3364           -0.4156710             -11.3110 (LUMO)
        39        0.2499           -0.4074063             -11.0861
        40        0.0637           -0.3725257             -10.1369
        41        0.0013           -0.2796165              -7.6088
        42        0.0000           -0.1962893              -5.3413
        43        0.0000           -0.1834643              -4.9923
        44        0.0000           -0.1403209              -3.8183
        45        0.0000           -0.1271280              -3.4593
        46        0.0000           -0.0915171              -2.4903
        47                         -0.0506959              -1.3795
        48                         -0.0321467              -0.8748
       ...                                ...                  ...
        67                          0.5314427              14.4613
      -------------------------------------------------------------
                  HL-Gap            0.0594078 Eh            1.6166 eV

     #   Z          covCN         q      C6AA      α(0)
     1   6 C        3.690    -0.090    22.409     6.774
     2   7 N        2.820     0.061    20.184     6.673
     3   6 C        3.026     0.033    27.232     8.560
     4   7 N        2.774    -0.065    22.501     7.045
     5   6 C        3.060     0.078    26.207     8.395
     6   6 C        3.086    -0.019    28.379     8.733
     7   6 C        2.764     0.245    22.887     7.835
     8   8 O        0.857    -0.381    21.312     6.189
     9   7 N        2.744    -0.048    22.178     6.994
    10   6 C        3.706    -0.070    21.990     6.704
    11   6 C        2.765     0.225    23.265     7.899
    12   8 O        1.660    -0.329    19.528     5.965
    13   7 N        2.736     0.016    20.983     6.803
    14   6 C        2.795    -0.133    31.389     9.178
    15   1 H        0.924     0.100     1.783     2.088
    16   1 H        0.924     0.099     1.791     2.093
    17   1 H        0.925     0.131     1.526     1.932
    18   1 H        0.927     0.113     1.668     2.019
    19   1 H        0.925     0.125     1.574     1.962
    20   1 H        0.925     0.099     1.795     2.095
    21   1 H        0.925     0.098     1.803     2.100
    22   1 H        0.927     0.066     2.135     2.285
    23   1 H        0.927     0.071     2.070     2.250
    24   1 H        0.804     0.356     0.575     1.192
    25   1 H        0.860     0.220     1.009     1.574

Wiberg/Mayer (AO) data.
largest (>0.10) Wiberg bond orders for each atom

     #   Z sym  total        # sym  WBO       # sym  WBO       # sym  WBO
 ---------------------------------------------------------------------------
     1   6 C    3.918 --     2 N    0.991    16 H    0.962    17 H    0.960
                            15 H    0.959
     2   7 N    3.566 --     3 C    1.306     6 C    1.148     1 C    0.991
     3   6 C    3.675 --     2 N    1.306     4 N    1.239    18 H    0.957
     4   7 N    3.494 --     3 C    1.239     5 C    1.174    25 H    0.922
     5   6 C    3.803 --     6 C    1.312     4 N    1.174    13 N    1.110
     6   6 C    3.835 --     5 C    1.312     2 N    1.148     7 C    1.117
     7   6 C    3.851 --     8 O    1.623     6 C    1.117     9 N    1.021
     8   8 O    1.899 --     7 C    1.623     9 N    0.118
     9   7 N    3.493 --    11 C    1.236     7 C    1.021    10 C    0.973
                             8 O    0.118
    10   6 C    3.908 --     9 N    0.973    20 H    0.962    19 H    0.962
                            21 H    0.962
    11   6 C    3.696 --     9 N    1.236    12 O    1.145    13 N    1.144
    12   8 O    2.144 --    11 C    1.145    24 H    0.829
    13   7 N    3.612 --    14 C    1.170    11 C    1.144     5 C    1.110
    14   6 C    3.297 --    13 N    1.170    22 H    0.973    23 H    0.961
    15   1 H    0.980 --     1 C    0.959
    16   1 H    0.982 --     1 C    0.962
    17   1 H    0.981 --     1 C    0.960
    18   1 H    0.986 --     3 C    0.957
    19   1 H    0.982 --    10 C    0.962
    20   1 H    0.981 --    10 C    0.962
    21   1 H    0.981 --    10 C    0.962
    22   1 H    0.994 --    14 C    0.973
    23   1 H    0.991 --    14 C    0.961
    24   1 H    0.871 --    12 O    0.829
    25   1 H    0.951 --     4 N    0.922
 ---------------------------------------------------------------------------

molecular dipole:
                 x           y           z       tot (Debye)
 q only:        0.842      -1.901       0.186
   full:        0.901      -2.646       0.174       7.119

           -------------------------------------------------
          | TOTAL ENERGY              -42.199457410894 Eh   |
          | GRADIENT NORM               0.004058596023 Eh/α |
          | HOMO-LUMO GAP               1.616569643986 eV   |
           -------------------------------------------------

 * finished run on 2024/06/05 at 19:58:56.253
