   * xtb version 6.6.1 (8d0f1dd) compiled by 'conda@1efc2f54142f' on 2023-08-01
          program call               : xtb xtbopt.xyz --opt crude --input .xc2 --gfn2

   ID    Z sym.   atoms
    1    6 C      1, 3, 5-7, 10, 11, 14
    2    7 N      2, 4, 9, 13
    3    8 O      8, 12
    4    1 H      15-25

          :  Hamiltonian                  GFN2-xTB          :
 * total energy  :   -42.0218329 Eh     change       -0.6302514E-11 Eh
   *** GEOMETRY OPTIMIZATION CONVERGED AFTER 1 ITERATIONS ***

 final structure:
================
25
 xtb: 6.6.1 (8d0f1dd)
C            3.36776643621623        1.43761922036068        0.01210673290603
N            2.57893634810510        0.23325359678009       -0.00021485624899
C            3.17892376554340       -1.00267476286443        0.00648727606103
N            2.60534887552389       -2.12083503176667        0.01549163433642
C            0.55117956779360       -0.98982830581373        0.02103476808183
C            1.21514833383499        0.18972440968249        0.00821805360107
C            0.25977475465069        1.33270495310560       -0.00992637593251
O            0.63841681960264        2.48176894894063       -0.03678357446242
N           -1.07682695859705        0.98421018361115        0.00335652292471
C           -2.05584874907128        2.06070687473178       -0.00490962997329
C           -1.61048127832516       -0.30502385023099        0.02051750984721
O           -2.78706341007799       -0.53268441055749        0.02911849695570
N           -0.65534044532699       -1.30998199547628        0.02543171072905
C           -3.16985458898467       -3.42320032244682       -0.02943517613009
H            3.87815267515500        1.54531493869086        0.97236709993157
H            4.11832597906104        1.39972245227748       -0.77854952599795
H            2.72111824997628        2.30104675211435       -0.13973136533030
H            4.26300171773048       -1.00309442139525        0.00369674738627
H           -1.52623242191642        3.01142091890787       -0.00421364620112
H           -2.68450641331383        1.97937127339919       -0.89240040667968
H           -2.69414984511159        1.98179846755544        0.87579222576520
H           -2.83659984576299       -3.91256293998698        0.86508234637736
H           -2.81026335457777       -3.75341140582776       -0.98493483408351
H           -3.86284516264828       -2.60298156062447        0.03043083231991
H            1.55435046462221       -2.16414544156758        0.02313905171824

          :  Hamiltonian                  GFN2-xTB          :
         :: total energy             -42.021832943372 Eh    ::
         :: gradient norm              0.003572990489 Eh/a0 ::
         :: HOMO-LUMO gap              0.708338714749 eV    ::
         :: SCC energy               -42.561833214441 Eh    ::
         :: -> dispersion             -0.020879932530 Eh    ::
         :: repulsion energy           0.539957043764 Eh    ::

    * Orbital Energies and Occupations

         #    Occupation            Energy/Eh            Energy/eV
      -------------------------------------------------------------
         1        2.0000           -0.8894123             -24.2021
       ...           ...                  ...                  ...
        25        1.9993           -0.6492465             -17.6669
        26        1.9990           -0.6440308             -17.5250
        27        1.9988           -0.6418226             -17.4649
        28        1.9981           -0.6335970             -17.2411
        29        1.9977           -0.6310325             -17.1713
        30        1.9964           -0.6237964             -16.9744
        31        1.9921           -0.6112096             -16.6319
        32        1.9903           -0.6079754             -16.5439
        33        1.9861           -0.6022722             -16.3887
        34        1.9559           -0.5837372             -15.8843
        35        1.9422           -0.5793576             -15.7651
        36        1.9263           -0.5753690             -15.6566
        37        1.4105           -0.5375210             -14.6267 (HOMO)
        38        0.6323           -0.5114901             -13.9184 (LUMO)
        39        0.1718           -0.4862600             -13.2318
        40        0.0026           -0.4187467             -11.3947
        41        0.0011           -0.4052259             -11.0268
        42        0.0002           -0.3759820             -10.2310
        43        0.0000           -0.2892777              -7.8716
        44                         -0.1907029              -5.1893
        45                         -0.1524033              -4.1471
        46                         -0.0834050              -2.2696
        47                         -0.0448322              -1.2199
        48                         -0.0306592              -0.8343
       ...                                ...                  ...
        67                          0.5730704              15.5940
      -------------------------------------------------------------
                  HL-Gap            0.0260310 Eh            0.7083 eV

     #   Z          covCN         q      C6AA      α(0)
     1   6 C        3.694    -0.086    22.323     6.759
     2   7 N        2.742     0.035    20.643     6.748
     3   6 C        2.811     0.119    25.378     8.253
     4   7 N        1.786    -0.220    26.606     7.640
     5   6 C        2.204     0.088    28.295     8.608
     6   6 C        2.940     0.020    27.554     8.609
     7   6 C        2.794     0.281    22.247     7.726
     8   8 O        0.858    -0.339    20.500     6.070
     9   7 N        2.740    -0.076    22.708     7.077
    10   6 C        3.707    -0.060    21.796     6.673
    11   6 C        2.771     0.345    21.138     7.530
    12   8 O        0.859    -0.323    20.198     6.026
    13   7 N        1.835    -0.187    25.864     7.536
    14   6 C        2.779    -0.065    29.591     8.910
    15   1 H        0.924     0.106     1.729     2.056
    16   1 H        0.924     0.103     1.754     2.071
    17   1 H        0.925     0.133     1.511     1.922
    18   1 H        0.925     0.136     1.492     1.910
    19   1 H        0.925     0.119     1.625     1.994
    20   1 H        0.924     0.108     1.717     2.049
    21   1 H        0.924     0.108     1.715     2.048
    22   1 H        0.926     0.135     1.496     1.913
    23   1 H        0.926     0.134     1.502     1.916
    24   1 H        0.926     0.157     1.345     1.814
    25   1 H        1.034     0.227     0.966     1.535

Wiberg/Mayer (AO) data.
largest (>0.10) Wiberg bond orders for each atom

     #   Z sym  total        # sym  WBO       # sym  WBO       # sym  WBO
 ---------------------------------------------------------------------------
     1   6 C    3.897 --     2 N    0.993    16 H    0.956    17 H    0.950
                            15 H    0.947
     2   7 N    3.490 --     6 C    1.174     3 C    1.153     1 C    0.993
     3   6 C    3.934 --     4 N    1.800     2 N    1.153    18 H    0.912
     4   7 N    2.954 --     3 C    1.800    25 H    0.724     5 C    0.166
     5   6 C    3.733 --    13 N    1.721     6 C    1.391    25 H    0.195
                             4 N    0.166
     6   6 C    3.790 --     5 C    1.391     2 N    1.174     7 C    0.978
     7   6 C    3.933 --     8 O    1.663     9 N    1.155     6 C    0.978
     8   8 O    2.019 --     7 C    1.663     9 N    0.138
     9   7 N    3.536 --     7 C    1.155    11 C    1.087    10 C    0.967
                             8 O    0.138    12 O    0.116
    10   6 C    3.885 --     9 N    0.967    19 H    0.962    21 H    0.955
                            20 H    0.955
    11   6 C    3.921 --    12 O    1.695     9 N    1.087    13 N    1.033
    12   8 O    2.019 --    11 C    1.695     9 N    0.116
    13   7 N    3.078 --     5 C    1.721    11 C    1.033
    14   6 C    2.946 --    23 H    0.979    22 H    0.979    24 H    0.968
    15   1 H    0.965 --     1 C    0.947
    16   1 H    0.973 --     1 C    0.956
    17   1 H    0.977 --     1 C    0.950
    18   1 H    0.967 --     3 C    0.912
    19   1 H    0.981 --    10 C    0.962
    20   1 H    0.975 --    10 C    0.955
    21   1 H    0.975 --    10 C    0.955
    22   1 H    0.980 --    14 C    0.979
    23   1 H    0.981 --    14 C    0.979
    24   1 H    0.973 --    14 C    0.968
    25   1 H    0.946 --     4 N    0.724     5 C    0.195
 ---------------------------------------------------------------------------

molecular dipole:
                 x           y           z       tot (Debye)
 q only:        0.784      -1.236       0.000
   full:        1.022      -1.021       0.007       3.672

           -------------------------------------------------
          | TOTAL ENERGY              -42.021832943372 Eh   |
          | GRADIENT NORM               0.003572990489 Eh/α |
          | HOMO-LUMO GAP               0.708338714749 eV   |
           -------------------------------------------------

 * finished run on 2024/06/05 at 19:59:10.728
