   * xtb version 6.6.1 (8d0f1dd) compiled by 'conda@1efc2f54142f' on 2023-08-01
          program call               : xtb struc.xyz --opt loose --input .xc1 --gfn2

   ID    Z sym.   atoms
    1    6 C      1, 3, 5-7, 10, 11, 14
    2    7 N      2, 4, 9, 13
    3    8 O      8, 12
    4    1 H      15-25
constraining bond 8 10 to    5.7600000 Å, actual value:    2.7438924 Å

          :  Hamiltonian                  GFN2-xTB          :
 * total energy  :   -26.0024675 Eh     change       -0.6633627E-10 Eh
 * total energy  :   -31.4909538 Eh     change       -0.5488486E+01 Eh
 * total energy  :   -36.0394126 Eh     change       -0.4548459E+01 Eh
 * total energy  :   -39.1267280 Eh     change       -0.3087315E+01 Eh
 * total energy  :   -40.8802843 Eh     change       -0.1753556E+01 Eh
 * total energy  :   -41.5326663 Eh     change       -0.6523820E+00 Eh
 * total energy  :   -41.6204838 Eh     change       -0.8781744E-01 Eh
 * total energy  :   -41.6307057 Eh     change       -0.1022195E-01 Eh
 * total energy  :   -41.6516126 Eh     change       -0.2090691E-01 Eh
 * total energy  :   -41.6643698 Eh     change       -0.1275720E-01 Eh
 * total energy  :   -42.1092796 Eh     change       -0.2103597E-03 Eh
 * total energy  :   -42.1094554 Eh     change       -0.1757996E-03 Eh
 * total energy  :   -42.1096017 Eh     change       -0.1462821E-03 Eh
 * total energy  :   -42.1097949 Eh     change       -0.1932506E-03 Eh
 * total energy  :   -42.1099232 Eh     change       -0.1282910E-03 Eh
 * total energy  :   -42.1100037 Eh     change       -0.8050112E-04 Eh
 * total energy  :   -42.1099623 Eh     change        0.4138077E-04 Eh
 * total energy  :   -42.1100837 Eh     change       -0.1213809E-03 Eh
 * total energy  :   -42.1101106 Eh     change       -0.2686378E-04 Eh
   *** GEOMETRY OPTIMIZATION CONVERGED AFTER 53 ITERATIONS ***

 final structure:
================
25
 xtb: 6.6.1 (8d0f1dd)
C            3.32850845827754        1.12186430440375        0.05250353135525
N            2.46576353531175       -0.07439250080132       -0.06533701602411
C            2.62024611833474       -1.35465666005726        0.23714023997002
N            1.42202165122274       -1.98687392534955        0.17347912379653
C            0.47323696535624       -1.05786848268225       -0.13443380834249
C            1.14235068633390        0.14638978673751       -0.33674311957133
C            0.48925919957639        1.28487814980255       -0.88826179693738
O            2.57511399153299        2.13930781039454        0.57323511903196
N           -0.82298578306241        1.18717112838273       -0.72535544586553
C           -3.15211686280244        1.60880558411380        0.19675862095401
C           -1.45559086224437        0.14951016127331       -0.26754752785097
O           -2.69980317236919        0.25515712543423        0.12033925384668
N           -0.88077196664859       -1.10916030702540       -0.16046421529404
C           -1.64481982491117       -2.33180386402814       -0.01735042302249
H            4.14367607150267        0.89617558879637        0.74571633358846
H            3.73079785979799        1.33972814441457       -0.94672710892211
H            1.96793757337530        2.50091945526380       -0.10215420160534
H            3.54338130105045       -1.83700547889659        0.48948978828620
H           -2.47118807044189        2.20875757215793        0.80125926990810
H           -3.21612334465344        2.04180988342274       -0.80185114265819
H           -4.13718048326471        1.56400997086764        0.65715576154732
H           -1.46136450462771       -2.78125651954869        0.95984934683750
H           -1.37659448920969       -3.03787340094389       -0.80436219733808
H           -2.70115264500285       -2.08785818273263       -0.09804296203102
H            1.27783011166502       -2.96749680179963        0.37287619424069

          :  Hamiltonian                  GFN2-xTB          :
         :: total energy             -42.110110587000 Eh    ::
         :: gradient norm              0.002474082914 Eh/a0 ::
         :: HOMO-LUMO gap              1.182908060461 eV    ::
         :: SCC energy               -42.606962276968 Eh    ::
         :: -> dispersion             -0.022437099191 Eh    ::
         :: repulsion energy           0.496722391884 Eh    ::

    * Orbital Energies and Occupations

         #    Occupation            Energy/Eh            Energy/eV
      -------------------------------------------------------------
         1        2.0000           -0.9016083             -24.5340
       ...           ...                  ...                  ...
        25        2.0000           -0.6647704             -18.0893
        26        2.0000           -0.6546668             -17.8144
        27        2.0000           -0.6516665             -17.7327
        28        2.0000           -0.6384032             -17.3718
        29        2.0000           -0.6362491             -17.3132
        30        2.0000           -0.6047583             -16.4563
        31        2.0000           -0.5997655             -16.3204
        32        2.0000           -0.5980152             -16.2728
        33        2.0000           -0.5874263             -15.9847
        34        2.0000           -0.5756905             -15.6653
        35        2.0000           -0.5582846             -15.1917
        36        2.0000           -0.5452564             -14.8372
        37        1.8787           -0.4817211             -13.1083 (HOMO)
        38        0.1201           -0.4382500             -11.9254 (LUMO)
        39        0.0011           -0.4005145             -10.8986
        40        0.0001           -0.3812916             -10.3755
        41                         -0.2798920              -7.6162
        42                         -0.2034775              -5.5369
        43                         -0.1894973              -5.1565
        44                         -0.1382696              -3.7625
        45                         -0.1117067              -3.0397
        46                         -0.0673615              -1.8330
        47                         -0.0518013              -1.4096
        48                         -0.0476290              -1.2961
       ...                                ...                  ...
        67                          0.4638746              12.6227
      -------------------------------------------------------------
                  HL-Gap            0.0434711 Eh            1.1829 eV

     #   Z          covCN         q      C6AA      α(0)
     1   6 C        3.619     0.126    18.956     6.279
     2   7 N        2.833     0.020    20.890     6.788
     3   6 C        3.053     0.064    26.516     8.445
     4   7 N        2.795    -0.061    22.423     7.033
     5   6 C        3.084     0.110    25.478     8.275
     6   6 C        3.161     0.034    26.924     8.482
     7   6 C        1.934    -0.108    34.092     9.429
     8   8 O        1.657    -0.393    20.715     6.144
     9   7 N        1.868    -0.214    26.504     7.631
    10   6 C        3.686     0.007    20.648     6.505
    11   6 C        2.847     0.294    22.017     7.690
    12   8 O        1.706    -0.203    17.386     5.630
    13   7 N        2.740    -0.038    21.969     6.961
    14   6 C        3.691    -0.068    21.996     6.712
    15   1 H        0.924     0.099     1.791     2.093
    16   1 H        0.923     0.084     1.940     2.178
    17   1 H        0.803     0.339     0.615     1.232
    18   1 H        0.926     0.118     1.632     1.998
    19   1 H        0.924     0.086     1.923     2.169
    20   1 H        0.924     0.097     1.812     2.105
    21   1 H        0.925     0.103     1.759     2.074
    22   1 H        0.924     0.085     1.930     2.173
    23   1 H        0.924     0.085     1.926     2.170
    24   1 H        0.925     0.111     1.689     2.032
    25   1 H        0.860     0.223     0.998     1.565

Wiberg/Mayer (AO) data.
largest (>0.10) Wiberg bond orders for each atom

     #   Z sym  total        # sym  WBO       # sym  WBO       # sym  WBO
 ---------------------------------------------------------------------------
     1   6 C    3.925 --     8 O    1.075    15 H    0.957    16 H    0.947
                             2 N    0.910
     2   7 N    3.659 --     3 C    1.401     6 C    1.145     1 C    0.910
     3   6 C    3.868 --     2 N    1.401     4 N    1.277    18 H    0.954
     4   7 N    3.594 --     3 C    1.277     5 C    1.191    25 H    0.920
     5   6 C    3.936 --     6 C    1.324    13 N    1.195     4 N    1.191
     6   6 C    3.901 --     5 C    1.324     7 C    1.185     2 N    1.145
     7   6 C    2.880 --     9 N    1.416     6 C    1.185
     8   8 O    2.027 --     1 C    1.075    17 H    0.836
     9   7 N    3.162 --    11 C    1.450     7 C    1.416
    10   6 C    3.882 --    21 H    0.974    19 H    0.974    20 H    0.970
                            12 O    0.927
    11   6 C    3.910 --     9 N    1.450    12 O    1.198    13 N    1.115
    12   8 O    2.350 --    11 C    1.198    10 C    0.927
    13   7 N    3.581 --     5 C    1.195    11 C    1.115    14 C    0.974
    14   6 C    3.935 --    13 N    0.974    24 H    0.972    23 H    0.971
                            22 H    0.969
    15   1 H    0.989 --     1 C    0.957
    16   1 H    0.992 --     1 C    0.947
    17   1 H    0.885 --     8 O    0.836
    18   1 H    0.985 --     3 C    0.954
    19   1 H    0.992 --    10 C    0.974
    20   1 H    0.989 --    10 C    0.970
    21   1 H    0.989 --    10 C    0.974
    22   1 H    0.992 --    14 C    0.969
    23   1 H    0.992 --    14 C    0.971
    24   1 H    0.987 --    14 C    0.972
    25   1 H    0.950 --     4 N    0.920
 ---------------------------------------------------------------------------

molecular dipole:
                 x           y           z       tot (Debye)
 q only:        1.130      -1.837       0.144
   full:        1.195      -2.934       0.242       8.076

           -------------------------------------------------
          | TOTAL ENERGY              -42.110110587000 Eh   |
          | GRADIENT NORM               0.002474082914 Eh/α |
          | HOMO-LUMO GAP               1.182908060461 eV   |
           -------------------------------------------------

 * finished run on 2024/06/05 at 19:58:03.700
