   * xtb version 6.6.1 (8d0f1dd) compiled by 'conda@1efc2f54142f' on 2023-08-01
          program call               : xtb xtbopt.xyz --opt crude --input .xc2 --gfn2

   ID    Z sym.   atoms
    1    6 C      1, 3, 5-7, 10, 11, 14
    2    7 N      2, 4, 9, 13
    3    8 O      8, 12
    4    1 H      15-25
########################################################################
[WARNING] Please study the warnings concerning your input carefully
-1- readin_getIntValue: could not parse ''
########################################################################

          :  Hamiltonian                  GFN2-xTB          :
 * total energy  :   -42.1101400 Eh     change       -0.1101341E-11 Eh
 * total energy  :   -42.1120307 Eh     change       -0.1890760E-02 Eh
 * total energy  :   -42.1140634 Eh     change       -0.2032636E-02 Eh
 * total energy  :   -42.1155891 Eh     change       -0.1525713E-02 Eh
 * total energy  :   -42.1167959 Eh     change       -0.1206818E-02 Eh
 * total energy  :   -42.1176841 Eh     change       -0.8881904E-03 Eh
 * total energy  :   -42.1182153 Eh     change       -0.5312446E-03 Eh
 * total energy  :   -42.1185097 Eh     change       -0.2943755E-03 Eh
   *** GEOMETRY OPTIMIZATION CONVERGED AFTER 8 ITERATIONS ***

 final structure:
================
25
 xtb: 6.6.1 (8d0f1dd)
C            3.55889853186430        0.98153559340830       -0.07912123508773
N            2.49279826903099       -0.03149015118318        0.00055117472960
C            2.61161010736243       -1.34079612210503        0.17808657923534
N            1.38723929353376       -1.91806209310381        0.18351896198815
C            0.46385235545540       -0.92857887922473        0.03164930958461
C            1.15411803973535        0.27817941077166       -0.10002659537434
C            0.47323468102557        1.48915452124569       -0.43423902647974
O            3.17768705894124        2.13446289752565        0.53648508175446
N           -0.85116327312627        1.35907910648350       -0.34898427093935
C           -3.50797019371030        1.45512000881904        0.01940131907255
C           -1.49783612312063        0.25976042775321       -0.10294401808251
O           -2.79809005653021        0.21565542220384        0.04748607965390
N           -0.88241070653910       -0.98668527778420       -0.00975127559416
C           -1.60601820635478       -2.24347409440692        0.02122457094332
H            4.43607878233695        0.59161894382236        0.45036842507826
H            3.80143703456855        1.10992449702056       -1.14852723330738
H            2.46738298821414        2.58366239533761        0.04324325874840
H            3.53507389608891       -1.87227219610335        0.30144355971629
H           -3.04979071042664        2.17200225333141        0.70106553398886
H           -3.50994160736859        1.86677747917446       -0.99062975999356
H           -4.52161900816831        1.21695950879073        0.33384645371977
H           -1.45884773838814       -2.74058193013991        0.98116632777014
H           -1.26421928223078       -2.89018465757496       -0.78869372251933
H           -2.66509191888903       -2.03825823929781       -0.10942944734632
H            1.21401930079541       -2.90527028316427        0.31398156664102

          :  Hamiltonian                  GFN2-xTB          :
         :: total energy             -42.118509705100 Eh    ::
         :: gradient norm              0.004829204666 Eh/a0 ::
         :: HOMO-LUMO gap              1.042640942832 eV    ::
         :: SCC energy               -42.611493853071 Eh    ::
         :: -> dispersion             -0.022081273084 Eh    ::
         :: repulsion energy           0.492951452506 Eh    ::

    * Orbital Energies and Occupations

         #    Occupation            Energy/Eh            Energy/eV
      -------------------------------------------------------------
         1        2.0000           -0.9023838             -24.5551
       ...           ...                  ...                  ...
        25        2.0000           -0.6650059             -18.0957
        26        2.0000           -0.6549343             -17.8217
        27        2.0000           -0.6513137             -17.7231
        28        2.0000           -0.6392023             -17.3936
        29        2.0000           -0.6379247             -17.3588
        30        2.0000           -0.6064175             -16.5015
        31        2.0000           -0.6009113             -16.3516
        32        2.0000           -0.5976234             -16.2622
        33        2.0000           -0.5852758             -15.9262
        34        2.0000           -0.5710147             -15.5381
        35        2.0000           -0.5590987             -15.2139
        36        2.0000           -0.5424594             -14.7611
        37        1.8361           -0.4773515             -12.9894 (HOMO)
        38        0.1628           -0.4390352             -11.9468 (LUMO)
        39        0.0011           -0.3988115             -10.8522
        40        0.0001           -0.3803980             -10.3512
        41                         -0.2712835              -7.3820
        42                         -0.2002463              -5.4490
        43                         -0.1908432              -5.1931
        44                         -0.1403797              -3.8199
        45                         -0.1181365              -3.2147
        46                         -0.0752504              -2.0477
        47                         -0.0532061              -1.4478
        48                         -0.0470351              -1.2799
       ...                                ...                  ...
        67                          0.4731810              12.8759
      -------------------------------------------------------------
                  HL-Gap            0.0383163 Eh            1.0426 eV

     #   Z          covCN         q      C6AA      α(0)
     1   6 C        3.612     0.127    18.976     6.289
     2   7 N        2.835     0.020    20.894     6.789
     3   6 C        3.047     0.062    26.574     8.455
     4   7 N        2.784    -0.063    22.462     7.039
     5   6 C        3.086     0.114    25.398     8.261
     6   6 C        3.111     0.032    27.127     8.533
     7   6 C        1.930    -0.103    33.948     9.409
     8   8 O        1.657    -0.386    20.578     6.124
     9   7 N        1.853    -0.217    26.572     7.640
    10   6 C        3.656     0.008    20.732     6.536
    11   6 C        2.801     0.294    22.015     7.687
    12   8 O        1.706    -0.207    17.438     5.638
    13   7 N        2.740    -0.035    21.921     6.954
    14   6 C        3.693    -0.070    22.033     6.716
    15   1 H        0.924     0.099     1.796     2.096
    16   1 H        0.923     0.077     2.007     2.215
    17   1 H        0.804     0.340     0.612     1.229
    18   1 H        0.926     0.116     1.643     2.004
    19   1 H        0.925     0.091     1.872     2.139
    20   1 H        0.924     0.092     1.856     2.130
    21   1 H        0.925     0.102     1.766     2.078
    22   1 H        0.924     0.086     1.918     2.166
    23   1 H        0.924     0.083     1.951     2.184
    24   1 H        0.925     0.114     1.667     2.019
    25   1 H        0.860     0.223     0.996     1.564

Wiberg/Mayer (AO) data.
largest (>0.10) Wiberg bond orders for each atom

     #   Z sym  total        # sym  WBO       # sym  WBO       # sym  WBO
 ---------------------------------------------------------------------------
     1   6 C    3.929 --     8 O    1.078    15 H    0.955    16 H    0.942
                             2 N    0.917
     2   7 N    3.648 --     3 C    1.398     6 C    1.138     1 C    0.917
     3   6 C    3.845 --     2 N    1.398     4 N    1.274    18 H    0.954
     4   7 N    3.591 --     3 C    1.274     5 C    1.192    25 H    0.919
     5   6 C    3.935 --     6 C    1.318    13 N    1.212     4 N    1.192
     6   6 C    3.892 --     5 C    1.318     7 C    1.188     2 N    1.138
     7   6 C    2.812 --     9 N    1.388     6 C    1.188
     8   8 O    2.029 --     1 C    1.078    17 H    0.852
     9   7 N    3.115 --    11 C    1.448     7 C    1.388
    10   6 C    3.882 --    21 H    0.976    19 H    0.974    20 H    0.971
                            12 O    0.928
    11   6 C    3.899 --     9 N    1.448    12 O    1.197    13 N    1.107
    12   8 O    2.349 --    11 C    1.197    10 C    0.928
    13   7 N    3.587 --     5 C    1.212    11 C    1.107    14 C    0.973
    14   6 C    3.934 --    13 N    0.973    23 H    0.971    24 H    0.970
                            22 H    0.969
    15   1 H    0.989 --     1 C    0.955
    16   1 H    0.991 --     1 C    0.942
    17   1 H    0.884 --     8 O    0.852
    18   1 H    0.985 --     3 C    0.954
    19   1 H    0.991 --    10 C    0.974
    20   1 H    0.990 --    10 C    0.971
    21   1 H    0.989 --    10 C    0.976
    22   1 H    0.991 --    14 C    0.969
    23   1 H    0.992 --    14 C    0.971
    24   1 H    0.987 --    14 C    0.970
    25   1 H    0.949 --     4 N    0.919
 ---------------------------------------------------------------------------

molecular dipole:
                 x           y           z       tot (Debye)
 q only:        0.919      -1.937      -0.094
   full:        0.908      -3.067      -0.081       8.131

           -------------------------------------------------
          | TOTAL ENERGY              -42.118509705100 Eh   |
          | GRADIENT NORM               0.004829204666 Eh/α |
          | HOMO-LUMO GAP               1.042640942832 eV   |
           -------------------------------------------------

 * finished run on 2024/06/05 at 19:58:04.054
