   * xtb version 6.6.1 (8d0f1dd) compiled by 'conda@1efc2f54142f' on 2023-08-01
          program call               : xtb struc.xyz --opt loose --input .xc1 --gfn2

   ID    Z sym.   atoms
    1    7 N      1, 17
    2    6 C      2-6, 8, 9, 11-16, 18-23, 25, 26, 28-33
    3    8 O      7, 10, 24, 27
    4    1 H      34-72
constraining bond 4 9 to    6.0000000 Å, actual value:    2.8108512 Å

          :  Hamiltonian                  GFN2-xTB          :
 * total energy  :   -97.5881252 Eh     change       -0.4035485E-08 Eh
 * total energy  :   -97.9625589 Eh     change       -0.3744338E+00 Eh
 * total energy  :   -98.1711225 Eh     change       -0.2085635E+00 Eh
 * total energy  :   -98.2811539 Eh     change       -0.1100315E+00 Eh
 * total energy  :   -98.3477985 Eh     change       -0.6664452E-01 Eh
 * total energy  :   -98.3921408 Eh     change       -0.4434238E-01 Eh
 * total energy  :   -98.4247007 Eh     change       -0.3255981E-01 Eh
 * total energy  :   -98.4568239 Eh     change       -0.3212322E-01 Eh
 * total energy  :   -98.5023099 Eh     change       -0.4548600E-01 Eh
 * total energy  :   -98.5422533 Eh     change       -0.3994340E-01 Eh
 * total energy  :   -99.2244171 Eh     change       -0.2233358E-03 Eh
 * total energy  :   -99.2246071 Eh     change       -0.1899846E-03 Eh
 * total energy  :   -99.2247803 Eh     change       -0.1732088E-03 Eh
 * total energy  :   -99.2250199 Eh     change       -0.2396552E-03 Eh
 * total energy  :   -99.2251622 Eh     change       -0.1422842E-03 Eh
 * total energy  :   -99.2252562 Eh     change       -0.9401236E-04 Eh
 * total energy  :   -99.2253439 Eh     change       -0.8772232E-04 Eh
 * total energy  :   -99.2253922 Eh     change       -0.4826604E-04 Eh
 * total energy  :   -99.2254419 Eh     change       -0.4967005E-04 Eh
   *** GEOMETRY OPTIMIZATION CONVERGED AFTER 71 ITERATIONS ***

 final structure:
================
72
 xtb: 6.6.1 (8d0f1dd)
N           -1.72124280323161        3.29264123295118        2.13750579360470
C           -1.68804337657842        2.54003324719218        1.14274881779851
C           -2.84656613280788        2.28011888326879        0.22452898661997
C           -3.25691107650814        0.84073302111685        0.37897671026592
C           -4.18706413885622        0.16703986111770       -0.42407997626354
C           -4.28866217894630       -1.15290314967871        0.05057332754745
O           -5.06385899569271       -2.16469977376562       -0.39298772717019
C           -5.90321178276250       -1.88415393095839       -1.49413659177560
C           -4.64190203069895       -4.83007227972119       -0.97461032545420
O           -5.50846239730517       -5.11413023282054       -0.17313748367545
C           -5.55090111043929       -5.25460024610147        1.25560370126580
C           -3.40425654392235       -1.29941433029559        1.14989826003690
C           -2.77765384968104       -0.07848951182945        1.34642868091782
C           -2.34233563151221        2.53119586791316       -1.22233287751642
C           -1.44812924922196        1.41416083732989       -1.78705132435732
C           -0.11205205506583        1.34645428289216       -1.15792585487533
N            0.48791505953023        0.23747342235251       -0.75448761062780
C            1.86192814279523        0.26716308805272       -0.31389174195259
C            2.82220104898163       -0.21711399382430       -1.41763773897282
C            4.24493044795675       -0.06556159862673       -0.95814315253334
C            4.92116259234961        1.12834238142159       -1.14738675395819
C            6.22325974522897        1.28569151214656       -0.69850109053497
C            6.87455824255633        0.24929793323705       -0.04575504501338
O            8.13410875761766        0.28853788968916        0.42884826364114
C            8.89632780144191        1.46055195308109        0.25506627297767
C            6.18729974468812       -0.97905120935627        0.15626488836880
O            6.89479539249029       -1.93314822652311        0.79500269262160
C            6.30878209206790       -3.19374842692686        1.01409868787096
C            4.88512189361805       -1.11202367110059       -0.29879578344737
C           -0.17576305433389       -1.04416784748910       -0.77638620904128
C           -4.08461079758954        3.18267622905909        0.50565397828003
C           -4.67459332986266        2.90325852339853        1.88492350250405
C           -3.78238055122561        4.67123275334705        0.36149516571412
H           -4.73733647713198        0.59127171202379       -1.24100176842913
H           -6.62720468798499       -1.10300104558364       -1.24341248126617
H           -6.42542759249807       -2.80937388759111       -1.72845477647739
H           -5.31727736603628       -1.57146483172605       -2.36239583384944
H           -6.12447890728408       -4.41339548895072        1.64457385047598
H           -6.06270815814070       -6.19178990579515        1.47251515053816
H           -4.54211089477214       -5.25601324741977        1.67062062466413
H           -3.26527728449971       -2.19512977750828        1.72234652632185
H           -2.07339093798977        0.14166057227705        2.12745033533246
H           -3.21071246538752        2.62174529929356       -1.87413535169896
H           -1.80023731439448        3.47755885465481       -1.25023470754661
H           -1.97452131964397        0.46419730230855       -1.71451580784528
H           -1.29803132341851        1.63860912977321       -2.85112042471585
H           -0.78326172367910        1.99166804207935        0.81414446989693
H            0.47863023533011        2.25139724999792       -1.14177796275868
H            1.97031070291244       -0.36761090563154        0.56930456129126
H            2.13284183684919        1.28794015727044       -0.03584501354054
H            2.65506425889526        0.38375656317250       -2.31338674544278
H            2.61059389043260       -1.25979344996040       -1.65699727606195
H            4.43955098336512        1.94673911539487       -1.66078697084747
H            6.72588122577529        2.22374694561770       -0.86740705038334
H            8.43903631556105        2.31511997550540        0.76318344860979
H            9.03344534170830        1.69573194564413       -0.80469637961408
H            9.86397494345211        1.24883308443884        0.70571774885557
H            7.06944003255747       -3.78536079855580        1.51975845305523
H            5.42413769766434       -3.11970087393878        1.65488268228757
H            6.03924996309359       -3.68058081752033        0.07160281340756
H            4.35678823107678       -2.04169423522487       -0.15633147883803
H           -0.42079918099294       -1.34361182676288       -1.79654600266753
H           -1.09816552140667       -1.00470970859346       -0.18828637541718
H            0.47878519583855       -1.79514518788775       -0.34267111253123
H           -4.83584129857750        2.90867292708645       -0.24437877806262
H           -3.97011737603746        3.19366773248681        2.65762739043954
H           -4.90823668684129        1.84753678814019        2.00052550894769
H           -5.58976037281773        3.47567230323556        2.01458487509980
H           -3.00909225935417        4.96686430415632        1.06423334038416
H           -3.46756356874596        4.92583001062767       -0.64708319976285
H           -4.68040501482704        5.24223641203711        0.58419118118040
H           -0.87304740012819        3.39873459336019        2.68509693669976

          :  Hamiltonian                  GFN2-xTB          :
         :: total energy             -99.225441876048 Eh    ::
         :: gradient norm              0.003349514307 Eh/a0 ::
         :: HOMO-LUMO gap              0.611324395810 eV    ::
         :: SCC energy              -100.586942131907 Eh    ::
         :: -> dispersion             -0.073272246733 Eh    ::
         :: repulsion energy           1.360426098746 Eh    ::

    * Orbital Energies and Occupations

         #    Occupation            Energy/Eh            Energy/eV
      -------------------------------------------------------------
         1        2.0000           -0.8653404             -23.5471
       ...           ...                  ...                  ...
        78        1.9982           -0.5222484             -14.2111
        79        1.9980           -0.5202407             -14.1565
        80        1.9979           -0.5198112             -14.1448
        81        1.9977           -0.5180165             -14.0959
        82        1.9973           -0.5156326             -14.0311
        83        1.9947           -0.5050896             -13.7442
        84        1.9940           -0.5029166             -13.6851
        85        1.9931           -0.5007260             -13.6254
        86        1.9801           -0.4839002             -13.1676
        87        1.9266           -0.4628323             -12.5943
        88        1.8547           -0.4514244             -12.2839
        89        1.7917           -0.4451725             -12.1138
        90        1.3519           -0.4227376             -11.5033 (HOMO)
        91        0.6709           -0.4002718             -10.8919 (LUMO)
        92        0.3632           -0.3872579             -10.5378
        93        0.0828           -0.3613326              -9.8324
        94        0.0109           -0.3286199              -8.9422
        95        0.0029           -0.3077024              -8.3730
        96        0.0025           -0.3053922              -8.3101
        97        0.0000           -0.2384268              -6.4879
        98        0.0000           -0.2257755              -6.1437
        99        0.0000           -0.1827413              -4.9726
       100                         -0.1283272              -3.4920
       101                         -0.1002574              -2.7281
       ...                                ...                  ...
       171                          0.5813242              15.8186
      -------------------------------------------------------------
                  HL-Gap            0.0224658 Eh            0.6113 eV

     #   Z          covCN         q      C6AA      α(0)
     1   7 N        1.774    -0.267    27.758     7.802
     2   6 C        2.829     0.105    25.675     8.303
     3   6 C        3.906     0.010    20.348     6.412
     4   6 C        3.099    -0.011    28.163     8.697
     5   6 C        3.019    -0.099    30.462     9.053
     6   6 C        3.001     0.129    25.163     8.229
     7   8 O        1.704    -0.250    18.149     5.752
     8   6 C        3.653     0.032    20.339     6.476
     9   6 C        0.864    -0.055    36.802    10.127
    10   8 O        1.703    -0.001    14.499     5.141
    11   6 C        3.630     0.001    20.986     6.597
    12   6 C        3.016    -0.082    30.019     8.987
    13   6 C        3.038    -0.065    29.581     8.921
    14   6 C        3.811    -0.063    21.696     6.630
    15   6 C        3.802    -0.070    21.839     6.653
    16   6 C        2.845     0.012    27.742     8.632
    17   7 N        2.729     0.018    20.940     6.796
    18   6 C        3.757    -0.017    20.925     6.522
    19   6 C        3.808    -0.070    21.839     6.652
    20   6 C        2.969    -0.001    28.041     8.686
    21   6 C        2.922    -0.049    29.226     8.865
    22   6 C        2.914    -0.068    29.689     8.935
    23   6 C        2.865     0.133    25.094     8.211
    24   8 O        1.706    -0.224    17.713     5.682
    25   6 C        3.645     0.026    20.476     6.503
    26   6 C        2.863     0.132    25.100     8.212
    27   8 O        1.706    -0.226    17.756     5.689
    28   6 C        3.645     0.028    20.443     6.498
    29   6 C        2.919    -0.080    29.991     8.980
    30   6 C        3.700    -0.075    22.107     6.724
    31   6 C        3.854    -0.007    20.659     6.464
    32   6 C        3.756    -0.117    22.786     6.806
    33   6 C        3.755    -0.118    22.810     6.810
    34   1 H        0.926     0.027     2.631     2.536
    35   1 H        0.924     0.056     2.251     2.346
    36   1 H        0.925     0.067     2.121     2.277
    37   1 H        0.924     0.054     2.275     2.359
    38   1 H        0.925     0.104     1.745     2.066
    39   1 H        0.925     0.100     1.781     2.087
    40   1 H        0.924     0.088     1.903     2.157
    41   1 H        0.926     0.029     2.601     2.522
    42   1 H        0.926     0.021     2.723     2.580
    43   1 H        0.925     0.063     2.168     2.302
    44   1 H        0.924     0.049     2.326     2.385
    45   1 H        0.925     0.073     2.054     2.241
    46   1 H        0.924     0.079     1.987     2.204
    47   1 H        0.922     0.005     2.978     2.699
    48   1 H        0.926     0.069     2.091     2.261
    49   1 H        0.924     0.069     2.101     2.267
    50   1 H        0.924     0.067     2.122     2.278
    51   1 H        0.924     0.055     2.259     2.351
    52   1 H        0.924     0.056     2.250     2.346
    53   1 H        0.926     0.044     2.394     2.419
    54   1 H        0.926     0.058     2.228     2.334
    55   1 H        0.924     0.053     2.280     2.361
    56   1 H        0.924     0.055     2.259     2.350
    57   1 H        0.925     0.081     1.966     2.193
    58   1 H        0.925     0.081     1.972     2.196
    59   1 H        0.924     0.048     2.346     2.395
    60   1 H        0.924     0.052     2.299     2.371
    61   1 H        0.926     0.047     2.360     2.402
    62   1 H        0.924     0.077     2.006     2.215
    63   1 H        0.924     0.090     1.881     2.145
    64   1 H        0.925     0.079     1.987     2.204
    65   1 H        0.924     0.039     2.457     2.452
    66   1 H        0.925     0.068     2.112     2.272
    67   1 H        0.925     0.039     2.464     2.455
    68   1 H        0.925     0.048     2.347     2.396
    69   1 H        0.925     0.059     2.208     2.324
    70   1 H        0.925     0.034     2.530     2.487
    71   1 H        0.925     0.053     2.286     2.365
    72   1 H        0.860     0.155     1.365     1.830

Wiberg/Mayer (AO) data.
largest (>0.10) Wiberg bond orders for each atom

     #   Z sym  total        # sym  WBO       # sym  WBO       # sym  WBO
 ---------------------------------------------------------------------------
     1   7 N    3.039 --     2 C    1.959    72 H    0.942
     2   6 C    3.932 --     1 N    1.959     3 C    0.996    47 H    0.902
     3   6 C    3.971 --     2 C    0.996     4 C    0.981    14 C    0.950
                            31 C    0.937
     4   6 C    3.728 --     5 C    1.366    13 C    1.256     3 C    0.981
     5   6 C    3.797 --     4 C    1.366     6 C    1.294    34 H    0.970
     6   6 C    3.682 --     5 C    1.294    12 C    1.228     7 O    1.087
     7   8 O    2.178 --     6 C    1.087     8 C    0.976
     8   6 C    3.933 --    36 H    0.979     7 O    0.976    37 H    0.974
                            35 H    0.974
     9   6 C    1.880 --    10 O    1.763
    10   8 O    2.636 --     9 C    1.763    11 C    0.865
    11   6 C    3.823 --    40 H    0.973    39 H    0.969    38 H    0.963
                            10 O    0.865
    12   6 C    3.769 --    13 C    1.449     6 C    1.228    41 H    0.973
    13   6 C    3.780 --    12 C    1.449     4 C    1.256    42 H    0.971
    14   6 C    3.963 --    15 C    0.979    44 H    0.973    43 H    0.969
                             3 C    0.950
    15   6 C    3.984 --    16 C    1.061    14 C    0.979    45 H    0.959
                            46 H    0.927
    16   6 C    3.616 --    17 N    1.420    15 C    1.061    48 H    0.957
    17   7 N    3.497 --    16 C    1.420    30 C    0.997    18 C    0.989
    18   6 C    3.956 --    17 N    0.989    50 H    0.968    19 C    0.966
                            49 H    0.964
    19   6 C    3.977 --    20 C    1.008    52 H    0.972    51 H    0.972
                            18 C    0.966
    20   6 C    3.947 --    21 C    1.411    29 C    1.380    19 C    1.008
    21   6 C    3.952 --    22 C    1.416    20 C    1.411    53 H    0.968
    22   6 C    3.961 --    21 C    1.416    23 C    1.385    54 H    0.963
    23   6 C    3.897 --    22 C    1.385    26 C    1.222    24 O    1.108
    24   8 O    2.254 --    23 C    1.108    25 C    0.977
    25   6 C    3.929 --    57 H    0.977    24 O    0.977    55 H    0.973
                            56 H    0.973
    26   6 C    3.901 --    29 C    1.396    23 C    1.222    27 O    1.101
    27   8 O    2.254 --    26 C    1.101    28 C    0.979
    28   6 C    3.933 --    27 O    0.979    58 H    0.977    59 H    0.974
                            60 H    0.973
    29   6 C    3.960 --    26 C    1.396    20 C    1.380    61 H    0.963
    30   6 C    3.951 --    17 N    0.997    64 H    0.978    62 H    0.967
                            63 H    0.951
    31   6 C    3.960 --    33 C    1.009    32 C    1.008    65 H    0.960
                             3 C    0.937
    32   6 C    3.975 --    31 C    1.008    68 H    0.981    67 H    0.980
                            66 H    0.973
    33   6 C    3.981 --    31 C    1.009    70 H    0.983    71 H    0.980
                            69 H    0.977
    34   1 H    0.999 --     5 C    0.970
    35   1 H    0.988 --     8 C    0.974
    36   1 H    0.995 --     8 C    0.979
    37   1 H    0.989 --     8 C    0.974
    38   1 H    0.987 --    11 C    0.963
    39   1 H    0.988 --    11 C    0.969
    40   1 H    0.983 --    11 C    0.973
    41   1 H    0.998 --    12 C    0.973
    42   1 H    0.998 --    13 C    0.971
    43   1 H    0.994 --    14 C    0.969
    44   1 H    0.996 --    14 C    0.973
    45   1 H    0.994 --    15 C    0.959
    46   1 H    0.972 --    15 C    0.927
    47   1 H    0.984 --     2 C    0.902
    48   1 H    0.995 --    16 C    0.957
    49   1 H    0.991 --    18 C    0.964
    50   1 H    0.994 --    18 C    0.968
    51   1 H    0.996 --    19 C    0.972
    52   1 H    0.996 --    19 C    0.972
    53   1 H    0.997 --    21 C    0.968
    54   1 H    0.995 --    22 C    0.963
    55   1 H    0.992 --    25 C    0.973
    56   1 H    0.992 --    25 C    0.973
    57   1 H    0.993 --    25 C    0.977
    58   1 H    0.993 --    28 C    0.977
    59   1 H    0.993 --    28 C    0.974
    60   1 H    0.993 --    28 C    0.973
    61   1 H    0.997 --    29 C    0.963
    62   1 H    0.986 --    30 C    0.967
    63   1 H    0.985 --    30 C    0.951
    64   1 H    0.994 --    30 C    0.978
    65   1 H    0.991 --    31 C    0.960
    66   1 H    0.990 --    32 C    0.973
    67   1 H    0.996 --    32 C    0.980
    68   1 H    0.994 --    32 C    0.981
    69   1 H    0.993 --    33 C    0.977
    70   1 H    0.997 --    33 C    0.983
    71   1 H    0.993 --    33 C    0.980
    72   1 H    0.970 --     1 N    0.942
 ---------------------------------------------------------------------------

molecular dipole:
                 x           y           z       tot (Debye)
 q only:       -0.458      -1.402      -0.570
   full:       -0.507      -1.555      -0.483       4.335

           -------------------------------------------------
          | TOTAL ENERGY              -99.225441876048 Eh   |
          | GRADIENT NORM               0.003349514307 Eh/α |
          | HOMO-LUMO GAP               0.611324395810 eV   |
           -------------------------------------------------

 * finished run on 2024/04/06 at 11:12:16.740
