   * xtb version 6.6.1 (8d0f1dd) compiled by 'conda@1efc2f54142f' on 2023-08-01
          program call               : xtb struc.xyz --opt loose --input .xc1 --gfn2

   ID    Z sym.   atoms
    1    6 C      1, 3, 5-7, 10, 11, 14
    2    7 N      2, 4, 9, 13
    3    8 O      8, 12
    4    1 H      15-25
constraining bond 5 18 to    5.1400000 Å, actual value:    3.2287314 Å

          :  Hamiltonian                  GFN2-xTB          :
 * total energy  :   -35.7228282 Eh     change       -0.6633627E-10 Eh
 * total energy  :   -38.6713884 Eh     change       -0.2948560E+01 Eh
 * total energy  :   -40.5698523 Eh     change       -0.1898464E+01 Eh
 * total energy  :   -41.5346672 Eh     change       -0.9648149E+00 Eh
 * total energy  :   -41.8159233 Eh     change       -0.2812560E+00 Eh
 * total energy  :   -41.8653707 Eh     change       -0.4944745E-01 Eh
 * total energy  :   -41.9003172 Eh     change       -0.3494655E-01 Eh
 * total energy  :   -41.9422898 Eh     change       -0.4197253E-01 Eh
 * total energy  :   -41.9738670 Eh     change       -0.3157725E-01 Eh
 * total energy  :   -41.9969587 Eh     change       -0.2309168E-01 Eh
 * total energy  :   -42.0549380 Eh     change       -0.1152594E-02 Eh
 * total energy  :   -42.0576995 Eh     change       -0.2761533E-02 Eh
 * total energy  :   -42.0585877 Eh     change       -0.8881997E-03 Eh
 * total energy  :   -42.0594279 Eh     change       -0.8402087E-03 Eh
 * total energy  :   -42.0598221 Eh     change       -0.3941673E-03 Eh
 * total energy  :   -42.0601674 Eh     change       -0.3452378E-03 Eh
 * total energy  :   -42.0609840 Eh     change       -0.8166814E-03 Eh
 * total energy  :   -42.0613202 Eh     change       -0.3361343E-03 Eh
 * total energy  :   -42.0613607 Eh     change       -0.4050144E-04 Eh
   *** GEOMETRY OPTIMIZATION CONVERGED AFTER 24 ITERATIONS ***

 final structure:
================
25
 xtb: 6.6.1 (8d0f1dd)
C            3.15468440508891        1.09715091663400        0.01760380101399
N            2.19412887684327        0.02857731798982       -0.00030313125532
C            2.47902664030003       -1.27817496170060       -0.00860906301576
N            1.30227747572565       -1.95209156545738       -0.00756548897038
C            0.25708469875443       -1.06659043709228        0.00080777366825
C            0.83207870208070        0.19951354225244        0.00684403922057
C            0.01665398085556        1.39867107309984       -0.00174555089484
O            0.42775370993413        2.53400161634939       -0.01485192428549
N           -1.34297512843658        1.08711215306982        0.00164702702619
C           -2.28326722387984        2.20007386349357       -0.00163309702381
C           -1.93201868599635       -0.16439037139444        0.00430082433397
O           -3.12081187104413       -0.31846910880627        0.00731639567832
N           -1.06515676865710       -1.28108656394312        0.00162263490197
C           -1.63249028289564       -2.61138217520310       -0.00206557474884
H            3.65506806042597        1.13491641521967        0.98651018752179
H            3.90363421173430        0.93427037625240       -0.75650193648555
H            2.64101409708125        2.04214778079152       -0.15339979382574
H            5.33990937714639       -1.80030440985828       -0.01802466511176
H           -1.71325691386979        3.12594036298844        0.00592762560183
H           -2.91266131057134        2.15008269157469       -0.89012512078460
H           -2.92624000572996        2.14264689595745        0.87652332579593
H           -1.31575806312550       -3.16278213565157        0.88443677216602
H           -1.32954316027043       -3.15231548850583       -0.89986828571606
H           -2.71728353601860       -2.50817712650395        0.00657303425198
H            1.24858022862467       -2.96110211995623       -0.01424819116267

          :  Hamiltonian                  GFN2-xTB          :
         :: total energy             -42.061360670920 Eh    ::
         :: gradient norm              0.003554261979 Eh/a0 ::
         :: HOMO-LUMO gap              0.518131726179 eV    ::
         :: SCC energy               -42.566281341558 Eh    ::
         :: -> dispersion             -0.022621266938 Eh    ::
         :: repulsion energy           0.504796292044 Eh    ::

    * Orbital Energies and Occupations

         #    Occupation            Energy/Eh            Energy/eV
      -------------------------------------------------------------
         1        2.0000           -0.8961752             -24.3862
       ...           ...                  ...                  ...
        25        2.0000           -0.6649419             -18.0940
        26        2.0000           -0.6630741             -18.0432
        27        2.0000           -0.6365107             -17.3203
        28        2.0000           -0.6318743             -17.1942
        29        2.0000           -0.6255853             -17.0230
        30        1.9999           -0.6159229             -16.7601
        31        1.9996           -0.6067304             -16.5100
        32        1.9995           -0.6053354             -16.4720
        33        1.9957           -0.5885711             -16.0158
        34        1.9741           -0.5743189             -15.6280
        35        1.9462           -0.5684146             -15.4673
        36        1.8198           -0.5583061             -15.1923
        37        1.6574           -0.5524797             -15.0337 (HOMO)
        38        0.6079           -0.5334387             -14.5156 (LUMO)
        39        0.0000           -0.4204986             -11.4423
        40                         -0.3925975             -10.6831
        41                         -0.3737361             -10.1699
        42                         -0.2925384              -7.9604
        43                         -0.2087057              -5.6792
        44                         -0.1698315              -4.6213
        45                         -0.1414950              -3.8503
        46                         -0.1302814              -3.5451
        47                         -0.0686989              -1.8694
        48                         -0.0381797              -1.0389
       ...                                ...                  ...
        67                          0.5491013              14.9418
      -------------------------------------------------------------
                  HL-Gap            0.0190410 Eh            0.5181 eV

     #   Z          covCN         q      C6AA      α(0)
     1   6 C        3.692    -0.086    22.334     6.762
     2   7 N        2.845     0.077    19.909     6.627
     3   6 C        2.061    -0.051    32.340     9.186
     4   7 N        2.813    -0.062    22.431     7.034
     5   6 C        3.006     0.117    25.402     8.268
     6   6 C        3.095    -0.009    28.138     8.694
     7   6 C        2.764     0.274    22.365     7.745
     8   8 O        0.858    -0.343    20.575     6.082
     9   7 N        2.745    -0.079    22.778     7.088
    10   6 C        3.710    -0.062    21.837     6.678
    11   6 C        2.729     0.319    21.576     7.605
    12   8 O        0.859    -0.342    20.557     6.079
    13   7 N        2.738    -0.042    22.049     6.974
    14   6 C        3.697    -0.071    22.033     6.714
    15   1 H        0.924     0.105     1.737     2.061
    16   1 H        0.925     0.104     1.747     2.067
    17   1 H        0.925     0.123     1.589     1.971
    18   1 H        0.000     0.173     3.109     3.224
    19   1 H        0.925     0.115     1.650     2.009
    20   1 H        0.925     0.104     1.752     2.070
    21   1 H        0.925     0.104     1.749     2.068
    22   1 H        0.924     0.093     1.852     2.128
    23   1 H        0.924     0.093     1.850     2.127
    24   1 H        0.925     0.128     1.548     1.945
    25   1 H        0.860     0.218     1.020     1.582

Wiberg/Mayer (AO) data.
largest (>0.10) Wiberg bond orders for each atom

     #   Z sym  total        # sym  WBO       # sym  WBO       # sym  WBO
 ---------------------------------------------------------------------------
     1   6 C    3.916 --     2 N    0.995    17 H    0.961    16 H    0.961
                            15 H    0.953
     2   7 N    3.656 --     3 C    1.359     6 C    1.179     1 C    0.995
     3   6 C    3.007 --     2 N    1.359     4 N    1.294    18 H    0.183
     4   7 N    3.589 --     3 C    1.294     5 C    1.187    25 H    0.924
     5   6 C    3.910 --     6 C    1.315    13 N    1.227     4 N    1.187
     6   6 C    3.821 --     5 C    1.315     2 N    1.179     7 C    1.062
     7   6 C    3.953 --     8 O    1.692     9 N    1.101     6 C    1.062
     8   8 O    2.010 --     7 C    1.692     9 N    0.138
     9   7 N    3.537 --    11 C    1.125     7 C    1.101    10 C    0.970
                             8 O    0.138    12 O    0.131
    10   6 C    3.899 --     9 N    0.970    19 H    0.968    21 H    0.958
                            20 H    0.958
    11   6 C    3.955 --    12 O    1.707     9 N    1.125    13 N    1.031
    12   8 O    2.026 --    11 C    1.707     9 N    0.131    13 N    0.106
    13   7 N    3.491 --     5 C    1.227    11 C    1.031    14 C    0.980
                            12 O    0.106
    14   6 C    3.912 --    13 N    0.980    24 H    0.964    22 H    0.961
                            23 H    0.961
    15   1 H    0.980 --     1 C    0.953
    16   1 H    0.983 --     1 C    0.961
    17   1 H    0.982 --     1 C    0.961
    18   1 H    0.213 --     3 C    0.183
    19   1 H    0.986 --    10 C    0.968
    20   1 H    0.977 --    10 C    0.958
    21   1 H    0.977 --    10 C    0.958
    22   1 H    0.978 --    14 C    0.961
    23   1 H    0.978 --    14 C    0.961
    24   1 H    0.983 --    14 C    0.964
    25   1 H    0.952 --     4 N    0.924
 ---------------------------------------------------------------------------

molecular dipole:
                 x           y           z       tot (Debye)
 q only:        2.535      -1.958       0.003
   full:        2.358      -2.242       0.011       8.270

           -------------------------------------------------
          | TOTAL ENERGY              -42.061360670920 Eh   |
          | GRADIENT NORM               0.003554261979 Eh/α |
          | HOMO-LUMO GAP               0.518131726179 eV   |
           -------------------------------------------------

 * finished run on 2024/06/05 at 19:57:58.747
