   * xtb version 6.6.1 (8d0f1dd) compiled by 'conda@1efc2f54142f' on 2023-08-01
          program call               : xtb xtbopt.xyz --opt crude --input .xc2 --gfn2

   ID    Z sym.   atoms
    1    6 C      1, 3, 5-7, 10, 11, 14
    2    7 N      2, 4, 9, 13
    3    8 O      8, 12
    4    1 H      15-25

          :  Hamiltonian                  GFN2-xTB          :
 * total energy  :   -42.0613961 Eh     change       -0.4670397E-10 Eh
 * total energy  :   -42.0695317 Eh     change       -0.8135607E-02 Eh
 * total energy  :   -42.0952518 Eh     change       -0.2572009E-01 Eh
 * total energy  :   -42.1561131 Eh     change       -0.6086129E-01 Eh
 * total energy  :   -42.2351751 Eh     change       -0.7906201E-01 Eh
 * total energy  :   -42.2035204 Eh     change        0.3165470E-01 Eh
 * total energy  :   -42.2431831 Eh     change       -0.3966264E-01 Eh
 * total energy  :   -42.2386384 Eh     change        0.4544701E-02 Eh
 * total energy  :   -42.2450114 Eh     change       -0.6372995E-02 Eh
 * total energy  :   -42.2452199 Eh     change       -0.2085012E-03 Eh
   *** GEOMETRY OPTIMIZATION CONVERGED AFTER 10 ITERATIONS ***

 final structure:
================
25
 xtb: 6.6.1 (8d0f1dd)
C            3.21501754653149        1.14108749688727        0.01770770628483
N            2.26994499288105        0.05464711640311        0.00006024772566
C            2.54906002321323       -1.23529700547300       -0.00813688574059
N            1.40499340691026       -1.95363680616971       -0.00816070027185
C            0.35801535325802       -1.07685503991517        0.00037304527777
C            0.90722706915707        0.19510699630629        0.00603579136689
C            0.07887498824308        1.39332984414674       -0.00285320042587
O            0.49185603200371        2.52613300092583       -0.01651180330830
N           -1.26965240388387        1.06415728213086        0.00154866300660
C           -2.22933849834850        2.16320962008340       -0.00175318527745
C           -1.84289978560274       -0.19406044019925        0.00430408822713
O           -3.02733813884531       -0.36280025038045        0.00739310558494
N           -0.96155808618864       -1.30665336383057        0.00134954218978
C           -1.53475782987776       -2.63951354342702       -0.00244853299137
H            3.71134457735662        1.19305140951989        0.98754196423377
H            3.96883827566449        1.00003660214505       -0.75535013495481
H            2.67925809591168        2.07481077715537       -0.15228707680143
H            3.53787201661863       -1.65375057187519       -0.01470535132101
H           -1.67329645232542        3.09669476190948        0.00582581663278
H           -2.85481382993677        2.10178343563573       -0.89101647964472
H           -2.86787345235381        2.09408567011606        0.87753260426946
H           -1.23156035817615       -3.19155640551302        0.88681252174100
H           -1.24453948491046       -3.18123784077371       -0.90241420569641
H           -2.61804106025689       -2.52206963458253        0.00590537926359
H            1.34379851705681       -2.96246456962497       -0.01558130146392

          :  Hamiltonian                  GFN2-xTB          :
         :: total energy             -42.245219856923 Eh    ::
         :: gradient norm              0.002691487251 Eh/a0 ::
         :: HOMO-LUMO gap              3.243891207465 eV    ::
         :: SCC energy               -42.776170941363 Eh    ::
         :: -> dispersion             -0.022655413022 Eh    ::
         :: repulsion energy           0.530836963944 Eh    ::

    * Orbital Energies and Occupations

         #    Occupation            Energy/Eh            Energy/eV
      -------------------------------------------------------------
         1        2.0000           -0.9216887             -25.0804
       ...           ...                  ...                  ...
        25        2.0000           -0.6684611             -18.1898
        26        2.0000           -0.6639513             -18.0670
        27        2.0000           -0.6557811             -17.8447
        28        2.0000           -0.6379689             -17.3600
        29        2.0000           -0.6303788             -17.1535
        30        2.0000           -0.6250140             -17.0075
        31        2.0000           -0.6237707             -16.9737
        32        2.0000           -0.6188297             -16.8392
        33        2.0000           -0.5947509             -16.1840
        34        1.9999           -0.5766270             -15.6908
        35        1.9996           -0.5615134             -15.2796
        36        1.9994           -0.5582193             -15.1899
        37        1.9993           -0.5577072             -15.1760 (HOMO)
        38        0.0017           -0.4384964             -11.9321 (LUMO)
        39        0.0000           -0.4061816             -11.0528
        40        0.0000           -0.3721840             -10.1276
        41                         -0.2882504              -7.8437
        42                         -0.2074515              -5.6450
        43                         -0.2018169              -5.4917
        44                         -0.1461405              -3.9767
        45                         -0.1320160              -3.5923
        46                         -0.0859664              -2.3393
        47                         -0.0495805              -1.3492
        48                         -0.0371902              -1.0120
       ...                                ...                  ...
        67                          0.5632543              15.3269
      -------------------------------------------------------------
                  HL-Gap            0.1192108 Eh            3.2439 eV

     #   Z          covCN         q      C6AA      α(0)
     1   6 C        3.692    -0.098    22.563     6.797
     2   7 N        2.838     0.096    19.587     6.573
     3   6 C        3.068     0.056    26.675     8.469
     4   7 N        2.802    -0.056    22.325     7.018
     5   6 C        3.043     0.117    25.380     8.263
     6   6 C        3.136    -0.026    28.424     8.726
     7   6 C        2.764     0.276    22.334     7.739
     8   8 O        0.858    -0.368    21.044     6.150
     9   7 N        2.746    -0.085    22.902     7.108
    10   6 C        3.711    -0.063    21.842     6.679
    11   6 C        2.728     0.318    21.591     7.607
    12   8 O        0.860    -0.356    20.813     6.117
    13   7 N        2.738    -0.061    22.420     7.032
    14   6 C        3.696    -0.073    22.072     6.721
    15   1 H        0.924     0.113     1.672     2.022
    16   1 H        0.925     0.108     1.711     2.046
    17   1 H        0.925     0.141     1.451     1.884
    18   1 H        0.926     0.130     1.537     1.939
    19   1 H        0.925     0.111     1.684     2.029
    20   1 H        0.925     0.096     1.818     2.108
    21   1 H        0.925     0.097     1.813     2.106
    22   1 H        0.925     0.081     1.967     2.193
    23   1 H        0.925     0.081     1.966     2.193
    24   1 H        0.925     0.129     1.541     1.941
    25   1 H        0.860     0.233     0.952     1.528

Wiberg/Mayer (AO) data.
largest (>0.10) Wiberg bond orders for each atom

     #   Z sym  total        # sym  WBO       # sym  WBO       # sym  WBO
 ---------------------------------------------------------------------------
     1   6 C    3.911 --     2 N    0.982    16 H    0.963    17 H    0.959
                            15 H    0.954
     2   7 N    3.736 --     3 C    1.429     6 C    1.175     1 C    0.982
     3   6 C    3.928 --     2 N    1.429     4 N    1.283    18 H    0.951
     4   7 N    3.610 --     3 C    1.283     5 C    1.188    25 H    0.917
     5   6 C    3.962 --     6 C    1.355    13 N    1.230     4 N    1.188
     6   6 C    3.934 --     5 C    1.355     2 N    1.175     7 C    1.051
     7   6 C    3.966 --     8 O    1.702     9 N    1.120     6 C    1.051
     8   8 O    2.072 --     7 C    1.702     9 N    0.160
     9   7 N    3.579 --    11 C    1.124     7 C    1.120    10 C    0.965
                             8 O    0.160    12 O    0.138
    10   6 C    3.920 --    19 H    0.970    21 H    0.968    20 H    0.968
                             9 N    0.965
    11   6 C    3.960 --    12 O    1.723     9 N    1.124    13 N    1.022
    12   8 O    2.084 --    11 C    1.723     9 N    0.138    13 N    0.124
    13   7 N    3.567 --     5 C    1.230    11 C    1.022    14 C    0.973
                            12 O    0.124
    14   6 C    3.925 --    13 N    0.973    22 H    0.972    23 H    0.972
                            24 H    0.963
    15   1 H    0.987 --     1 C    0.954
    16   1 H    0.988 --     1 C    0.963
    17   1 H    0.980 --     1 C    0.959
    18   1 H    0.982 --     3 C    0.951
    19   1 H    0.987 --    10 C    0.970
    20   1 H    0.990 --    10 C    0.968
    21   1 H    0.989 --    10 C    0.968
    22   1 H    0.992 --    14 C    0.972
    23   1 H    0.992 --    14 C    0.972
    24   1 H    0.983 --    14 C    0.963
    25   1 H    0.945 --     4 N    0.917
 ---------------------------------------------------------------------------

molecular dipole:
                 x           y           z       tot (Debye)
 q only:        2.748      -2.060       0.007
   full:        3.059      -2.601       0.012      10.205

           -------------------------------------------------
          | TOTAL ENERGY              -42.245219856923 Eh   |
          | GRADIENT NORM               0.002691487251 Eh/α |
          | HOMO-LUMO GAP               3.243891207465 eV   |
           -------------------------------------------------

 * finished run on 2024/06/05 at 19:57:59.167
