   * xtb version 6.6.1 (8d0f1dd) compiled by 'conda@1efc2f54142f' on 2023-08-01
          program call               : xtb struc.xyz --opt loose --input .xc1 --gfn2

   ID    Z sym.   atoms
    1    6 C      1, 3, 5-7, 10, 11, 14
    2    7 N      2, 4, 9, 13
    3    8 O      8, 12
    4    1 H      15-25
constraining bond 2 7 to    4.9200000 Å, actual value:    2.5746944 Å

          :  Hamiltonian                  GFN2-xTB          :
 * total energy  :   -32.4388058 Eh     change       -0.2401990E-09 Eh
 * total energy  :   -36.1753187 Eh     change       -0.3736513E+01 Eh
 * total energy  :   -39.0821685 Eh     change       -0.2906850E+01 Eh
 * total energy  :   -40.8449455 Eh     change       -0.1762777E+01 Eh
 * total energy  :   -41.6190984 Eh     change       -0.7741530E+00 Eh
 * total energy  :   -41.7437345 Eh     change       -0.1246360E+00 Eh
 * total energy  :   -41.7685583 Eh     change       -0.2482383E-01 Eh
 * total energy  :   -41.8081415 Eh     change       -0.3958324E-01 Eh
 * total energy  :   -41.8367491 Eh     change       -0.2860757E-01 Eh
 * total energy  :   -41.8673905 Eh     change       -0.3064138E-01 Eh
 * total energy  :   -42.0839638 Eh     change       -0.4652334E-01 Eh
 * total energy  :   -42.1173020 Eh     change       -0.3333824E-01 Eh
 * total energy  :   -42.1299109 Eh     change       -0.1260885E-01 Eh
 * total energy  :   -42.1365422 Eh     change       -0.6631313E-02 Eh
 * total energy  :   -42.1394361 Eh     change       -0.2893917E-02 Eh
 * total energy  :   -42.1405857 Eh     change       -0.1149648E-02 Eh
 * total energy  :   -42.1408001 Eh     change       -0.2143754E-03 Eh
 * total energy  :   -42.1408615 Eh     change       -0.6142677E-04 Eh
 * total energy  :   -42.1408856 Eh     change       -0.2400945E-04 Eh
   *** GEOMETRY OPTIMIZATION CONVERGED AFTER 30 ITERATIONS ***

 final structure:
================
25
 xtb: 6.6.1 (8d0f1dd)
C            3.61739513277055        0.56176689801972        0.04878306675418
N            3.78860919984345       -0.82853256323655        0.02454265740331
C            2.84626883183869       -1.67027976741611        0.00128933530027
N            1.46520957293665       -1.53090998578356       -0.01140187112193
C            0.51968980418373       -0.51688603930759       -0.01437898334874
C            0.73374230750705        0.83191785443937       -0.02822833929299
C           -0.32966571535126        1.83832510741179       -0.04540035357396
O           -0.17601909687433        3.03550499559972       -0.07674189828244
N           -1.60613847139248        1.26199864053779       -0.01143718996745
C           -2.75462483168119        2.14651203098484        0.00037088446385
C           -1.87677135499693       -0.08476665072675       -0.00033087655212
O           -3.01441798465152       -0.49275711600226        0.01498201999129
N           -0.79638395550386       -0.97048900046932       -0.00663599297136
C           -1.14655282433818       -2.37954625893778       -0.00321523350501
H            4.04253521203403        0.97063693792689        0.96941880887525
H            4.13575593187615        1.01452688709198       -0.80157542357066
H            2.49841041359358        0.88601896558786        0.00169745961045
H            3.14109001339866       -2.71348959538780       -0.01184161873921
H           -2.39639748472332        3.17550940809433        0.00446044981285
H           -3.37448390205007        1.96741418592831       -0.88172700583482
H           -3.36334965081571        1.95328944292635        0.88698947775350
H           -0.78249705706162       -2.87986390094357        0.89712782095158
H           -0.79213298303690       -2.88127962472404       -0.90646561918739
H           -2.23741034124004       -2.43534697267902        0.00285933160619
H            1.01857074783485       -2.44103533733460       -0.02196928867457

          :  Hamiltonian                  GFN2-xTB          :
         :: total energy             -42.140885557046 Eh    ::
         :: gradient norm              0.002451839287 Eh/a0 ::
         :: HOMO-LUMO gap              1.074656768904 eV    ::
         :: SCC energy               -42.642927952627 Eh    ::
         :: -> dispersion             -0.021457750342 Eh    ::
         :: repulsion energy           0.501658358512 Eh    ::

    * Orbital Energies and Occupations

         #    Occupation            Energy/Eh            Energy/eV
      -------------------------------------------------------------
         1        2.0000           -0.8934307             -24.3115
       ...           ...                  ...                  ...
        25        1.9967           -0.6693530             -18.2140
        26        1.9964           -0.6675035             -18.1637
        27        1.9922           -0.6490803             -17.6624
        28        1.9901           -0.6432171             -17.5028
        29        1.9871           -0.6369804             -17.3331
        30        1.9817           -0.6284996             -17.1023
        31        1.9746           -0.6206329             -16.8883
        32        1.9348           -0.5978184             -16.2675
        33        1.8988           -0.5869244             -15.9710
        34        1.8705           -0.5807030             -15.8017
        35        1.8594           -0.5785971             -15.7444
        36        1.8202           -0.5722597             -15.5720
        37        1.6620           -0.5551053             -15.1052 (HOMO)
        38        0.9649           -0.5156124             -14.0305 (LUMO)
        39        0.0624           -0.4356710             -11.8552
        40        0.0107           -0.3931651             -10.6986
        41        0.0062           -0.3803458             -10.3497
        42        0.0002           -0.2983667              -8.1190
        43        0.0000           -0.2129479              -5.7946
        44        0.0000           -0.1751289              -4.7655
        45        0.0000           -0.1520258              -4.1368
        46                         -0.1095146              -2.9800
        47                         -0.0576524              -1.5688
        48                         -0.0447484              -1.2177
       ...                                ...                  ...
        67                          0.5234003              14.2424
      -------------------------------------------------------------
                  HL-Gap            0.0394929 Eh            1.0747 eV

     #   Z          covCN         q      C6AA      α(0)
     1   6 C        3.690    -0.048    21.620     6.654
     2   7 N        1.821    -0.096    23.873     7.240
     3   6 C        2.773     0.112    25.508     8.272
     4   7 N        2.689    -0.112    23.448     7.192
     5   6 C        2.818     0.137    24.998     8.192
     6   6 C        1.986    -0.117    34.305     9.459
     7   6 C        2.762     0.285    22.171     7.711
     8   8 O        0.858    -0.293    19.658     5.944
     9   7 N        2.742    -0.059    22.373     7.025
    10   6 C        3.706    -0.059    21.794     6.673
    11   6 C        2.723     0.321    21.553     7.600
    12   8 O        0.860    -0.348    20.660     6.094
    13   7 N        2.749    -0.062    22.447     7.037
    14   6 C        3.699    -0.075    22.107     6.724
    15   1 H        0.924     0.128     1.552     1.948
    16   1 H        0.924     0.129     1.543     1.943
    17   1 H        0.911     0.125     1.578     1.965
    18   1 H        0.925     0.111     1.690     2.033
    19   1 H        0.925     0.130     1.535     1.937
    20   1 H        0.924     0.119     1.618     1.989
    21   1 H        0.924     0.119     1.619     1.990
    22   1 H        0.924     0.093     1.852     2.128
    23   1 H        0.924     0.093     1.853     2.129
    24   1 H        0.924     0.141     1.455     1.886
    25   1 H        0.860     0.227     0.980     1.551

Wiberg/Mayer (AO) data.
largest (>0.10) Wiberg bond orders for each atom

     #   Z sym  total        # sym  WBO       # sym  WBO       # sym  WBO
 ---------------------------------------------------------------------------
     1   6 C    3.742 --     2 N    1.106    16 H    0.918    15 H    0.917
                            17 H    0.740
     2   7 N    2.998 --     3 C    1.715     1 C    1.106
     3   6 C    3.891 --     2 N    1.715     4 N    1.146    18 H    0.934
     4   7 N    3.412 --     5 C    1.148     3 C    1.146    25 H    0.900
     5   6 C    3.867 --     6 C    1.468     4 N    1.148    13 N    1.118
     6   6 C    2.995 --     5 C    1.468     7 C    1.075    17 H    0.183
     7   6 C    3.898 --     8 O    1.686     6 C    1.075     9 N    1.054
     8   8 O    1.929 --     7 C    1.686     9 N    0.102
     9   7 N    3.436 --    11 C    1.133     7 C    1.054    10 C    0.978
                            12 O    0.112     8 O    0.102
    10   6 C    3.839 --     9 N    0.978    19 H    0.948    21 H    0.937
                            20 H    0.936
    11   6 C    3.944 --    12 O    1.643     9 N    1.133    13 N    1.084
    12   8 O    1.940 --    11 C    1.643     9 N    0.112    13 N    0.108
    13   7 N    3.441 --     5 C    1.118    11 C    1.084    14 C    0.982
                            12 O    0.108
    14   6 C    3.893 --    13 N    0.982    22 H    0.954    23 H    0.954
                            24 H    0.941
    15   1 H    0.951 --     1 C    0.917
    16   1 H    0.950 --     1 C    0.918
    17   1 H    0.935 --     1 C    0.740     6 C    0.183
    18   1 H    0.974 --     3 C    0.934
    19   1 H    0.966 --    10 C    0.948
    20   1 H    0.952 --    10 C    0.936
    21   1 H    0.953 --    10 C    0.937
    22   1 H    0.976 --    14 C    0.954
    23   1 H    0.976 --    14 C    0.954
    24   1 H    0.970 --    14 C    0.941
    25   1 H    0.946 --     4 N    0.900
 ---------------------------------------------------------------------------

molecular dipole:
                 x           y           z       tot (Debye)
 q only:        1.444      -1.512       0.036
   full:        1.215      -1.804       0.033       5.528

           -------------------------------------------------
          | TOTAL ENERGY              -42.140885557046 Eh   |
          | GRADIENT NORM               0.002451839287 Eh/α |
          | HOMO-LUMO GAP               1.074656768904 eV   |
           -------------------------------------------------

 * finished run on 2024/06/05 at 19:58:41.916
