   * xtb version 6.6.1 (8d0f1dd) compiled by 'conda@1efc2f54142f' on 2023-08-01
          program call               : xtb xtbopt.xyz --opt crude --input .xc2 --gfn2

   ID    Z sym.   atoms
    1    6 C      1, 3, 5-7, 10, 11, 14
    2    7 N      2, 4, 9, 13
    3    8 O      8, 12
    4    1 H      15-25
########################################################################
[WARNING] Please study the warnings concerning your input carefully
-1- readin_getIntValue: could not parse ''
########################################################################

          :  Hamiltonian                  GFN2-xTB          :
 * total energy  :   -42.1411941 Eh     change       -0.7105427E-14 Eh
 * total energy  :   -42.1471205 Eh     change       -0.5926325E-02 Eh
 * total energy  :   -42.1536384 Eh     change       -0.6517953E-02 Eh
 * total energy  :   -42.1586722 Eh     change       -0.5033765E-02 Eh
 * total energy  :   -42.1646398 Eh     change       -0.5967580E-02 Eh
 * total energy  :   -42.1702893 Eh     change       -0.5649557E-02 Eh
 * total energy  :   -42.1737682 Eh     change       -0.3478843E-02 Eh
 * total energy  :   -42.1789459 Eh     change       -0.5177710E-02 Eh
 * total energy  :   -42.1811330 Eh     change       -0.2187123E-02 Eh
 * total energy  :   -42.1832865 Eh     change       -0.2153551E-02 Eh
 * total energy  :   -42.1859580 Eh     change       -0.1395436E-02 Eh
 * total energy  :   -42.1869864 Eh     change       -0.1028401E-02 Eh
 * total energy  :   -42.1875130 Eh     change       -0.5266024E-03 Eh
 * total energy  :   -42.1879508 Eh     change       -0.4378402E-03 Eh
 * total energy  :   -42.1883439 Eh     change       -0.3930801E-03 Eh
 * total energy  :   -42.1887504 Eh     change       -0.4064881E-03 Eh
 * total energy  :   -42.1886319 Eh     change        0.1185290E-03 Eh
 * total energy  :   -42.1892069 Eh     change       -0.5750594E-03 Eh
 * total energy  :   -42.1894592 Eh     change       -0.2522993E-03 Eh
   *** GEOMETRY OPTIMIZATION CONVERGED AFTER 20 ITERATIONS ***

 final structure:
================
25
 xtb: 6.6.1 (8d0f1dd)
C            4.19196652245437        0.54389041557796        0.03189338562780
N            3.50197321849819       -0.51443203296624       -0.01950403366387
C            2.75760115054375       -1.53714111200631        0.00363005839006
N            1.40213628235810       -1.60111625177501        0.00950780158620
C            0.44105711625214       -0.60457328184835        0.00442720537367
C            0.72272768466505        0.73395103445187        0.00865407279619
C           -0.31433781396165        1.72808339996812        0.00070870723512
O           -0.10317244903474        2.92453188861843        0.00416478576368
N           -1.61451289123805        1.22006235145047       -0.00797332733847
C           -2.72233714020363        2.15566193739663       -0.01582721577159
C           -1.93174905019371       -0.11160929198821       -0.01262957862883
O           -3.07426416198647       -0.50070250189550       -0.02271960590346
N           -0.86368578730864       -1.02695640325074       -0.00472955190710
C           -1.23161582231256       -2.42977522406236       -0.00542880609677
H            4.49168155427124        0.95857691754287        0.98655793036410
H            4.57696753399137        0.98465929148265       -0.87889854408760
H            1.72279593289774        1.11788759125529        0.01339044729582
H            3.25042489013863       -2.50599879092068       -0.00086334642438
H           -2.30762036583702        3.16274758292472       -0.01630249087820
H           -3.33846632857685        1.99867523731294       -0.90243190970293
H           -3.34733938626972        2.00360366268457        0.86535713105494
H           -0.88147071981302       -2.93367936012184        0.89784819657983
H           -0.86989938362338       -2.93642292647737       -0.90260989411547
H           -2.32266292128129       -2.46957754848197       -0.01256002957252
H            1.02423384967009       -2.54210804327189        0.00751022992384

          :  Hamiltonian                  GFN2-xTB          :
         :: total energy             -42.189459244121 Eh    ::
         :: gradient norm              0.007570711653 Eh/a0 ::
         :: HOMO-LUMO gap              2.732482690650 eV    ::
         :: SCC energy               -42.740966126215 Eh    ::
         :: -> dispersion             -0.021514943110 Eh    ::
         :: repulsion energy           0.551446981219 Eh    ::

    * Orbital Energies and Occupations

         #    Occupation            Energy/Eh            Energy/eV
      -------------------------------------------------------------
         1        2.0000           -0.8733889             -23.7661
       ...           ...                  ...                  ...
        25        1.9987           -0.6634297             -18.0528
        26        1.9983           -0.6560768             -17.8528
        27        1.9975           -0.6472012             -17.6112
        28        1.9963           -0.6380830             -17.3631
        29        1.9956           -0.6341138             -17.2551
        30        1.9932           -0.6235376             -16.9673
        31        1.9926           -0.6216065             -16.9148
        32        1.9807           -0.5987710             -16.2934
        33        1.9658           -0.5850476             -15.9200
        34        1.9513           -0.5764245             -15.6853
        35        1.9003           -0.5587992             -15.2057
        36        1.8766           -0.5534250             -15.0595
        37        1.8399           -0.5467875             -14.8788 (HOMO)
        38        0.2871           -0.4463706             -12.1464 (LUMO)
        39        0.1945           -0.4358646             -11.8605
        40        0.0211           -0.3809275             -10.3656
        41        0.0139           -0.3710089             -10.0957
        42        0.0003           -0.2796018              -7.6084
        43        0.0000           -0.1945024              -5.2927
        44        0.0000           -0.1664094              -4.5282
        45        0.0000           -0.1266361              -3.4459
        46        0.0000           -0.0987039              -2.6859
        47        0.0000           -0.0912539              -2.4831
        48                         -0.0444150              -1.2086
       ...                                ...                  ...
        67                          0.6870342              18.6952
      -------------------------------------------------------------
                  HL-Gap            0.1004169 Eh            2.7325 eV

     #   Z          covCN         q      C6AA      α(0)
     1   6 C        2.764     0.003    27.942     8.657
     2   7 N        1.825    -0.012    22.182     6.979
     3   6 C        2.752     0.102    25.729     8.306
     4   7 N        2.693    -0.095    23.099     7.138
     5   6 C        2.830     0.126    25.233     8.231
     6   6 C        2.909    -0.111    30.809     9.102
     7   6 C        2.770     0.272    22.400     7.751
     8   8 O        0.859    -0.338    20.472     6.066
     9   7 N        2.742    -0.065    22.499     7.045
    10   6 C        3.706    -0.060    21.800     6.674
    11   6 C        2.724     0.318    21.597     7.608
    12   8 O        0.860    -0.361    20.913     6.131
    13   7 N        2.748    -0.059    22.384     7.027
    14   6 C        3.698    -0.076    22.129     6.728
    15   1 H        0.925     0.134     1.506     1.919
    16   1 H        0.925     0.136     1.492     1.910
    17   1 H        0.926     0.095     1.827     2.113
    18   1 H        0.925     0.122     1.599     1.977
    19   1 H        0.925     0.122     1.595     1.975
    20   1 H        0.924     0.108     1.713     2.047
    21   1 H        0.924     0.108     1.714     2.047
    22   1 H        0.924     0.083     1.946     2.182
    23   1 H        0.924     0.083     1.946     2.182
    24   1 H        0.924     0.136     1.493     1.911
    25   1 H        0.860     0.228     0.972     1.544

Wiberg/Mayer (AO) data.
largest (>0.10) Wiberg bond orders for each atom

     #   Z sym  total        # sym  WBO       # sym  WBO       # sym  WBO
 ---------------------------------------------------------------------------
     1   6 C    3.624 --     2 N    1.678    16 H    0.925    15 H    0.923
     2   7 N    3.400 --     1 C    1.678     3 C    1.574     4 N    0.104
     3   6 C    3.834 --     2 N    1.574     4 N    1.215    18 H    0.915
     4   7 N    3.492 --     3 C    1.215     5 C    1.117    25 H    0.903
                             2 N    0.104
     5   6 C    3.871 --     6 C    1.463    13 N    1.166     4 N    1.117
     6   6 C    3.781 --     5 C    1.463     7 C    1.121    17 H    0.952
     7   6 C    3.919 --     8 O    1.646     6 C    1.121     9 N    1.073
     8   8 O    1.908 --     7 C    1.646     9 N    0.109
     9   7 N    3.488 --    11 C    1.144     7 C    1.073    10 C    0.979
                            12 O    0.121     8 O    0.109
    10   6 C    3.872 --     9 N    0.979    19 H    0.955    20 H    0.948
                            21 H    0.948
    11   6 C    3.944 --    12 O    1.655     9 N    1.144    13 N    1.059
    12   8 O    1.971 --    11 C    1.655     9 N    0.121    13 N    0.112
    13   7 N    3.486 --     5 C    1.166    11 C    1.059    14 C    0.985
                            12 O    0.112
    14   6 C    3.916 --    13 N    0.985    22 H    0.961    23 H    0.961
                            24 H    0.950
    15   1 H    0.967 --     1 C    0.923
    16   1 H    0.967 --     1 C    0.925
    17   1 H    0.987 --     6 C    0.952
    18   1 H    0.968 --     3 C    0.915
    19   1 H    0.974 --    10 C    0.955
    20   1 H    0.965 --    10 C    0.948
    21   1 H    0.965 --    10 C    0.948
    22   1 H    0.982 --    14 C    0.961
    23   1 H    0.982 --    14 C    0.961
    24   1 H    0.977 --    14 C    0.950
    25   1 H    0.946 --     4 N    0.903
 ---------------------------------------------------------------------------

molecular dipole:
                 x           y           z       tot (Debye)
 q only:        2.837      -1.908       0.023
   full:        3.047      -2.209       0.032       9.566

           -------------------------------------------------
          | TOTAL ENERGY              -42.189459244121 Eh   |
          | GRADIENT NORM               0.007570711653 Eh/α |
          | HOMO-LUMO GAP               2.732482690650 eV   |
           -------------------------------------------------

 * finished run on 2024/06/05 at 19:58:42.623
