   * xtb version 6.6.1 (8d0f1dd) compiled by 'conda@1efc2f54142f' on 2023-08-01
          program call               : xtb struc.xyz --opt loose --input .xc1 --gfn2

   ID    Z sym.   atoms
    1    6 C      1, 3, 5-7, 10, 11, 14
    2    7 N      2, 4, 9, 13
    3    8 O      8, 12
    4    1 H      15-25
constraining bond 2 9 to    5.8400000 Å, actual value:    3.6850118 Å

          :  Hamiltonian                  GFN2-xTB          :
 * total energy  :   -25.6639285 Eh     change       -0.6650680E-10 Eh
 * total energy  :   -33.5057025 Eh     change       -0.7841774E+01 Eh
 * total energy  :   -38.2850631 Eh     change       -0.4779361E+01 Eh
 * total energy  :   -40.7755760 Eh     change       -0.2490513E+01 Eh
 * total energy  :   -41.6002145 Eh     change       -0.8246385E+00 Eh
 * total energy  :   -41.7023914 Eh     change       -0.1021768E+00 Eh
 * total energy  :   -41.7506169 Eh     change       -0.4822554E-01 Eh
 * total energy  :   -41.8216055 Eh     change       -0.7098862E-01 Eh
 * total energy  :   -41.8636875 Eh     change       -0.4208203E-01 Eh
 * total energy  :   -41.8993462 Eh     change       -0.3565862E-01 Eh
 * total energy  :   -42.1550899 Eh     change       -0.1461805E-02 Eh
 * total energy  :   -42.1561593 Eh     change       -0.1069398E-02 Eh
 * total energy  :   -42.1571398 Eh     change       -0.9804534E-03 Eh
 * total energy  :   -42.1578602 Eh     change       -0.7204721E-03 Eh
 * total energy  :   -42.1582993 Eh     change       -0.4391010E-03 Eh
 * total energy  :   -42.1585376 Eh     change       -0.2382435E-03 Eh
 * total energy  :   -42.1586390 Eh     change       -0.1013939E-03 Eh
 * total energy  :   -42.1586881 Eh     change       -0.4912148E-04 Eh
 * total energy  :   -42.1587136 Eh     change       -0.2551144E-04 Eh
   *** GEOMETRY OPTIMIZATION CONVERGED AFTER 62 ITERATIONS ***

 final structure:
================
25
 xtb: 6.6.1 (8d0f1dd)
C            4.49469556395121        0.26766221214329       -0.00650946147759
N            3.73570312569230       -0.71839869941534       -0.18832693082946
C            2.78877074538370       -1.54896129705520        0.00825384241346
N            1.43833953770745       -1.45442688952635        0.01721748364532
C            0.44605852378541       -0.46106549368390       -0.00806487142251
C            0.64515020234335        0.88198828633387       -0.00405025866327
C           -0.46639509505738        1.82447446564012        0.00311993522126
O           -0.31296420086932        3.02404719000476        0.00536370627082
N           -1.75087919406232        1.26028795385715        0.00885440940783
C           -2.91016083185877        2.12744016620950        0.00838252660944
C           -1.97329121398035       -0.09237024393558       -0.00250457947906
O           -3.08359965309767       -0.55804328340721       -0.00298927031357
N           -0.84221596138753       -0.94270095912503       -0.01092614012548
C           -1.14581590682865       -2.36427579726755       -0.02058978499501
H            4.58571194312839        0.75575837433873        0.95826509462524
H            5.13222906695191        0.59264214051560       -0.81655693849006
H            1.62847292478321        1.31834317842858       -0.00211110213843
H            3.12551025344657       -2.58345310562679        0.07733254590729
H           -2.55836992410372        3.15632044999095        0.04512344649601
H           -3.49852528549733        1.95963069860441       -0.89458849839850
H           -3.53760053944957        1.90572347037224        0.87209313000781
H           -0.78985429759646       -2.85869507049256        0.88617969462293
H           -0.76043035461213       -2.85061933887874       -0.91913662918276
H           -2.23434389463596       -2.45047591356502       -0.03655174591019
H            1.00423597996379       -2.37259395285981        0.05389201409887

          :  Hamiltonian                  GFN2-xTB          :
         :: total energy             -42.158713612265 Eh    ::
         :: gradient norm              0.001988008105 Eh/a0 ::
         :: HOMO-LUMO gap              2.131071224613 eV    ::
         :: SCC energy               -42.705547507552 Eh    ::
         :: -> dispersion             -0.021101879905 Eh    ::
         :: repulsion energy           0.546731546121 Eh    ::

    * Orbital Energies and Occupations

         #    Occupation            Energy/Eh            Energy/eV
      -------------------------------------------------------------
         1        2.0000           -0.8759834             -23.8367
       ...           ...                  ...                  ...
        25        1.9999           -0.6610976             -17.9894
        26        1.9999           -0.6546343             -17.8135
        27        1.9998           -0.6464503             -17.5908
        28        1.9998           -0.6406995             -17.4343
        29        1.9996           -0.6334254             -17.2364
        30        1.9991           -0.6200255             -16.8718
        31        1.9991           -0.6192162             -16.8497
        32        1.9946           -0.5915262             -16.0962
        33        1.9937           -0.5891499             -16.0316
        34        1.9781           -0.5692882             -15.4911
        35        1.9326           -0.5511134             -14.9966
        36        1.9168           -0.5476491             -14.9023
        37        1.9017           -0.5448895             -14.8272 (HOMO)
        38        0.2419           -0.4665741             -12.6961 (LUMO)
        39        0.0417           -0.4370431             -11.8925
        40        0.0014           -0.3835153             -10.4360
        41        0.0005           -0.3660181              -9.9599
        42        0.0000           -0.2788274              -7.5873
        43                         -0.2064924              -5.6189
        44                         -0.1723685              -4.6904
        45                         -0.1297251              -3.5300
        46                         -0.1155601              -3.1446
        47                         -0.0888388              -2.4174
        48                         -0.0506838              -1.3792
       ...                                ...                  ...
        67                          0.6526027              17.7582
      -------------------------------------------------------------
                  HL-Gap            0.0783154 Eh            2.1311 eV

     #   Z          covCN         q      C6AA      α(0)
     1   6 C        2.766     0.019    27.574     8.600
     2   7 N        1.822    -0.004    22.029     6.954
     3   6 C        2.750     0.108    25.587     8.283
     4   7 N        2.689    -0.099    23.183     7.151
     5   6 C        2.821     0.127    25.203     8.226
     6   6 C        2.905    -0.104    30.629     9.075
     7   6 C        2.767     0.275    22.356     7.744
     8   8 O        0.859    -0.339    20.502     6.071
     9   7 N        2.738    -0.069    22.582     7.058
    10   6 C        3.703    -0.059    21.793     6.675
    11   6 C        2.720     0.319    21.578     7.604
    12   8 O        0.860    -0.370    21.083     6.156
    13   7 N        2.749    -0.069    22.584     7.058
    14   6 C        3.698    -0.078    22.168     6.734
    15   1 H        0.925     0.133     1.515     1.925
    16   1 H        0.926     0.144     1.431     1.871
    17   1 H        0.926     0.092     1.857     2.131
    18   1 H        0.925     0.127     1.561     1.954
    19   1 H        0.925     0.115     1.653     2.011
    20   1 H        0.924     0.101     1.774     2.083
    21   1 H        0.924     0.102     1.767     2.079
    22   1 H        0.924     0.078     2.000     2.212
    23   1 H        0.924     0.079     1.992     2.207
    24   1 H        0.924     0.137     1.484     1.905
    25   1 H        0.860     0.236     0.939     1.518

Wiberg/Mayer (AO) data.
largest (>0.10) Wiberg bond orders for each atom

     #   Z sym  total        # sym  WBO       # sym  WBO       # sym  WBO
 ---------------------------------------------------------------------------
     1   6 C    3.721 --     2 N    1.758    16 H    0.933    15 H    0.924
     2   7 N    3.486 --     1 C    1.758     3 C    1.556     4 N    0.125
     3   6 C    3.877 --     2 N    1.556     4 N    1.265    18 H    0.914
     4   7 N    3.518 --     3 C    1.265     5 C    1.080    25 H    0.892
                             2 N    0.125
     5   6 C    3.927 --     6 C    1.538    13 N    1.170     4 N    1.080
     6   6 C    3.867 --     5 C    1.538     7 C    1.089    17 H    0.959
     7   6 C    3.946 --     8 O    1.691     6 C    1.089     9 N    1.082
     8   8 O    1.980 --     7 C    1.691     9 N    0.125
     9   7 N    3.526 --    11 C    1.148     7 C    1.082    10 C    0.978
                            12 O    0.130     8 O    0.125
    10   6 C    3.899 --     9 N    0.978    19 H    0.965    21 H    0.956
                            20 H    0.955
    11   6 C    3.958 --    12 O    1.676     9 N    1.148    13 N    1.047
    12   8 O    2.016 --    11 C    1.676     9 N    0.130    13 N    0.119
    13   7 N    3.509 --     5 C    1.170    11 C    1.047    14 C    0.984
                            12 O    0.119
    14   6 C    3.928 --    13 N    0.984    23 H    0.965    22 H    0.963
                            24 H    0.950
    15   1 H    0.974 --     1 C    0.924
    16   1 H    0.974 --     1 C    0.933
    17   1 H    0.990 --     6 C    0.959
    18   1 H    0.974 --     3 C    0.914
    19   1 H    0.983 --    10 C    0.965
    20   1 H    0.975 --    10 C    0.955
    21   1 H    0.976 --    10 C    0.956
    22   1 H    0.988 --    14 C    0.963
    23   1 H    0.988 --    14 C    0.965
    24   1 H    0.980 --    14 C    0.950
    25   1 H    0.943 --     4 N    0.892
 ---------------------------------------------------------------------------

molecular dipole:
                 x           y           z       tot (Debye)
 q only:        3.482      -2.046       0.051
   full:        3.721      -2.293       0.104      11.112

           -------------------------------------------------
          | TOTAL ENERGY              -42.158713612265 Eh   |
          | GRADIENT NORM               0.001988008105 Eh/α |
          | HOMO-LUMO GAP               2.131071224613 eV   |
           -------------------------------------------------

 * finished run on 2024/06/05 at 19:59:07.188
