   * xtb version 6.6.1 (8d0f1dd) compiled by 'conda@1efc2f54142f' on 2023-08-01
          program call               : xtb xtbopt.xyz --opt crude --input .xc2 --gfn2

   ID    Z sym.   atoms
    1    6 C      1, 3, 5-7, 10, 11, 14
    2    7 N      2, 4, 9, 13
    3    8 O      8, 12
    4    1 H      15-25
########################################################################
[WARNING] Please study the warnings concerning your input carefully
-1- readin_getIntValue: could not parse ''
########################################################################

          :  Hamiltonian                  GFN2-xTB          :
 * total energy  :   -42.1587763 Eh     change       -0.4263256E-13 Eh
 * total energy  :   -42.1616874 Eh     change       -0.2911060E-02 Eh
 * total energy  :   -42.1611502 Eh     change        0.5371951E-03 Eh
 * total energy  :   -42.1646841 Eh     change       -0.3533904E-02 Eh
 * total energy  :   -42.1655573 Eh     change       -0.8732195E-03 Eh
 * total energy  :   -42.1664936 Eh     change       -0.9362446E-03 Eh
 * total energy  :   -42.1667604 Eh     change       -0.2668837E-03 Eh
 * total energy  :   -42.1669954 Eh     change       -0.2349988E-03 Eh
   *** GEOMETRY OPTIMIZATION CONVERGED AFTER 8 ITERATIONS ***

 final structure:
================
25
 xtb: 6.6.1 (8d0f1dd)
C            4.29317176441565        0.45588374221858       -0.01158952811690
N            3.40585140900966       -0.41438940436550       -0.21859046215993
C            2.72789449257655       -1.45717803336310        0.05922278762423
N            1.39397624074686       -1.59021429904606        0.02749297871928
C            0.41628934025186       -0.59264853712046       -0.01447766182582
C            0.70932691133374        0.73195435401160       -0.02520357247585
C           -0.33293701444661        1.73632036810755       -0.02226112323436
O           -0.12036538489565        2.92682841380279       -0.01787084845358
N           -1.62860418769265        1.22380003078400       -0.01102996266988
C           -2.74374725630203        2.15435732031880        0.01397739229577
C           -1.95318345105578       -0.10845018468025       -0.01832193575434
O           -3.09166114692533       -0.49502150937533       -0.01675382122250
N           -0.88079720394024       -1.02216442605095       -0.02318394129894
C           -1.24176831148324       -2.42820528203726       -0.03603348121246
H            4.61320549723039        0.72957174224319        0.99424821748123
H            4.72609122924861        0.97596459532843       -0.85959672128311
H            1.71439160783368        1.10302097537482       -0.02345807969642
H            3.27851052025301       -2.38581778764194        0.19538029487871
H           -2.33719683091738        3.16276419643810        0.05225530023199
H           -3.35460947666597        2.02353151813933       -0.87936248135177
H           -3.36540523475037        1.95776468685307        0.88738472875135
H           -0.92081432285232       -2.93197851453316        0.87792278204285
H           -0.84815479815120       -2.93044181468136       -0.92113197283582
H           -2.33182487417329       -2.47162940345660       -0.07661247621020
H            1.03279199545239       -2.53538420566830        0.09876520567689

          :  Hamiltonian                  GFN2-xTB          :
         :: total energy             -42.166995435244 Eh    ::
         :: gradient norm              0.008193895670 Eh/a0 ::
         :: HOMO-LUMO gap              2.170767617667 eV    ::
         :: SCC energy               -42.721590824344 Eh    ::
         :: -> dispersion             -0.021542712679 Eh    ::
         :: repulsion energy           0.554543507076 Eh    ::

    * Orbital Energies and Occupations

         #    Occupation            Energy/Eh            Energy/eV
      -------------------------------------------------------------
         1        2.0000           -0.8833623             -24.0375
       ...           ...                  ...                  ...
        25        1.9999           -0.6616128             -18.0034
        26        1.9999           -0.6572766             -17.8854
        27        1.9998           -0.6439189             -17.5219
        28        1.9997           -0.6399621             -17.4143
        29        1.9996           -0.6331813             -17.2297
        30        1.9991           -0.6199376             -16.8694
        31        1.9990           -0.6180275             -16.8174
        32        1.9944           -0.5910807             -16.0841
        33        1.9942           -0.5906034             -16.0711
        34        1.9782           -0.5695021             -15.4969
        35        1.9339           -0.5515571             -15.0086
        36        1.9147           -0.5473702             -14.8947
        37        1.9059           -0.5457400             -14.8503 (HOMO)
        38        0.2322           -0.4659658             -12.6796 (LUMO)
        39        0.0477           -0.4393434             -11.9551
        40        0.0015           -0.3838247             -10.4444
        41        0.0005           -0.3656107              -9.9488
        42        0.0000           -0.2760077              -7.5106
        43                         -0.1936212              -5.2687
        44                         -0.1708778              -4.6498
        45                         -0.1209717              -3.2918
        46                         -0.1070014              -2.9117
        47                         -0.0812958              -2.2122
        48                         -0.0407913              -1.1100
       ...                                ...                  ...
        67                          0.6061065              16.4930
      -------------------------------------------------------------
                  HL-Gap            0.0797742 Eh            2.1708 eV

     #   Z          covCN         q      C6AA      α(0)
     1   6 C        2.766     0.016    27.627     8.608
     2   7 N        1.827    -0.009    22.121     6.969
     3   6 C        2.757     0.110    25.549     8.277
     4   7 N        2.695    -0.085    22.891     7.106
     5   6 C        2.834     0.128    25.196     8.226
     6   6 C        2.909    -0.111    30.819     9.103
     7   6 C        2.769     0.276    22.324     7.738
     8   8 O        0.859    -0.344    20.588     6.084
     9   7 N        2.742    -0.072    22.637     7.066
    10   6 C        3.707    -0.060    21.808     6.675
    11   6 C        2.724     0.320    21.565     7.602
    12   8 O        0.860    -0.368    21.043     6.150
    13   7 N        2.747    -0.063    22.465     7.040
    14   6 C        3.698    -0.076    22.132     6.729
    15   1 H        0.924     0.133     1.516     1.925
    16   1 H        0.925     0.145     1.427     1.868
    17   1 H        0.926     0.093     1.845     2.124
    18   1 H        0.925     0.126     1.566     1.957
    19   1 H        0.925     0.115     1.654     2.011
    20   1 H        0.925     0.102     1.771     2.081
    21   1 H        0.925     0.101     1.775     2.083
    22   1 H        0.924     0.078     2.002     2.213
    23   1 H        0.924     0.079     1.986     2.204
    24   1 H        0.924     0.134     1.507     1.920
    25   1 H        0.860     0.232     0.957     1.532

Wiberg/Mayer (AO) data.
largest (>0.10) Wiberg bond orders for each atom

     #   Z sym  total        # sym  WBO       # sym  WBO       # sym  WBO
 ---------------------------------------------------------------------------
     1   6 C    3.722 --     2 N    1.749    16 H    0.935    15 H    0.924
     2   7 N    3.478 --     1 C    1.749     3 C    1.544     4 N    0.123
     3   6 C    3.880 --     2 N    1.544     4 N    1.284    18 H    0.910
     4   7 N    3.537 --     3 C    1.284     5 C    1.081    25 H    0.902
                             2 N    0.123
     5   6 C    3.929 --     6 C    1.530    13 N    1.181     4 N    1.081
     6   6 C    3.868 --     5 C    1.530     7 C    1.094    17 H    0.952
     7   6 C    3.948 --     8 O    1.682     6 C    1.094     9 N    1.088
     8   8 O    1.979 --     7 C    1.682     9 N    0.126
     9   7 N    3.527 --    11 C    1.143     7 C    1.088    10 C    0.975
                            12 O    0.131     8 O    0.126
    10   6 C    3.898 --     9 N    0.975    19 H    0.965    21 H    0.957
                            20 H    0.956
    11   6 C    3.959 --    12 O    1.679     9 N    1.143    13 N    1.049
    12   8 O    2.019 --    11 C    1.679     9 N    0.131    13 N    0.118
    13   7 N    3.520 --     5 C    1.181    11 C    1.049    14 C    0.983
                            12 O    0.118
    14   6 C    3.928 --    13 N    0.983    23 H    0.967    22 H    0.965
                            24 H    0.955
    15   1 H    0.974 --     1 C    0.924
    16   1 H    0.975 --     1 C    0.935
    17   1 H    0.990 --     6 C    0.952
    18   1 H    0.971 --     3 C    0.910
    19   1 H    0.983 --    10 C    0.965
    20   1 H    0.975 --    10 C    0.956
    21   1 H    0.976 --    10 C    0.957
    22   1 H    0.988 --    14 C    0.965
    23   1 H    0.988 --    14 C    0.967
    24   1 H    0.981 --    14 C    0.955
    25   1 H    0.945 --     4 N    0.902
 ---------------------------------------------------------------------------

molecular dipole:
                 x           y           z       tot (Debye)
 q only:        3.401      -2.060       0.105
   full:        3.694      -2.417       0.207      11.234

           -------------------------------------------------
          | TOTAL ENERGY              -42.166995435244 Eh   |
          | GRADIENT NORM               0.008193895670 Eh/α |
          | HOMO-LUMO GAP               2.170767617667 eV   |
           -------------------------------------------------

 * finished run on 2024/06/05 at 19:59:07.539
