   * xtb version 6.6.1 (8d0f1dd) compiled by 'conda@1efc2f54142f' on 2023-08-01
          program call               : xtb struc.xyz --opt loose --input .xc1 --gfn2

   ID    Z sym.   atoms
    1    7 N      1, 17
    2    6 C      2-6, 8, 9, 11-16, 18-23, 25, 26, 28-33
    3    8 O      7, 10, 24, 27
    4    1 H      34-72
constraining bond 69 71 to    3.2800000 Å, actual value:    1.7569702 Å

          :  Hamiltonian                  GFN2-xTB          :
 * total energy  :   -98.9899554 Eh     change       -0.4035485E-08 Eh
 * total energy  :   -99.1527708 Eh     change       -0.1628154E+00 Eh
 * total energy  :   -99.2267124 Eh     change       -0.7394162E-01 Eh
 * total energy  :   -99.2451164 Eh     change       -0.1840399E-01 Eh
 * total energy  :   -99.2480968 Eh     change       -0.2980400E-02 Eh
 * total energy  :   -99.2488106 Eh     change       -0.7138207E-03 Eh
 * total energy  :   -99.2494135 Eh     change       -0.6028829E-03 Eh
 * total energy  :   -99.2497596 Eh     change       -0.3461406E-03 Eh
 * total energy  :   -99.2501635 Eh     change       -0.4039184E-03 Eh
 * total energy  :   -99.2505927 Eh     change       -0.4291216E-03 Eh
 * total energy  :   -99.3965462 Eh     change       -0.5820597E-03 Eh
 * total energy  :   -99.3972665 Eh     change       -0.7202644E-03 Eh
 * total energy  :   -99.3978191 Eh     change       -0.5526096E-03 Eh
 * total energy  :   -99.3982340 Eh     change       -0.4149443E-03 Eh
 * total energy  :   -99.3984547 Eh     change       -0.2206358E-03 Eh
 * total energy  :   -99.3985546 Eh     change       -0.9990112E-04 Eh
 * total energy  :   -99.3986280 Eh     change       -0.7341631E-04 Eh
 * total energy  :   -99.3987057 Eh     change       -0.7771471E-04 Eh
 * total energy  :   -99.3987536 Eh     change       -0.4793888E-04 Eh
   *** GEOMETRY OPTIMIZATION CONVERGED AFTER 79 ITERATIONS ***

 final structure:
================
72
 xtb: 6.6.1 (8d0f1dd)
N           -1.05937692996916        3.13744861519571        1.04488744431949
C           -1.43547059391150        1.79509882779927        0.70347481447894
C           -2.83703629781235        1.65389810091484        0.01986672588096
C           -3.44090751201279        0.26329563345250        0.15443728031838
C           -4.34654694315076       -0.19147998890184       -0.80708512901288
C           -4.96580086932095       -1.42749618930927       -0.71251759798950
O           -5.82994629256279       -1.93628746612533       -1.61318953850000
C           -6.13778596197940       -1.20267954761195       -2.77463472560053
C           -4.70671924406916       -2.25752868627844        0.41096869334059
O           -5.36122143944886       -3.43234720210690        0.42997202657084
C           -5.20488404235177       -4.28965644336560        1.53710016469836
C           -3.83053293776358       -1.79427436200138        1.37994300909957
C           -3.21073424672003       -0.55911682428420        1.25234627314164
C           -2.44417408821081        1.94100177465408       -1.44055384898337
C           -1.22252847114733        1.05003428323846       -1.64061336434520
C           -0.40677185181185        1.25988801218968       -0.35062411695670
N            0.35149349968895        0.14699755553862        0.14622618957553
C            1.77188686917565        0.29869956156805        0.27517113055224
C            2.55574949985353        0.11698771527595       -1.04884417583902
C            4.02583025502330        0.22135698764987       -0.78552535940436
C            4.71004594201757        1.41252069329145       -0.98255558301456
C            6.06239093389389        1.51226423660793       -0.69792847981813
C            6.76215048298201        0.42215409961374       -0.19732989677823
O            8.06889374632296        0.40401138502799        0.11822034690029
C            8.83902115667869        1.57049635016457       -0.05936440829485
C            6.06866337355470       -0.80384315962952        0.01464213584105
O            6.81931550771666       -1.80888688987512        0.50396978513979
C            6.22250737809208       -3.06020863388610        0.74929689081122
C            4.71732881708444       -0.87923126956840       -0.28340956288527
C           -0.13450942304461       -1.19556136445661       -0.01275757621033
C           -3.87498633156026        2.66432113714620        0.61231738111580
C           -4.32378035122866        2.27889355924663        2.02401867231207
C           -3.43197922275620        4.06529218684848        0.58298929432567
H           -4.59497736961871        0.43388655639948       -1.64731831674935
H           -6.62924316036696       -0.25461947042455       -2.53486045495516
H           -6.82518938056649       -1.82847021979698       -3.34037788379087
H           -5.24401305822134       -1.01181215280257       -3.37736683755348
H           -5.53823874511131       -3.81129697781582        2.46300175658055
H           -5.83548012897212       -5.15190359755883        1.32919598669775
H           -4.16666342100094       -4.61738522204151        1.64774560812049
H           -3.62219429665419       -2.38970878924593        2.25385404123023
H           -2.55774423112519       -0.25189958277253        2.05227934801958
H           -3.22537891558684        1.74018283011230       -2.16694985897534
H           -2.15754258497859        2.98684685736722       -1.55009936733631
H           -1.54174870821327        0.01371671000876       -1.73467822656559
H           -0.64973023086574        1.31570463930248       -2.52781689896187
H           -1.36929201671783        1.21253554823976        1.62222503763110
H            0.30762859484524        2.07034843128240       -0.51875250082265
H            2.13070300233358       -0.44240754195130        0.99427848424436
H            1.98460278931225        1.29052037569034        0.68086823784263
H            2.24155524235926        0.88143331117422       -1.76050518431514
H            2.31871811341819       -0.86361824530971       -1.46387246899450
H            4.18970352368977        2.27451464849354       -1.37110313643258
H            6.56751649729268        2.44866931153083       -0.86987309938434
H            8.46608246656761        2.39370624311788        0.55739604368938
H            8.86061956318702        1.87999597958375       -1.10850418628160
H            9.84548038494600        1.30703530098954        0.26017486808226
H            7.01842199413443       -3.69216721101346        1.13861389938333
H            5.42388658281061       -2.98398764958173        1.49399890371023
H            5.82574448489922       -3.50234826098104       -0.16978440224706
H            4.18400344133959       -1.80512825687561       -0.13540884579436
H            0.06287668928137       -1.60785216266336       -1.01086862979235
H           -1.20687249995031       -1.22489933758308        0.16994694276381
H            0.35816023488832       -1.83507212042139        0.71967129223280
H           -4.74751262024603        2.57299450393377       -0.05780879606619
H           -3.47811327280251        2.26511124962270        2.70740961082683
H           -4.79388871863722        1.30013287787753        2.03785068841621
H           -5.04672590674861        3.00361788287561        2.38988239103094
H           -0.83291023671521        3.70547451916427        0.23956477992587
H           -3.15017840230520        4.53654394529371       -0.33954127477806
H           -3.71650979005928        4.71803193465582        1.39281486672676
H           -1.71862472407018        3.61164997658666        1.65306753045842

          :  Hamiltonian                  GFN2-xTB          :
         :: total energy             -99.398753640938 Eh    ::
         :: gradient norm              0.002053149939 Eh/a0 ::
         :: HOMO-LUMO gap              0.974039139309 eV    ::
         :: SCC energy              -100.737855877101 Eh    ::
         :: -> dispersion             -0.077065540979 Eh    ::
         :: repulsion energy           1.337880308235 Eh    ::

    * Orbital Energies and Occupations

         #    Occupation            Energy/Eh            Energy/eV
      -------------------------------------------------------------
         1        2.0000           -0.8106414             -22.0587
       ...           ...                  ...                  ...
        78        1.9983           -0.5337937             -14.5253
        79        1.9980           -0.5309352             -14.4475
        80        1.9976           -0.5281232             -14.3710
        81        1.9975           -0.5276262             -14.3574
        82        1.9972           -0.5261105             -14.3162
        83        1.9956           -0.5189505             -14.1214
        84        1.9952           -0.5173099             -14.0767
        85        1.9762           -0.4919259             -13.3860
        86        1.9679           -0.4871177             -13.2551
        87        1.9656           -0.4860089             -13.2250
        88        1.8463           -0.4612942             -12.5525
        89        1.8280           -0.4593574             -12.4998
        90        1.6990           -0.4493355             -12.2270 (HOMO)
        91        0.7410           -0.4135402             -11.2530 (LUMO)
        92        0.0026           -0.3165774              -8.6145
        93        0.0023           -0.3148412              -8.5673
        94        0.0017           -0.3102667              -8.4428
        95        0.0015           -0.3076625              -8.3719
        96        0.0000           -0.1918797              -5.2213
        97        0.0000           -0.1853761              -5.0443
        98                         -0.1151137              -3.1324
        99                         -0.0829680              -2.2577
       100                         -0.0767186              -2.0876
       101                         -0.0630537              -1.7158
       ...                                ...                  ...
       171                          0.5776273              15.7180
      -------------------------------------------------------------
                  HL-Gap            0.0357953 Eh            0.9740 eV

     #   Z          covCN         q      C6AA      α(0)
     1   7 N        2.633    -0.300    27.726     7.820
     2   6 C        3.806     0.034    19.997     6.366
     3   6 C        3.921     0.001    20.498     6.435
     4   6 C        2.967     0.000    28.015     8.682
     5   6 C        2.923    -0.079    29.969     8.977
     6   6 C        2.861     0.131    25.122     8.216
     7   8 O        1.706    -0.225    17.740     5.687
     8   6 C        3.644     0.027    20.455     6.501
     9   6 C        2.864     0.132    25.105     8.213
    10   8 O        1.706    -0.222    17.691     5.679
    11   6 C        3.645     0.025    20.484     6.505
    12   6 C        2.913    -0.072    29.804     8.952
    13   6 C        2.923    -0.050    29.240     8.868
    14   6 C        3.840    -0.065    21.716     6.629
    15   6 C        3.823    -0.071    21.832     6.649
    16   6 C        3.811     0.022    20.194     6.397
    17   7 N        2.727    -0.099    23.184     7.151
    18   6 C        3.750    -0.008    20.778     6.501
    19   6 C        3.807    -0.071    21.854     6.655
    20   6 C        2.969     0.009    27.822     8.652
    21   6 C        2.921    -0.044    29.100     8.846
    22   6 C        2.913    -0.065    29.630     8.926
    23   6 C        2.864     0.135    25.048     8.204
    24   8 O        1.706    -0.216    17.592     5.663
    25   6 C        3.645     0.024    20.510     6.509
    26   6 C        2.862     0.135    25.046     8.203
    27   8 O        1.706    -0.220    17.649     5.672
    28   6 C        3.645     0.026    20.477     6.504
    29   6 C        2.920    -0.077    29.923     8.970
    30   6 C        3.695    -0.054    21.732     6.669
    31   6 C        3.853    -0.005    20.640     6.462
    32   6 C        3.757    -0.117    22.789     6.806
    33   6 C        2.839    -0.096    30.395     9.035
    34   1 H        0.926     0.051     2.304     2.374
    35   1 H        0.924     0.052     2.293     2.368
    36   1 H        0.925     0.082     1.954     2.186
    37   1 H        0.924     0.050     2.314     2.379
    38   1 H        0.924     0.056     2.248     2.344
    39   1 H        0.925     0.083     1.951     2.184
    40   1 H        0.924     0.053     2.279     2.361
    41   1 H        0.926     0.056     2.250     2.346
    42   1 H        0.926     0.049     2.327     2.386
    43   1 H        0.925     0.046     2.365     2.405
    44   1 H        0.925     0.043     2.408     2.427
    45   1 H        0.925     0.050     2.317     2.380
    46   1 H        0.925     0.045     2.378     2.412
    47   1 H        0.925     0.061     2.183     2.310
    48   1 H        0.924     0.060     2.201     2.320
    49   1 H        0.924     0.056     2.244     2.342
    50   1 H        0.924     0.057     2.237     2.339
    51   1 H        0.924     0.048     2.346     2.395
    52   1 H        0.924     0.053     2.279     2.361
    53   1 H        0.926     0.050     2.315     2.379
    54   1 H        0.926     0.060     2.197     2.318
    55   1 H        0.924     0.057     2.233     2.337
    56   1 H        0.924     0.058     2.221     2.331
    57   1 H        0.925     0.084     1.940     2.178
    58   1 H        0.925     0.083     1.948     2.183
    59   1 H        0.924     0.052     2.293     2.368
    60   1 H        0.924     0.055     2.258     2.350
    61   1 H        0.926     0.052     2.294     2.369
    62   1 H        0.924     0.046     2.376     2.410
    63   1 H        0.925     0.063     2.164     2.301
    64   1 H        0.925     0.059     2.210     2.325
    65   1 H        0.923     0.077     2.012     2.218
    66   1 H        0.925     0.047     2.352     2.398
    67   1 H        0.925     0.047     2.353     2.399
    68   1 H        0.925     0.054     2.272     2.357
    69   1 H        0.860     0.163     1.318     1.798
    70   1 H        0.926     0.051     2.313     2.378
    71   1 H        0.926     0.060     2.204     2.322
    72   1 H        0.860     0.183     1.195     1.713

Wiberg/Mayer (AO) data.
largest (>0.10) Wiberg bond orders for each atom

     #   Z sym  total        # sym  WBO       # sym  WBO       # sym  WBO
 ---------------------------------------------------------------------------
     1   7 N    3.056 --     2 C    1.046    69 H    0.950    72 H    0.906
     2   6 C    3.946 --     1 N    1.046    47 H    0.949    16 C    0.938
                             3 C    0.931
     3   6 C    3.936 --     4 C    0.990    14 C    0.982     2 C    0.931
                            31 C    0.918
     4   6 C    3.940 --    13 C    1.395     5 C    1.377     3 C    0.990
     5   6 C    3.955 --     6 C    1.395     4 C    1.377    34 H    0.954
     6   6 C    3.895 --     5 C    1.395     9 C    1.218     7 O    1.103
     7   8 O    2.252 --     6 C    1.103     8 C    0.978
     8   6 C    3.931 --     7 O    0.978    36 H    0.976    37 H    0.973
                            35 H    0.972
     9   6 C    3.891 --    12 C    1.383     6 C    1.218    10 O    1.110
    10   8 O    2.254 --     9 C    1.110    11 C    0.976
    11   6 C    3.928 --    39 H    0.977    10 O    0.976    38 H    0.973
                            40 H    0.973
    12   6 C    3.958 --    13 C    1.412     9 C    1.383    41 H    0.963
    13   6 C    3.943 --    12 C    1.412     4 C    1.395    42 H    0.958
    14   6 C    3.990 --    15 C    1.006     3 C    0.982    44 H    0.970
                            43 H    0.967
    15   6 C    3.978 --    14 C    1.006    46 H    0.977    16 C    0.977
                            45 H    0.971
    16   6 C    3.964 --    17 N    1.015    15 C    0.977    48 H    0.957
                             2 C    0.938
    17   7 N    3.142 --    30 C    1.019    18 C    1.019    16 C    1.015
    18   6 C    3.961 --    17 N    1.019    50 H    0.967    49 H    0.965
                            19 C    0.950
    19   6 C    3.962 --    20 C    1.019    51 H    0.973    52 H    0.967
                            18 C    0.950
    20   6 C    3.927 --    21 C    1.392    29 C    1.377    19 C    1.019
    21   6 C    3.928 --    22 C    1.423    20 C    1.392    53 H    0.967
    22   6 C    3.949 --    21 C    1.423    23 C    1.375    54 H    0.962
    23   6 C    3.872 --    22 C    1.375    26 C    1.209    24 O    1.116
    24   8 O    2.247 --    23 C    1.116    25 C    0.975
    25   6 C    3.925 --    57 H    0.976    24 O    0.975    55 H    0.971
                            56 H    0.971
    26   6 C    3.882 --    29 C    1.393    23 C    1.209    27 O    1.109
    27   8 O    2.249 --    26 C    1.109    28 C    0.977
    28   6 C    3.929 --    27 O    0.977    58 H    0.976    59 H    0.972
                            60 H    0.972
    29   6 C    3.950 --    26 C    1.393    20 C    1.377    61 H    0.962
    30   6 C    3.965 --    17 N    1.019    64 H    0.975    63 H    0.964
                            62 H    0.959
    31   6 C    3.974 --    33 C    1.104    32 C    1.004     3 C    0.918
                            65 H    0.895
    32   6 C    3.988 --    31 C    1.004    66 H    0.983    68 H    0.983
                            67 H    0.981
    33   6 C    3.269 --    31 C    1.104    70 H    0.977    71 H    0.976
    34   1 H    0.996 --     5 C    0.954
    35   1 H    0.992 --     8 C    0.972
    36   1 H    0.992 --     8 C    0.976
    37   1 H    0.993 --     8 C    0.973
    38   1 H    0.991 --    11 C    0.973
    39   1 H    0.992 --    11 C    0.977
    40   1 H    0.992 --    11 C    0.973
    41   1 H    0.995 --    12 C    0.963
    42   1 H    0.996 --    13 C    0.958
    43   1 H    0.995 --    14 C    0.967
    44   1 H    0.997 --    14 C    0.970
    45   1 H    0.997 --    15 C    0.971
    46   1 H    0.996 --    15 C    0.977
    47   1 H    0.992 --     2 C    0.949
    48   1 H    0.994 --    16 C    0.957
    49   1 H    0.992 --    18 C    0.965
    50   1 H    0.992 --    18 C    0.967
    51   1 H    0.996 --    19 C    0.973
    52   1 H    0.994 --    19 C    0.967
    53   1 H    0.996 --    21 C    0.967
    54   1 H    0.994 --    22 C    0.962
    55   1 H    0.989 --    25 C    0.971
    56   1 H    0.989 --    25 C    0.971
    57   1 H    0.992 --    25 C    0.976
    58   1 H    0.992 --    28 C    0.976
    59   1 H    0.991 --    28 C    0.972
    60   1 H    0.991 --    28 C    0.972
    61   1 H    0.996 --    29 C    0.962
    62   1 H    0.974 --    30 C    0.959
    63   1 H    0.991 --    30 C    0.964
    64   1 H    0.991 --    30 C    0.975
    65   1 H    0.938 --    31 C    0.895
    66   1 H    0.996 --    32 C    0.983
    67   1 H    0.997 --    32 C    0.981
    68   1 H    0.996 --    32 C    0.983
    69   1 H    0.973 --     1 N    0.950
    70   1 H    0.996 --    33 C    0.977
    71   1 H    0.994 --    33 C    0.976
    72   1 H    0.965 --     1 N    0.906
 ---------------------------------------------------------------------------

molecular dipole:
                 x           y           z       tot (Debye)
 q only:       -0.021       0.745       0.092
   full:       -0.342       0.977      -0.198       2.679

           -------------------------------------------------
          | TOTAL ENERGY              -99.398753640938 Eh   |
          | GRADIENT NORM               0.002053149939 Eh/α |
          | HOMO-LUMO GAP               0.974039139309 eV   |
           -------------------------------------------------

 * finished run on 2024/04/06 at 11:15:30.340
