   * xtb version 6.6.1 (8d0f1dd) compiled by 'conda@1efc2f54142f' on 2023-08-01
          program call               : xtb struc.xyz --opt loose --input .xc1 --gfn2

   ID    Z sym.   atoms
    1    6 C      1, 3, 5-7, 10, 11, 14
    2    7 N      2, 4, 9, 13
    3    8 O      8, 12
    4    1 H      15-25
constraining bond 1 4 to    5.9200000 Å, actual value:    3.5856227 Å

          :  Hamiltonian                  GFN2-xTB          :
 * total energy  :   -32.5301197 Eh     change       -0.2401990E-09 Eh
 * total energy  :   -36.4376981 Eh     change       -0.3907578E+01 Eh
 * total energy  :   -39.2567301 Eh     change       -0.2819032E+01 Eh
 * total energy  :   -41.0445538 Eh     change       -0.1787824E+01 Eh
 * total energy  :   -41.7285831 Eh     change       -0.6840293E+00 Eh
 * total energy  :   -41.8239978 Eh     change       -0.9541468E-01 Eh
 * total energy  :   -41.8506251 Eh     change       -0.2662736E-01 Eh
 * total energy  :   -41.9219793 Eh     change       -0.7135424E-01 Eh
 * total energy  :   -41.9505554 Eh     change       -0.2857603E-01 Eh
 * total energy  :   -41.9692083 Eh     change       -0.1865292E-01 Eh
 * total energy  :   -42.1401781 Eh     change        0.6714778E-02 Eh
 * total energy  :   -42.1572763 Eh     change       -0.1709820E-01 Eh
 * total energy  :   -42.1614200 Eh     change       -0.4143706E-02 Eh
 * total energy  :   -42.1630845 Eh     change       -0.1664541E-02 Eh
 * total energy  :   -42.1643569 Eh     change       -0.1272445E-02 Eh
 * total energy  :   -42.1654562 Eh     change       -0.1099204E-02 Eh
 * total energy  :   -42.1658959 Eh     change       -0.4397420E-03 Eh
 * total energy  :   -42.1660218 Eh     change       -0.1258596E-03 Eh
 * total energy  :   -42.1660717 Eh     change       -0.4998513E-04 Eh
   *** GEOMETRY OPTIMIZATION CONVERGED AFTER 51 ITERATIONS ***

 final structure:
================
25
 xtb: 6.6.1 (8d0f1dd)
C            3.68376063780321        1.78740682081238        0.07987885717371
N            2.22445804538426       -0.45561320651764       -0.01235398359624
C            3.25527062278704        0.30978802731588       -0.01862423170435
N            0.28400875132300       -3.03510966654169       -0.02196006833920
C            0.04708878902507       -1.75998102027914       -0.00242470432994
C            0.88328590671592       -0.52071742037761       -0.00325991180850
C            0.19008692510338        0.78115730816567       -0.03316799518481
O            0.81523247443198        1.82747320076127       -0.05810230198841
N           -1.18645359190236        0.80044796134946       -0.02531037489627
C           -1.87634810440520        2.07554962711043       -0.04467357623800
C           -1.98188138971158       -0.32480000222021        0.00553711620805
O           -3.18738023148852       -0.23500990280356        0.01897694904812
N           -1.32785236820603       -1.53465278593668        0.01666523350091
C           -2.17415195171623       -2.71097854784629        0.03195289277444
H            4.32427542830455        1.88300498090875        0.95513902847411
H            4.27920720884071        2.00432873372330       -0.80498134939196
H            2.83134012354425        2.45752938715876        0.14836896838660
H            4.16357351394435       -0.29794085507972       -0.12369420743765
H           -1.13578829527335        2.87348801207531       -0.06121892757965
H           -2.51761202950063        2.13489810435915       -0.92663033564421
H           -2.51148333398633        2.16510181629006        0.83922416769415
H           -1.95521521349617       -3.31822497241507        0.91212986491294
H           -1.98481763661605       -3.32038430108514       -0.85393849078099
H           -3.21516880292246       -2.38781313408799        0.04842872429309
H            1.23299603611543       -3.38070962324063       -0.03478972564638

          :  Hamiltonian                  GFN2-xTB          :
         :: total energy             -42.166071739992 Eh    ::
         :: gradient norm              0.002660851463 Eh/a0 ::
         :: HOMO-LUMO gap              0.239069272401 eV    ::
         :: SCC energy               -42.669289721830 Eh    ::
         :: -> dispersion             -0.021186034226 Eh    ::
         :: repulsion energy           0.502536358000 Eh    ::

    * Orbital Energies and Occupations

         #    Occupation            Energy/Eh            Energy/eV
      -------------------------------------------------------------
         1        2.0000           -0.8939239             -24.3249
       ...           ...                  ...                  ...
        25        1.9954           -0.6647709             -18.0893
        26        1.9916           -0.6503699             -17.6975
        27        1.9862           -0.6383881             -17.3714
        28        1.9774           -0.6266139             -17.0510
        29        1.9761           -0.6252766             -17.0146
        30        1.9752           -0.6244196             -16.9913
        31        1.9669           -0.6174433             -16.8015
        32        1.9203           -0.5959990             -16.2180
        33        1.8886           -0.5876516             -15.9908
        34        1.8867           -0.5872317             -15.9794
        35        1.8003           -0.5726551             -15.5827
        36        1.7789           -0.5699510             -15.5092
        37        1.4815           -0.5453573             -14.8399 (HOMO)
        38        1.3274           -0.5365717             -14.6009 (LUMO)
        39        0.0458           -0.4312635             -11.7353
        40        0.0140           -0.4027150             -10.9584
        41        0.0042           -0.3743009             -10.1852
        42        0.0001           -0.2947757              -8.0213
        43        0.0000           -0.2014852              -5.4827
        44        0.0000           -0.1612660              -4.3883
        45        0.0000           -0.1326274              -3.6090
        46                         -0.0950325              -2.5860
        47                         -0.0701910              -1.9100
        48                         -0.0345475              -0.9401
       ...                                ...                  ...
        67                          0.5441609              14.8074
      -------------------------------------------------------------
                  HL-Gap            0.0087856 Eh            0.2391 eV

     #   Z          covCN         q      C6AA      α(0)
     1   6 C        3.748    -0.123    22.917     6.828
     2   7 N        1.829    -0.066    23.251     7.145
     3   6 C        2.811     0.081    26.184     8.384
     4   7 N        1.813    -0.237    27.031     7.703
     5   6 C        2.818     0.157    24.585     8.124
     6   6 C        2.877     0.026    27.417     8.584
     7   6 C        2.773     0.265    22.529     7.774
     8   8 O        0.860    -0.346    20.629     6.090
     9   7 N        2.741    -0.057    22.348     7.021
    10   6 C        3.706    -0.059    21.793     6.673
    11   6 C        2.724     0.319    21.584     7.606
    12   8 O        0.860    -0.333    20.385     6.053
    13   7 N        2.779    -0.028    21.779     6.931
    14   6 C        3.714    -0.075    22.076     6.713
    15   1 H        0.925     0.126     1.562     1.954
    16   1 H        0.925     0.127     1.559     1.953
    17   1 H        0.925     0.139     1.470     1.896
    18   1 H        0.924     0.127     1.558     1.952
    19   1 H        0.925     0.125     1.570     1.960
    20   1 H        0.924     0.120     1.613     1.986
    21   1 H        0.924     0.120     1.613     1.986
    22   1 H        0.924     0.126     1.564     1.956
    23   1 H        0.924     0.127     1.559     1.952
    24   1 H        0.925     0.136     1.494     1.911
    25   1 H        0.860     0.202     1.095     1.639

Wiberg/Mayer (AO) data.
largest (>0.10) Wiberg bond orders for each atom

     #   Z sym  total        # sym  WBO       # sym  WBO       # sym  WBO
 ---------------------------------------------------------------------------
     1   6 C    3.797 --     3 C    0.998    17 H    0.928    16 H    0.919
                            15 H    0.917
     2   7 N    3.050 --     3 C    1.649     6 C    1.286
     3   6 C    3.663 --     2 N    1.649     1 C    0.998    18 H    0.885
     4   7 N    2.713 --     5 C    1.611    25 H    0.923
     5   6 C    3.905 --     4 N    1.611    13 N    1.119     6 C    1.073
     6   6 C    3.569 --     2 N    1.286     5 C    1.073     7 C    1.033
     7   6 C    3.866 --     8 O    1.623     9 N    1.118     6 C    1.033
     8   8 O    1.873 --     7 C    1.623     9 N    0.104
     9   7 N    3.459 --     7 C    1.118    11 C    1.097    10 C    0.977
                             8 O    0.104    12 O    0.100
    10   6 C    3.844 --     9 N    0.977    19 H    0.951    21 H    0.938
                            20 H    0.937
    11   6 C    3.942 --    12 O    1.641    13 N    1.119     9 N    1.097
    12   8 O    1.927 --    11 C    1.641    13 N    0.106     9 N    0.100
    13   7 N    3.469 --    11 C    1.119     5 C    1.119    14 C    0.985
                            12 O    0.106
    14   6 C    3.836 --    13 N    0.985    24 H    0.941    22 H    0.932
                            23 H    0.931
    15   1 H    0.950 --     1 C    0.917
    16   1 H    0.951 --     1 C    0.919
    17   1 H    0.945 --     1 C    0.928
    18   1 H    0.905 --     3 C    0.885
    19   1 H    0.969 --    10 C    0.951
    20   1 H    0.953 --    10 C    0.937
    21   1 H    0.954 --    10 C    0.938
    22   1 H    0.950 --    14 C    0.932
    23   1 H    0.949 --    14 C    0.931
    24   1 H    0.962 --    14 C    0.941
    25   1 H    0.944 --     4 N    0.923
 ---------------------------------------------------------------------------

molecular dipole:
                 x           y           z       tot (Debye)
 q only:        1.487      -0.536       0.026
   full:        1.854      -0.401       0.025       4.822

           -------------------------------------------------
          | TOTAL ENERGY              -42.166071739992 Eh   |
          | GRADIENT NORM               0.002660851463 Eh/α |
          | HOMO-LUMO GAP               0.239069272401 eV   |
           -------------------------------------------------

 * finished run on 2024/06/05 at 19:58:42.521
