   * xtb version 6.6.1 (8d0f1dd) compiled by 'conda@1efc2f54142f' on 2023-08-01
          program call               : xtb xtbopt.xyz --opt crude --input .xc2 --gfn2

   ID    Z sym.   atoms
    1    6 C      1, 3, 5-7, 10, 11, 14
    2    7 N      2, 4, 9, 13
    3    8 O      8, 12
    4    1 H      15-25
########################################################################
[WARNING] Please study the warnings concerning your input carefully
-1- readin_getIntValue: could not parse ''
########################################################################

          :  Hamiltonian                  GFN2-xTB          :
 * total energy  :   -42.1666960 Eh     change       -0.1705303E-12 Eh
 * total energy  :   -42.1769319 Eh     change       -0.1023583E-01 Eh
 * total energy  :   -42.1837969 Eh     change       -0.6865003E-02 Eh
 * total energy  :   -42.1863191 Eh     change       -0.2522205E-02 Eh
 * total energy  :   -42.1873600 Eh     change       -0.1040943E-02 Eh
 * total energy  :   -42.1876754 Eh     change       -0.3153961E-03 Eh
   *** GEOMETRY OPTIMIZATION CONVERGED AFTER 6 ITERATIONS ***

 final structure:
================
25
 xtb: 6.6.1 (8d0f1dd)
C            3.58852879162100        1.50703554716946        0.11349284179233
N            2.16543190655489       -0.54869287199131       -0.07887102780014
C            3.27376298676538        0.07596434894347       -0.05903062169215
N            0.55463996682878       -2.76867551921453        0.01636217229174
C            0.06487452000202       -1.58756862743651        0.00601267928689
C            0.84763538612484       -0.36405672128525       -0.03480860958511
C            0.15924591531607        0.92074555306040       -0.06953513549323
O            0.73388207441219        1.99619990997200       -0.11791220131656
N           -1.22359645222718        0.86694389390483       -0.03498632678144
C           -1.96279262325675        2.11531543231502       -0.05055103263835
C           -1.98929250490074       -0.28715549399175        0.00770264931289
O           -3.19527495537675       -0.23014488575222        0.02853721315357
N           -1.30557689091816       -1.48522132642614        0.02390684207299
C           -2.07664118980977       -2.70824515022151        0.04358753338361
H            4.22120420869185        1.64130823630979        0.99321589818066
H            4.17685118522522        1.83668872569065       -0.74805269835306
H            2.69248730033154        2.12133904428429        0.20030234267992
H            4.13942941585880       -0.57679933577264       -0.18576738599034
H           -1.25127011283144        2.94031702229782       -0.07350584178387
H           -2.61218605374900        2.15348269730642       -0.92797469067394
H           -2.59456523872180        2.18462262849752        0.83767653031857
H           -1.81468023048183       -3.29868659278090        0.92384891677926
H           -1.84766652921814       -3.30501469216917       -0.84193439707884
H           -3.13620698733124       -2.45174351109766        0.06121776685285
H            1.55220762518843       -2.92971977001302       -0.00176179901874

          :  Hamiltonian                  GFN2-xTB          :
         :: total energy             -42.187675424139 Eh    ::
         :: gradient norm              0.005732110328 Eh/a0 ::
         :: HOMO-LUMO gap              0.374481887236 eV    ::
         :: SCC energy               -42.714320752619 Eh    ::
         :: -> dispersion             -0.021539681766 Eh    ::
         :: repulsion energy           0.526571706139 Eh    ::

    * Orbital Energies and Occupations

         #    Occupation            Energy/Eh            Energy/eV
      -------------------------------------------------------------
         1        2.0000           -0.8961833             -24.3864
       ...           ...                  ...                  ...
        25        1.9960           -0.6706033             -18.2480
        26        1.9916           -0.6527536             -17.7623
        27        1.9880           -0.6442700             -17.5315
        28        1.9769           -0.6284591             -17.1012
        29        1.9759           -0.6274777             -17.0745
        30        1.9753           -0.6269171             -17.0593
        31        1.9690           -0.6214097             -16.9094
        32        1.9222           -0.5989870             -16.2993
        33        1.8855           -0.5893504             -16.0370
        34        1.8722           -0.5865723             -15.9614
        35        1.8009           -0.5751288             -15.6501
        36        1.7614           -0.5703058             -15.5188
        37        1.5406           -0.5515617             -15.0088 (HOMO)
        38        1.3053           -0.5377998             -14.6343 (LUMO)
        39        0.0386           -0.4295224             -11.6879
        40        0.0120           -0.4014832             -10.9249
        41        0.0040           -0.3751576             -10.2086
        42        0.0001           -0.2884709              -7.8497
        43        0.0000           -0.1955130              -5.3202
        44        0.0000           -0.1417861              -3.8582
        45                         -0.1021467              -2.7796
        46                         -0.0758858              -2.0650
        47                         -0.0335343              -0.9125
        48                         -0.0327943              -0.8924
       ...                                ...                  ...
        67                          0.5635430              15.3348
      -------------------------------------------------------------
                  HL-Gap            0.0137620 Eh            0.3745 eV

     #   Z          covCN         q      C6AA      α(0)
     1   6 C        3.752    -0.132    23.101     6.854
     2   7 N        1.837    -0.086    23.669     7.210
     3   6 C        2.820     0.087    26.063     8.365
     4   7 N        1.795    -0.237    27.021     7.700
     5   6 C        2.840     0.163    24.474     8.107
     6   6 C        2.889     0.026    27.422     8.585
     7   6 C        2.766     0.265    22.522     7.772
     8   8 O        0.859    -0.341    20.530     6.075
     9   7 N        2.741    -0.059    22.382     7.026
    10   6 C        3.707    -0.060    21.799     6.674
    11   6 C        2.720     0.319    21.585     7.606
    12   8 O        0.860    -0.329    20.308     6.042
    13   7 N        2.757    -0.025    21.731     6.923
    14   6 C        3.706    -0.074    22.060     6.714
    15   1 H        0.924     0.129     1.540     1.941
    16   1 H        0.924     0.132     1.522     1.929
    17   1 H        0.925     0.140     1.460     1.890
    18   1 H        0.924     0.119     1.618     1.989
    19   1 H        0.925     0.127     1.557     1.951
    20   1 H        0.924     0.121     1.605     1.981
    21   1 H        0.924     0.121     1.607     1.982
    22   1 H        0.924     0.125     1.575     1.963
    23   1 H        0.924     0.124     1.580     1.966
    24   1 H        0.924     0.133     1.510     1.922
    25   1 H        0.860     0.210     1.055     1.609

Wiberg/Mayer (AO) data.
largest (>0.10) Wiberg bond orders for each atom

     #   Z sym  total        # sym  WBO       # sym  WBO       # sym  WBO
 ---------------------------------------------------------------------------
     1   6 C    3.803 --     3 C    1.045    17 H    0.914    15 H    0.905
                            16 H    0.902
     2   7 N    3.034 --     3 C    1.627     6 C    1.285
     3   6 C    3.699 --     2 N    1.627     1 C    1.045    18 H    0.906
     4   7 N    2.687 --     5 C    1.605    25 H    0.917
     5   6 C    3.911 --     4 N    1.605    13 N    1.132     6 C    1.079
     6   6 C    3.579 --     2 N    1.285     5 C    1.079     7 C    1.051
     7   6 C    3.869 --     8 O    1.612     9 N    1.110     6 C    1.051
     8   8 O    1.874 --     7 C    1.612     9 N    0.105
     9   7 N    3.453 --     7 C    1.110    11 C    1.094    10 C    0.980
                             8 O    0.105    12 O    0.102
    10   6 C    3.841 --     9 N    0.980    19 H    0.949    21 H    0.937
                            20 H    0.936
    11   6 C    3.941 --    12 O    1.653    13 N    1.111     9 N    1.094
    12   8 O    1.936 --    11 C    1.653    13 N    0.105     9 N    0.102
    13   7 N    3.473 --     5 C    1.132    11 C    1.111    14 C    0.983
                            12 O    0.105
    14   6 C    3.842 --    13 N    0.983    24 H    0.948    22 H    0.935
                            23 H    0.934
    15   1 H    0.945 --     1 C    0.905
    16   1 H    0.942 --     1 C    0.902
    17   1 H    0.946 --     1 C    0.914
    18   1 H    0.932 --     3 C    0.906
    19   1 H    0.968 --    10 C    0.949
    20   1 H    0.951 --    10 C    0.936
    21   1 H    0.952 --    10 C    0.937
    22   1 H    0.951 --    14 C    0.935
    23   1 H    0.950 --    14 C    0.934
    24   1 H    0.966 --    14 C    0.948
    25   1 H    0.941 --     4 N    0.917
 ---------------------------------------------------------------------------

molecular dipole:
                 x           y           z       tot (Debye)
 q only:        1.397      -0.632       0.062
   full:        1.737      -0.426       0.052       4.547

           -------------------------------------------------
          | TOTAL ENERGY              -42.187675424139 Eh   |
          | GRADIENT NORM               0.005732110328 Eh/α |
          | HOMO-LUMO GAP               0.374481887236 eV   |
           -------------------------------------------------

 * finished run on 2024/06/05 at 19:58:42.802
