   * xtb version 6.6.1 (8d0f1dd) compiled by 'conda@1efc2f54142f' on 2023-08-01
          program call               : xtb struc.xyz --opt loose --input .xc1 --gfn2

   ID    Z sym.   atoms
    1    6 C      1, 3, 5-7, 10, 11, 14
    2    7 N      2, 4, 9, 13
    3    8 O      8, 12
    4    1 H      15-25
constraining bond 13 14 to    3.9200000 Å, actual value:    1.4502802 Å

          :  Hamiltonian                  GFN2-xTB          :
 * total energy  :   -31.3544022 Eh     change       -0.6633627E-10 Eh
 * total energy  :   -35.3424343 Eh     change       -0.3988032E+01 Eh
 * total energy  :   -38.6836114 Eh     change       -0.3341177E+01 Eh
 * total energy  :   -40.6982386 Eh     change       -0.2014627E+01 Eh
 * total energy  :   -41.4649832 Eh     change       -0.7667446E+00 Eh
 * total energy  :   -41.5763717 Eh     change       -0.1113884E+00 Eh
 * total energy  :   -41.5995590 Eh     change       -0.2318738E-01 Eh
 * total energy  :   -41.6571021 Eh     change       -0.5754306E-01 Eh
 * total energy  :   -41.7072251 Eh     change       -0.5012302E-01 Eh
 * total energy  :   -41.7571175 Eh     change       -0.4989237E-01 Eh
 * total energy  :   -42.1987852 Eh     change       -0.1551377E-03 Eh
 * total energy  :   -42.1989365 Eh     change       -0.1513121E-03 Eh
 * total energy  :   -42.1990521 Eh     change       -0.1155399E-03 Eh
 * total energy  :   -42.1991625 Eh     change       -0.1104603E-03 Eh
 * total energy  :   -42.1992555 Eh     change       -0.9294706E-04 Eh
 * total energy  :   -42.1993423 Eh     change       -0.8680365E-04 Eh
 * total energy  :   -42.1993286 Eh     change        0.1367812E-04 Eh
 * total energy  :   -42.1994350 Eh     change       -0.1063655E-03 Eh
 * total energy  :   -42.1994612 Eh     change       -0.2620397E-04 Eh
   *** GEOMETRY OPTIMIZATION CONVERGED AFTER 93 ITERATIONS ***

 final structure:
================
25
 xtb: 6.6.1 (8d0f1dd)
C            3.15624048078014        1.96412613251845        0.00006936112437
N            2.68786707389577        0.60794594597442        0.12293254185650
C            3.42175276489488       -0.48100063994423        0.28003277226897
N            2.63832754166820       -1.57115948331150        0.33332957466862
C            1.33803489424012       -1.16544174248481        0.20104211838573
C            1.37340443803640        0.21766666714557        0.06923500234303
C            0.14693784549277        0.94509301463481       -0.06033421723274
O            0.02473441571256        2.14299033236254       -0.14250988490082
N           -0.97986837351543        0.07040020337151       -0.08191702796099
C           -2.24099872139712        0.79143923173065       -0.23392580352209
C           -0.93623263026934       -1.30013889955305        0.04406980920697
O           -2.04867330961844       -2.02559990541097        0.02529355707657
N            0.27044477317405       -1.93135704576506        0.19805908137739
C           -3.60538784681532       -1.83166053315279       -0.13237532493495
H            3.79855636113854        2.22348104234939        0.84047368302446
H            3.72083437981514        2.08640037922027       -0.92502076865201
H            2.29272199946061        2.62821094721691       -0.01858395698850
H            4.49298787099392       -0.49519598038276        0.35417950593494
H           -1.98807858817748        1.83146852719119       -0.44023131004583
H           -2.81388139566478        0.40154809697605       -1.06828215365981
H           -2.81331953137140        0.76125114443239        0.69074022443972
H           -3.93660335935127       -2.82886284236670        0.13474130829029
H           -3.81005867916815       -1.60770689013577       -1.17097150158211
H           -3.96710472883308       -1.08618695299494        0.56277292362139
H            2.93779383897199       -2.52947220801824        0.44835210376255

          :  Hamiltonian                  GFN2-xTB          :
         :: total energy             -42.199461161701 Eh    ::
         :: gradient norm              0.002317073662 Eh/a0 ::
         :: HOMO-LUMO gap              3.167057996247 eV    ::
         :: SCC energy               -42.709160094274 Eh    ::
         :: -> dispersion             -0.021954543645 Eh    ::
         :: repulsion energy           0.508205143515 Eh    ::

    * Orbital Energies and Occupations

         #    Occupation            Energy/Eh            Energy/eV
      -------------------------------------------------------------
         1        2.0000           -0.8972773             -24.4162
       ...           ...                  ...                  ...
        25        2.0000           -0.6625059             -18.0277
        26        2.0000           -0.6478126             -17.6279
        27        2.0000           -0.6468602             -17.6020
        28        2.0000           -0.6430953             -17.4995
        29        2.0000           -0.6292085             -17.1216
        30        2.0000           -0.6199157             -16.8688
        31        2.0000           -0.6148319             -16.7304
        32        2.0000           -0.6077791             -16.5385
        33        2.0000           -0.5957012             -16.2099
        34        2.0000           -0.5690297             -15.4841
        35        1.9999           -0.5596037             -15.2276
        36        1.9993           -0.5434816             -14.7889
        37        1.9990           -0.5405392             -14.7088 (HOMO)
        38        0.0017           -0.4241519             -11.5418 (LUMO)
        39        0.0001           -0.4019913             -10.9387
        40        0.0000           -0.3680527             -10.0152
        41                         -0.3061620              -8.3311
        42                         -0.2724075              -7.4126
        43                         -0.1873219              -5.0973
        44                         -0.1719932              -4.6802
        45                         -0.1213479              -3.3020
        46                         -0.0810395              -2.2052
        47                         -0.0551646              -1.5011
        48                         -0.0287786              -0.7831
       ...                                ...                  ...
        67                          0.5437164              14.7953
      -------------------------------------------------------------
                  HL-Gap            0.1163872 Eh            3.1671 eV

     #   Z          covCN         q      C6AA      α(0)
     1   6 C        3.691    -0.092    22.456     6.781
     2   7 N        2.831     0.085    19.770     6.604
     3   6 C        3.074     0.064    26.485     8.438
     4   7 N        2.801    -0.051    22.222     7.001
     5   6 C        3.079     0.149    24.693     8.147
     6   6 C        3.135    -0.031    28.548     8.746
     7   6 C        2.775     0.274    22.372     7.747
     8   8 O        0.858    -0.382    21.327     6.192
     9   7 N        2.740    -0.090    22.990     7.121
    10   6 C        3.703    -0.065    21.902     6.691
    11   6 C        2.748     0.307    21.783     7.642
    12   8 O        1.656    -0.234    17.902     5.712
    13   7 N        1.831    -0.269    27.831     7.817
    14   6 C        3.577     0.002    21.294     6.705
    15   1 H        0.925     0.104     1.747     2.067
    16   1 H        0.924     0.106     1.734     2.059
    17   1 H        0.925     0.133     1.516     1.925
    18   1 H        0.926     0.125     1.577     1.964
    19   1 H        0.925     0.121     1.606     1.982
    20   1 H        0.925     0.081     1.972     2.196
    21   1 H        0.925     0.079     1.992     2.207
    22   1 H        0.925     0.132     1.520     1.928
    23   1 H        0.925     0.108     1.715     2.048
    24   1 H        0.925     0.107     1.725     2.054
    25   1 H        0.860     0.239     0.927     1.508

Wiberg/Mayer (AO) data.
largest (>0.10) Wiberg bond orders for each atom

     #   Z sym  total        # sym  WBO       # sym  WBO       # sym  WBO
 ---------------------------------------------------------------------------
     1   6 C    3.920 --     2 N    0.983    17 H    0.964    15 H    0.964
                            16 H    0.959
     2   7 N    3.724 --     3 C    1.419     6 C    1.160     1 C    0.983
     3   6 C    3.937 --     2 N    1.419     4 N    1.317    18 H    0.951
     4   7 N    3.622 --     3 C    1.317     5 C    1.165    25 H    0.915
     5   6 C    3.965 --    13 N    1.325     6 C    1.306     4 N    1.165
     6   6 C    3.939 --     5 C    1.306     2 N    1.160     7 C    1.114
     7   6 C    3.962 --     8 O    1.691     6 C    1.114     9 N    1.049
     8   8 O    2.073 --     7 C    1.691     9 N    0.147
     9   7 N    3.588 --    11 C    1.216     7 C    1.049    10 C    0.972
                             8 O    0.147
    10   6 C    3.929 --     9 N    0.972    20 H    0.971    21 H    0.969
                            19 H    0.960
    11   6 C    3.943 --    13 N    1.324    12 O    1.241     9 N    1.216
    12   8 O    2.341 --    11 C    1.241    14 C    0.860
    13   7 N    3.021 --     5 C    1.325    11 C    1.324
    14   6 C    3.838 --    23 H    0.975    24 H    0.975    22 H    0.972
                            12 O    0.860
    15   1 H    0.988 --     1 C    0.964
    16   1 H    0.988 --     1 C    0.959
    17   1 H    0.982 --     1 C    0.964
    18   1 H    0.983 --     3 C    0.951
    19   1 H    0.985 --    10 C    0.960
    20   1 H    0.993 --    10 C    0.971
    21   1 H    0.993 --    10 C    0.969
    22   1 H    0.982 --    14 C    0.972
    23   1 H    0.987 --    14 C    0.975
    24   1 H    0.988 --    14 C    0.975
    25   1 H    0.942 --     4 N    0.915
 ---------------------------------------------------------------------------

molecular dipole:
                 x           y           z       tot (Debye)
 q only:        1.635      -0.950       0.111
   full:        1.868      -0.929       0.123       5.312

           -------------------------------------------------
          | TOTAL ENERGY              -42.199461161701 Eh   |
          | GRADIENT NORM               0.002317073662 Eh/α |
          | HOMO-LUMO GAP               3.167057996247 eV   |
           -------------------------------------------------

 * finished run on 2024/06/05 at 19:58:08.882
