   * xtb version 6.6.1 (8d0f1dd) compiled by 'conda@1efc2f54142f' on 2023-08-01
          program call               : xtb xtbopt.xyz --opt crude --input .xc2 --gfn2

   ID    Z sym.   atoms
    1    6 C      1, 3, 5-7, 10, 11, 14
    2    7 N      2, 4, 9, 13
    3    8 O      8, 12
    4    1 H      15-25
########################################################################
[WARNING] Please study the warnings concerning your input carefully
-1- readin_getIntValue: could not parse ''
########################################################################

          :  Hamiltonian                  GFN2-xTB          :
 * total energy  :   -42.2009452 Eh     change       -0.7815970E-13 Eh
 * total energy  :   -42.2137141 Eh     change       -0.1276891E-01 Eh
 * total energy  :   -42.2196298 Eh     change       -0.5915713E-02 Eh
 * total energy  :   -42.2200691 Eh     change       -0.4392564E-03 Eh
   *** GEOMETRY OPTIMIZATION CONVERGED AFTER 4 ITERATIONS ***

 final structure:
================
25
 xtb: 6.6.1 (8d0f1dd)
C            3.13835303243398        1.93610394957441        0.00572177458236
N            2.65167468225322        0.58496472518224        0.12115797485552
C            3.36997332133955       -0.51491738697906        0.27826529300835
N            2.57099304276056       -1.59397932448466        0.32751527458341
C            1.27558355908708       -1.17094281000788        0.19400017307195
C            1.33304247115497        0.21145657151922        0.06372713929187
C            0.11907852586409        0.96786009174657       -0.07382425417788
O            0.02378232691836        2.16717363431106       -0.16477762559541
N           -1.02409205728556        0.12100823349972       -0.09150356081121
C           -2.27833373631695        0.85194094668034       -0.24417573407906
C           -0.96677361147970       -1.24537854775357        0.03884558978785
O           -1.97620927957311       -2.06572738425449        0.04457560911504
N            0.16867918216159       -1.89957350849537        0.18411239277129
C           -3.37790953192775       -1.86974913992325       -0.10458003174953
H            3.78281117870621        2.18262097618893        0.84900706842099
H            3.70651410865210        2.05656151248776       -0.91743403401555
H            2.28433111162929        2.61247523621649       -0.01138472353835
H            4.44097256199946       -0.53988073438163        0.35566179664467
H           -2.01632373630630        1.89007335878607       -0.44871534082776
H           -2.85363837193023        0.46910937819539       -1.08045485772435
H           -2.85402572038552        0.82632899124641        0.67850410934226
H           -3.80049189087706       -2.84780594708563        0.12994423401333
H           -3.63681809107690       -1.61978870521821       -1.13430808382806
H           -3.78603788766542       -1.13758761867190        0.58777912146536
H            2.86529632395731       -2.55410795677558        0.44351231329453

          :  Hamiltonian                  GFN2-xTB          :
         :: total energy             -42.220069072084 Eh    ::
         :: gradient norm              0.005889957723 Eh/a0 ::
         :: HOMO-LUMO gap              3.206577169100 eV    ::
         :: SCC energy               -42.740667247409 Eh    ::
         :: -> dispersion             -0.022176124303 Eh    ::
         :: repulsion energy           0.520580081609 Eh    ::

    * Orbital Energies and Occupations

         #    Occupation            Energy/Eh            Energy/eV
      -------------------------------------------------------------
         1        2.0000           -0.9002118             -24.4960
       ...           ...                  ...                  ...
        25        2.0000           -0.6653402             -18.1048
        26        2.0000           -0.6523872             -17.7524
        27        2.0000           -0.6505918             -17.7035
        28        2.0000           -0.6448665             -17.5477
        29        2.0000           -0.6310618             -17.1721
        30        2.0000           -0.6207188             -16.8906
        31        2.0000           -0.6129749             -16.6799
        32        2.0000           -0.6091628             -16.5762
        33        2.0000           -0.5902767             -16.0622
        34        2.0000           -0.5671191             -15.4321
        35        1.9999           -0.5626173             -15.3096
        36        1.9994           -0.5479737             -14.9111
        37        1.9991           -0.5441412             -14.8068 (HOMO)
        38        0.0015           -0.4263017             -11.6003 (LUMO)
        39        0.0001           -0.4018749             -10.9356
        40        0.0000           -0.3676311             -10.0038
        41                         -0.2734298              -7.4404
        42                         -0.1908834              -5.1942
        43                         -0.1814882              -4.9385
        44                         -0.1522841              -4.1439
        45                         -0.1203025              -3.2736
        46                         -0.0762545              -2.0750
        47                         -0.0498040              -1.3552
        48                         -0.0262240              -0.7136
       ...                                ...                  ...
        67                          0.5429055              14.7732
      -------------------------------------------------------------
                  HL-Gap            0.1178395 Eh            3.2066 eV

     #   Z          covCN         q      C6AA      α(0)
     1   6 C        3.691    -0.093    22.472     6.784
     2   7 N        2.830     0.086    19.752     6.601
     3   6 C        3.074     0.064    26.497     8.440
     4   7 N        2.801    -0.049    22.179     6.994
     5   6 C        3.101     0.145    24.740     8.151
     6   6 C        3.138    -0.030    28.506     8.738
     7   6 C        2.774     0.275    22.357     7.744
     8   8 O        0.858    -0.379    21.268     6.183
     9   7 N        2.741    -0.093    23.061     7.132
    10   6 C        3.701    -0.065    21.912     6.694
    11   6 C        2.782     0.309    21.762     7.641
    12   8 O        1.717    -0.179    17.003     5.567
    13   7 N        1.844    -0.270    27.861     7.823
    14   6 C        3.627     0.005    20.920     6.589
    15   1 H        0.925     0.105     1.740     2.063
    16   1 H        0.924     0.107     1.723     2.053
    17   1 H        0.925     0.134     1.508     1.920
    18   1 H        0.926     0.126     1.564     1.956
    19   1 H        0.925     0.120     1.610     1.984
    20   1 H        0.925     0.082     1.963     2.191
    21   1 H        0.925     0.080     1.982     2.202
    22   1 H        0.924     0.114     1.666     2.018
    23   1 H        0.924     0.084     1.934     2.175
    24   1 H        0.925     0.084     1.940     2.178
    25   1 H        0.860     0.240     0.923     1.505

Wiberg/Mayer (AO) data.
largest (>0.10) Wiberg bond orders for each atom

     #   Z sym  total        # sym  WBO       # sym  WBO       # sym  WBO
 ---------------------------------------------------------------------------
     1   6 C    3.919 --     2 N    0.983    17 H    0.963    15 H    0.963
                            16 H    0.958
     2   7 N    3.725 --     3 C    1.418     6 C    1.163     1 C    0.983
     3   6 C    3.936 --     2 N    1.418     4 N    1.318    18 H    0.951
     4   7 N    3.625 --     3 C    1.318     5 C    1.173    25 H    0.915
     5   6 C    3.966 --     6 C    1.321    13 N    1.295     4 N    1.173
     6   6 C    3.939 --     5 C    1.321     2 N    1.163     7 C    1.105
     7   6 C    3.962 --     8 O    1.696     6 C    1.105     9 N    1.056
     8   8 O    2.075 --     7 C    1.696     9 N    0.151
     9   7 N    3.580 --    11 C    1.195     7 C    1.056    10 C    0.971
                             8 O    0.151
    10   6 C    3.928 --    20 H    0.971     9 N    0.971    21 H    0.969
                            19 H    0.960
    11   6 C    3.948 --    13 N    1.371    12 O    1.225     9 N    1.195
    12   8 O    2.399 --    11 C    1.225    14 C    0.929
    13   7 N    3.033 --    11 C    1.371     5 C    1.295
    14   6 C    3.886 --    24 H    0.971    23 H    0.969    22 H    0.969
                            12 O    0.929
    15   1 H    0.988 --     1 C    0.963
    16   1 H    0.988 --     1 C    0.958
    17   1 H    0.982 --     1 C    0.963
    18   1 H    0.983 --     3 C    0.951
    19   1 H    0.985 --    10 C    0.960
    20   1 H    0.993 --    10 C    0.971
    21   1 H    0.993 --    10 C    0.969
    22   1 H    0.986 --    14 C    0.969
    23   1 H    0.991 --    14 C    0.969
    24   1 H    0.991 --    14 C    0.971
    25   1 H    0.942 --     4 N    0.915
 ---------------------------------------------------------------------------

molecular dipole:
                 x           y           z       tot (Debye)
 q only:        1.922      -0.949       0.150
   full:        2.114      -0.930       0.160       5.885

           -------------------------------------------------
          | TOTAL ENERGY              -42.220069072084 Eh   |
          | GRADIENT NORM               0.005889957723 Eh/α |
          | HOMO-LUMO GAP               3.206577169100 eV   |
           -------------------------------------------------

 * finished run on 2024/06/05 at 19:58:09.113
