   * xtb version 6.6.1 (8d0f1dd) compiled by 'conda@1efc2f54142f' on 2023-08-01
          program call               : xtb xtbopt.xyz --opt crude --input .xc2 --gfn2

   ID    Z sym.   atoms
    1    6 C      1, 3, 5-7, 10, 11, 14
    2    7 N      2, 4, 9, 13
    3    8 O      8, 12
    4    1 H      15-25
########################################################################
[WARNING] Please study the warnings concerning your input carefully
-1- readin_getIntValue: could not parse ''
########################################################################

          :  Hamiltonian                  GFN2-xTB          :
 * total energy  :   -42.2094883 Eh     change       -0.5258016E-12 Eh
   *** GEOMETRY OPTIMIZATION CONVERGED AFTER 1 ITERATIONS ***

 final structure:
================
25
 xtb: 6.6.1 (8d0f1dd)
C            3.11170419187357        1.22093503708539       -0.03521765433767
N            2.17758088912506        0.12878770486396       -0.05154023446308
C            2.50593548929020       -1.18165581470619       -0.05586755782889
N            1.37397108950267       -1.93512448139312       -0.03201844414717
C            0.30500788365129       -1.09177019135602       -0.01071484204834
C            0.80192883242946        0.22010024815585       -0.02167296184558
C           -0.08561598301370        1.29181068320505       -0.01588561787553
O            0.31076776161913        2.57332068333216        0.01289706551954
N           -1.43761796578873        0.99660467785799       -0.02520833776200
C           -2.36217923579940        1.98276958906503       -0.10284897393411
C           -1.94865098409013       -0.33505302068723        0.08588645548359
O           -3.13180482212585       -0.53508409203454        0.18335354598801
N           -1.02128214976798       -1.37054616681194        0.05318291287199
C           -1.50280488981065       -2.73705773062269        0.08890410164696
H            3.55769174366108        1.33040816623067        0.95589450053032
H            3.90648553654387        1.04076752641293       -0.75844711449798
H            2.59021896536099        2.14085382890058       -0.28880204954679
H            3.50205037700175       -1.56739124454484       -0.07751504414820
H           -0.43652411747294        3.13977454017128        0.26786588594541
H           -2.10771042076089        2.96421571076910       -0.44280685071353
H           -3.38305592146994        1.71006193359869        0.04246973770118
H           -1.14053698393581       -3.24588368554393        0.98307471195368
H           -1.18118550388516       -3.27461770643118       -0.80372882151534
H           -2.59083395788050       -2.70530040266132        0.11451968062144
H            1.34689168984199       -2.94268725125473       -0.03460247569786

          :  Hamiltonian                  GFN2-xTB          :
         :: total energy             -42.209488329498 Eh    ::
         :: gradient norm              0.005771487018 Eh/a0 ::
         :: HOMO-LUMO gap              1.482105843682 eV    ::
         :: SCC energy               -42.725478372985 Eh    ::
         :: -> dispersion             -0.022931089116 Eh    ::
         :: repulsion energy           0.515873623947 Eh    ::

    * Orbital Energies and Occupations

         #    Occupation            Energy/Eh            Energy/eV
      -------------------------------------------------------------
         1        2.0000           -0.8868695             -24.1329
       ...           ...                  ...                  ...
        25        1.9998           -0.6669307             -18.1481
        26        1.9997           -0.6609630             -17.9857
        27        1.9996           -0.6571985             -17.8833
        28        1.9994           -0.6454768             -17.5643
        29        1.9987           -0.6264636             -17.0469
        30        1.9984           -0.6216168             -16.9151
        31        1.9980           -0.6165297             -16.7766
        32        1.9974           -0.6100520             -16.6004
        33        1.9969           -0.6057702             -16.4838
        34        1.9964           -0.6023114             -16.3897
        35        1.9863           -0.5705729             -15.5261
        36        1.9684           -0.5505412             -14.9810
        37        1.4556           -0.4757257             -12.9452 (HOMO)
        38        0.4250           -0.4212594             -11.4631 (LUMO)
        39        0.1272           -0.3884888             -10.5713
        40        0.0523           -0.3664423              -9.9714
        41        0.0016           -0.2835703              -7.7163
        42        0.0000           -0.1967933              -5.3550
        43        0.0000           -0.1820474              -4.9538
        44        0.0000           -0.1405856              -3.8255
        45        0.0000           -0.1259262              -3.4266
        46        0.0000           -0.1039781              -2.8294
        47        0.0000           -0.0626728              -1.7054
        48                         -0.0402290              -1.0947
       ...                                ...                  ...
        67                          0.5251693              14.2906
      -------------------------------------------------------------
                  HL-Gap            0.0544664 Eh            1.4821 eV

     #   Z          covCN         q      C6AA      α(0)
     1   6 C        3.690    -0.086    22.341     6.764
     2   7 N        2.816     0.047    20.419     6.711
     3   6 C        3.024     0.026    27.387     8.584
     4   7 N        2.772    -0.064    22.486     7.043
     5   6 C        3.034     0.085    26.066     8.374
     6   6 C        3.077     0.001    27.929     8.664
     7   6 C        2.785     0.158    24.570     8.119
     8   8 O        1.659    -0.356    20.008     6.038
     9   7 N        2.741    -0.019    21.626     6.907
    10   6 C        2.812    -0.082    30.050     8.981
    11   6 C        2.737     0.299    21.932     7.668
    12   8 O        0.859    -0.361    20.919     6.132
    13   7 N        2.736    -0.051    22.235     7.003
    14   6 C        3.699    -0.071    22.030     6.713
    15   1 H        0.924     0.098     1.804     2.100
    16   1 H        0.925     0.097     1.808     2.103
    17   1 H        0.925     0.116     1.643     2.005
    18   1 H        0.927     0.111     1.691     2.033
    19   1 H        0.804     0.345     0.600     1.217
    20   1 H        0.927     0.082     1.963     2.191
    21   1 H        0.927     0.114     1.660     2.015
    22   1 H        0.924     0.084     1.941     2.179
    23   1 H        0.924     0.083     1.950     2.184
    24   1 H        0.925     0.125     1.573     1.961
    25   1 H        0.860     0.221     1.007     1.572

Wiberg/Mayer (AO) data.
largest (>0.10) Wiberg bond orders for each atom

     #   Z sym  total        # sym  WBO       # sym  WBO       # sym  WBO
 ---------------------------------------------------------------------------
     1   6 C    3.928 --     2 N    0.993    16 H    0.967    17 H    0.967
                            15 H    0.959
     2   7 N    3.550 --     3 C    1.282     6 C    1.132     1 C    0.993
     3   6 C    3.645 --     2 N    1.282     4 N    1.235    18 H    0.958
     4   7 N    3.521 --     3 C    1.235     5 C    1.191    25 H    0.923
     5   6 C    3.800 --     6 C    1.254     4 N    1.191    13 N    1.165
     6   6 C    3.910 --     7 C    1.275     5 C    1.254     2 N    1.132
     7   6 C    3.671 --     6 C    1.275     9 N    1.117     8 O    1.110
     8   8 O    2.095 --     7 C    1.110    19 H    0.835
     9   7 N    3.584 --    10 C    1.257     7 C    1.117    11 C    0.999
    10   6 C    3.368 --     9 N    1.257    21 H    0.962    20 H    0.958
    11   6 C    3.865 --    12 O    1.677    13 N    1.093     9 N    0.999
    12   8 O    1.982 --    11 C    1.677    13 N    0.131
    13   7 N    3.499 --     5 C    1.165    11 C    1.093    14 C    0.975
                            12 O    0.131
    14   6 C    3.922 --    13 N    0.975    23 H    0.969    22 H    0.969
                            24 H    0.964
    15   1 H    0.980 --     1 C    0.959
    16   1 H    0.984 --     1 C    0.967
    17   1 H    0.985 --     1 C    0.967
    18   1 H    0.987 --     3 C    0.958
    19   1 H    0.879 --     8 O    0.835
    20   1 H    0.990 --    10 C    0.958
    21   1 H    0.984 --    10 C    0.962
    22   1 H    0.987 --    14 C    0.969
    23   1 H    0.987 --    14 C    0.969
    24   1 H    0.983 --    14 C    0.964
    25   1 H    0.951 --     4 N    0.923
 ---------------------------------------------------------------------------

molecular dipole:
                 x           y           z       tot (Debye)
 q only:        2.145      -0.638       0.026
   full:        2.257      -0.775       0.028       6.066

           -------------------------------------------------
          | TOTAL ENERGY              -42.209488329498 Eh   |
          | GRADIENT NORM               0.005771487018 Eh/α |
          | HOMO-LUMO GAP               1.482105843682 eV   |
           -------------------------------------------------

 * finished run on 2024/06/05 at 19:58:56.189
