   * xtb version 6.6.1 (8d0f1dd) compiled by 'conda@1efc2f54142f' on 2023-08-01
          program call               : xtb struc.xyz --opt loose --input .xc1 --gfn2

   ID    Z sym.   atoms
    1    6 C      1, 3, 5-7, 10, 11, 14
    2    7 N      2, 4, 9, 13
    3    8 O      8, 12
    4    1 H      15-25
constraining bond 1 4 to    5.9200000 Å, actual value:    3.5856227 Å

          :  Hamiltonian                  GFN2-xTB          :
 * total energy  :   -32.5153527 Eh     change       -0.6633627E-10 Eh
 * total energy  :   -36.4162973 Eh     change       -0.3900945E+01 Eh
 * total energy  :   -39.2147540 Eh     change       -0.2798457E+01 Eh
 * total energy  :   -40.9668171 Eh     change       -0.1752063E+01 Eh
 * total energy  :   -41.6352347 Eh     change       -0.6684175E+00 Eh
 * total energy  :   -41.7308717 Eh     change       -0.9563700E-01 Eh
 * total energy  :   -41.7645478 Eh     change       -0.3367606E-01 Eh
 * total energy  :   -41.8368249 Eh     change       -0.7227717E-01 Eh
 * total energy  :   -41.8686707 Eh     change       -0.3184574E-01 Eh
 * total energy  :   -41.8916393 Eh     change       -0.2296864E-01 Eh
 * total energy  :   -42.1055721 Eh     change       -0.2247710E-03 Eh
 * total energy  :   -42.1057864 Eh     change       -0.2142750E-03 Eh
 * total energy  :   -42.1059173 Eh     change       -0.1308886E-03 Eh
 * total energy  :   -42.1060271 Eh     change       -0.1098429E-03 Eh
 * total energy  :   -42.1060880 Eh     change       -0.6092741E-04 Eh
 * total energy  :   -42.1061531 Eh     change       -0.6505009E-04 Eh
 * total energy  :   -42.1061960 Eh     change       -0.4294829E-04 Eh
 * total energy  :   -42.1062394 Eh     change       -0.4340233E-04 Eh
 * total energy  :   -42.1062672 Eh     change       -0.2773557E-04 Eh
   *** GEOMETRY OPTIMIZATION CONVERGED AFTER 56 ITERATIONS ***

 final structure:
================
25
 xtb: 6.6.1 (8d0f1dd)
C            2.45837361414778        2.46574354178698        0.01312706672606
N            2.33718992312604       -0.82587581854875       -0.00342905116225
C            3.40657471480947       -1.28090131046122        0.00892254379987
N            0.39147473399479       -3.06826422781075       -0.01637143472661
C            0.13191100425495       -1.82783922394546       -0.00770414033153
C            1.04745201465482       -0.59903750713754       -0.00419894872700
C            0.53631665456581        0.72507451102652       -0.00179316514274
O            1.12070315094979        1.91748716875184       -0.00188816842592
N           -0.80565112844947        0.85271074734677       -0.00248646762578
C           -1.47310756748738        2.14802071308070       -0.00450565017964
C           -1.72825229327352       -0.23170398308322        0.00227331333077
O           -2.90227541747325        0.00593763846616        0.00705216603416
N           -1.20284912888835       -1.48779865998676        0.00168377829869
C           -2.14322591934914       -2.60157266940891        0.00730611300136
H            2.99279719069536        2.16010849427472        0.91452435998965
H            3.01219552940269        2.16253182008747       -0.87682077359220
H            2.29831883153570        3.54072587504422        0.01271973673714
H            4.40187986760573       -1.62287026576742       -0.00499574924933
H           -0.74969911456847        2.95335541129432        0.00468090203683
H           -2.10355107002701        2.21845917371446       -0.89067067626118
H           -2.11984659856760        2.21245194804920        0.87024033020740
H           -1.96765302351458       -3.21696841288301        0.88747656649530
H           -1.98310146575618       -3.21361615471089       -0.87816839925701
H           -3.15288137795815       -2.20010849733371        0.01679636251860
H            1.35733838964008       -3.36781177025039       -0.02259899657169

          :  Hamiltonian                  GFN2-xTB          :
         :: total energy             -42.106267183116 Eh    ::
         :: gradient norm              0.003009268297 Eh/a0 ::
         :: HOMO-LUMO gap              2.382457784288 eV    ::
         :: SCC energy               -42.668054072420 Eh    ::
         :: -> dispersion             -0.021884601656 Eh    ::
         :: repulsion energy           0.561395587008 Eh    ::

    * Orbital Energies and Occupations

         #    Occupation            Energy/Eh            Energy/eV
      -------------------------------------------------------------
         1        2.0000           -0.9152384             -24.9049
       ...           ...                  ...                  ...
        25        2.0000           -0.6564709             -17.8635
        26        2.0000           -0.6495834             -17.6761
        27        2.0000           -0.6460078             -17.5788
        28        2.0000           -0.6298207             -17.1383
        29        2.0000           -0.6262070             -17.0400
        30        2.0000           -0.6090653             -16.5735
        31        2.0000           -0.6084744             -16.5574
        32        2.0000           -0.5927051             -16.1283
        33        2.0000           -0.5859815             -15.9454
        34        1.9998           -0.5683028             -15.4643
        35        1.9992           -0.5558510             -15.1255
        36        1.9959           -0.5424501             -14.7608
        37        1.9912           -0.5363200             -14.5940 (HOMO)
        38        0.0071           -0.4487663             -12.2116 (LUMO)
        39        0.0067           -0.4483706             -12.2008
        40        0.0000           -0.3924229             -10.6784
        41                         -0.3586571              -9.7596
        42                         -0.2825105              -7.6875
        43                         -0.2395416              -6.5183
        44                         -0.1909140              -5.1950
        45                         -0.1527129              -4.1555
        46                         -0.1329904              -3.6189
        47                         -0.0974133              -2.6507
        48                         -0.0580687              -1.5801
       ...                                ...                  ...
        67                          1.0468057              28.4850
      -------------------------------------------------------------
                  HL-Gap            0.0875537 Eh            2.3825 eV

     #   Z          covCN         q      C6AA      α(0)
     1   6 C        3.620     0.011    20.858     6.585
     2   7 N        1.834     0.127    19.692     6.576
     3   6 C        1.846     0.030    30.378     8.904
     4   7 N        1.795    -0.305    28.726     7.939
     5   6 C        2.824     0.160    24.525     8.115
     6   6 C        2.889    -0.038    28.950     8.821
     7   6 C        2.769     0.234    23.104     7.872
     8   8 O        1.707    -0.214    17.558     5.657
     9   7 N        2.750    -0.051    22.218     7.001
    10   6 C        3.707    -0.072    22.021     6.708
    11   6 C        2.723     0.317    21.609     7.610
    12   8 O        0.860    -0.357    20.846     6.122
    13   7 N        2.761    -0.048    22.163     6.992
    14   6 C        3.713    -0.075    22.077     6.714
    15   1 H        0.924     0.083     1.948     2.183
    16   1 H        0.924     0.083     1.949     2.183
    17   1 H        0.925     0.120     1.616     1.988
    18   1 H        0.928     0.196     1.117     1.653
    19   1 H        0.925     0.101     1.775     2.084
    20   1 H        0.925     0.110     1.700     2.039
    21   1 H        0.925     0.110     1.695     2.036
    22   1 H        0.925     0.101     1.775     2.083
    23   1 H        0.925     0.101     1.773     2.082
    24   1 H        0.925     0.114     1.666     2.019
    25   1 H        0.860     0.162     1.323     1.802

Wiberg/Mayer (AO) data.
largest (>0.10) Wiberg bond orders for each atom

     #   Z sym  total        # sym  WBO       # sym  WBO       # sym  WBO
 ---------------------------------------------------------------------------
     1   6 C    3.881 --    16 H    0.973    15 H    0.973    17 H    0.969
                             8 O    0.923
     2   7 N    3.744 --     3 C    2.418     6 C    1.246
     3   6 C    3.850 --     2 N    2.418    18 H    0.938     6 C    0.194
     4   7 N    3.087 --     5 C    1.779    25 H    0.943    13 N    0.103
     5   6 C    3.962 --     4 N    1.779    13 N    1.125     6 C    0.938
     6   6 C    3.878 --     7 C    1.250     2 N    1.246     5 C    0.938
                             3 C    0.194
     7   6 C    3.938 --     9 N    1.279     6 C    1.250     8 O    1.189
     8   8 O    2.367 --     7 C    1.189     1 C    0.923
     9   7 N    3.604 --     7 C    1.279    11 C    0.999    10 C    0.969
                            12 O    0.102
    10   6 C    3.917 --    19 H    0.972     9 N    0.969    21 H    0.962
                            20 H    0.962
    11   6 C    3.961 --    12 O    1.710    13 N    1.163     9 N    0.999
    12   8 O    2.067 --    11 C    1.710    13 N    0.150     9 N    0.102
    13   7 N    3.589 --    11 C    1.163     5 C    1.125    14 C    0.961
                            12 O    0.150     4 N    0.103
    14   6 C    3.913 --    24 H    0.969    22 H    0.967    23 H    0.967
                            13 N    0.961
    15   1 H    0.992 --     1 C    0.973
    16   1 H    0.992 --     1 C    0.973
    17   1 H    0.985 --     1 C    0.969
    18   1 H    0.961 --     3 C    0.938
    19   1 H    0.989 --    10 C    0.972
    20   1 H    0.983 --    10 C    0.962
    21   1 H    0.983 --    10 C    0.962
    22   1 H    0.989 --    14 C    0.967
    23   1 H    0.989 --    14 C    0.967
    24   1 H    0.986 --    14 C    0.969
    25   1 H    0.972 --     4 N    0.943
 ---------------------------------------------------------------------------

molecular dipole:
                 x           y           z       tot (Debye)
 q only:        2.998       0.196       0.006
   full:        3.922       0.321       0.003      10.002

           -------------------------------------------------
          | TOTAL ENERGY              -42.106267183116 Eh   |
          | GRADIENT NORM               0.003009268297 Eh/α |
          | HOMO-LUMO GAP               2.382457784288 eV   |
           -------------------------------------------------

 * finished run on 2024/06/05 at 19:57:53.679
