   * xtb version 6.6.1 (8d0f1dd) compiled by 'conda@1efc2f54142f' on 2023-08-01
          program call               : xtb xtbopt.xyz --opt crude --input .xc2 --gfn2

   ID    Z sym.   atoms
    1    6 C      1, 3, 5-7, 10, 11, 14
    2    7 N      2, 4, 9, 13
    3    8 O      8, 12
    4    1 H      15-25
########################################################################
[WARNING] Please study the warnings concerning your input carefully
-1- readin_getIntValue: could not parse ''
########################################################################

          :  Hamiltonian                  GFN2-xTB          :
 * total energy  :   -42.1065476 Eh     change       -0.4618528E-12 Eh
 * total energy  :   -42.1117780 Eh     change       -0.5230479E-02 Eh
 * total energy  :   -42.1160006 Eh     change       -0.4222585E-02 Eh
 * total energy  :   -42.1181675 Eh     change       -0.2166879E-02 Eh
 * total energy  :   -42.1193000 Eh     change       -0.1132506E-02 Eh
 * total energy  :   -42.1197723 Eh     change       -0.4722824E-03 Eh
   *** GEOMETRY OPTIMIZATION CONVERGED AFTER 6 ITERATIONS ***

 final structure:
================
25
 xtb: 6.6.1 (8d0f1dd)
C            2.47303386353632        2.12161691378972        0.01080353140714
N            2.31530256251426       -0.65555886599359        0.01400985470318
C            3.35749905896136       -1.17569705263962       -0.03015269060763
N            0.56166820096028       -2.86751110147147       -0.00894460524196
C            0.16574010682433       -1.67604503182875       -0.00281978223300
C            1.02448174316980       -0.44116318139812        0.00231229236688
C            0.43313701161396        0.82750934177743       -0.00098214693115
O            1.05895291969532        1.98771139596150       -0.00131117685182
N           -0.90383075308008        0.91709544819739       -0.00188242973495
C           -1.58889210837832        2.20227573557802       -0.00430801144046
C           -1.78050988553758       -0.20402888719061        0.00189677423980
O           -2.96327855824767       -0.02267249982581        0.00473961275492
N           -1.18601780295632       -1.43322759026353        0.00241355423101
C           -2.05381266895294       -2.60260185044549        0.00514793204571
H            2.90799617947800        1.68725518735864        0.91337213644963
H            2.92267436718271        1.69184086470378       -0.88645262538168
H            2.62971236245568        3.20148605537486        0.01447267113327
H            4.34604519063052       -1.53843723191145        0.00988650019391
H           -0.86782783177355        3.01126366163603        0.00692033581219
H           -2.21728619820946        2.26935810092552       -0.89211254198697
H           -2.23698950555658        2.26187108757235        0.86975177198003
H           -1.84433250668744       -3.20685022334908        0.88566586248043
H           -1.85690724793172       -3.20212715431128       -0.88153078933914
H           -3.08629131943379       -2.26193041440753        0.01324047504130
H            1.55016433379286       -3.07319416624352       -0.01296488716772

          :  Hamiltonian                  GFN2-xTB          :
         :: total energy             -42.119772291211 Eh    ::
         :: gradient norm              0.008695290630 Eh/a0 ::
         :: HOMO-LUMO gap              2.270266934696 eV    ::
         :: SCC energy               -42.693310254499 Eh    ::
         :: -> dispersion             -0.022373445521 Eh    ::
         :: repulsion energy           0.573413574734 Eh    ::

    * Orbital Energies and Occupations

         #    Occupation            Energy/Eh            Energy/eV
      -------------------------------------------------------------
         1        2.0000           -0.9247955             -25.1650
       ...           ...                  ...                  ...
        25        2.0000           -0.6628189             -18.0362
        26        2.0000           -0.6536822             -17.7876
        27        2.0000           -0.6511791             -17.7195
        28        2.0000           -0.6345154             -17.2660
        29        2.0000           -0.6322252             -17.2037
        30        2.0000           -0.6146482             -16.7254
        31        2.0000           -0.6144179             -16.7192
        32        2.0000           -0.5959849             -16.2176
        33        2.0000           -0.5911150             -16.0851
        34        1.9999           -0.5727695             -15.5859
        35        1.9993           -0.5600649             -15.2401
        36        1.9961           -0.5459600             -14.8563
        37        1.9887           -0.5374606             -14.6250 (HOMO)
        38        0.0093           -0.4540299             -12.3548 (LUMO)
        39        0.0068           -0.4515715             -12.2879
        40        0.0000           -0.3926884             -10.6856
        41                         -0.3621745              -9.8553
        42                         -0.2801869              -7.6243
        43                         -0.2039564              -5.5499
        44                         -0.1795001              -4.8844
        45                         -0.1429197              -3.8890
        46                         -0.1239050              -3.3716
        47                         -0.0830047              -2.2587
        48                         -0.0578210              -1.5734
       ...                                ...                  ...
        67                          1.0141541              27.5965
      -------------------------------------------------------------
                  HL-Gap            0.0834308 Eh            2.2703 eV

     #   Z          covCN         q      C6AA      α(0)
     1   6 C        3.635     0.006    20.860     6.572
     2   7 N        1.836     0.124    19.745     6.585
     3   6 C        1.847     0.028    30.425     8.910
     4   7 N        1.792    -0.311    28.899     7.963
     5   6 C        2.833     0.164    24.457     8.104
     6   6 C        2.894    -0.037    28.917     8.817
     7   6 C        2.786     0.232    23.130     7.878
     8   8 O        1.707    -0.194    17.233     5.605
     9   7 N        2.747    -0.050    22.213     7.000
    10   6 C        3.704    -0.071    22.011     6.708
    11   6 C        2.720     0.318    21.602     7.608
    12   8 O        0.860    -0.352    20.749     6.107
    13   7 N        2.756    -0.049    22.194     6.997
    14   6 C        3.711    -0.074    22.059     6.712
    15   1 H        0.924     0.075     2.028     2.227
    16   1 H        0.924     0.075     2.026     2.226
    17   1 H        0.924     0.119     1.623     1.992
    18   1 H        0.928     0.196     1.117     1.653
    19   1 H        0.925     0.102     1.765     2.077
    20   1 H        0.925     0.110     1.696     2.037
    21   1 H        0.925     0.111     1.690     2.033
    22   1 H        0.925     0.101     1.777     2.085
    23   1 H        0.925     0.101     1.776     2.084
    24   1 H        0.925     0.114     1.665     2.018
    25   1 H        0.860     0.162     1.322     1.801

Wiberg/Mayer (AO) data.
largest (>0.10) Wiberg bond orders for each atom

     #   Z sym  total        # sym  WBO       # sym  WBO       # sym  WBO
 ---------------------------------------------------------------------------
     1   6 C    3.896 --    16 H    0.972    15 H    0.972    17 H    0.968
                             8 O    0.944
     2   7 N    3.736 --     3 C    2.398     6 C    1.244
     3   6 C    3.849 --     2 N    2.398    18 H    0.938     6 C    0.191
     4   7 N    3.084 --     5 C    1.775    25 H    0.939    13 N    0.102
     5   6 C    3.967 --     4 N    1.775    13 N    1.124     6 C    0.947
     6   6 C    3.886 --     7 C    1.267     2 N    1.244     5 C    0.947
                             3 C    0.191
     7   6 C    3.945 --     9 N    1.287     6 C    1.267     8 O    1.184
     8   8 O    2.371 --     7 C    1.184     1 C    0.944
     9   7 N    3.603 --     7 C    1.287    11 C    0.997    10 C    0.968
                            12 O    0.103
    10   6 C    3.916 --    19 H    0.973     9 N    0.968    21 H    0.962
                            20 H    0.962
    11   6 C    3.961 --    12 O    1.718    13 N    1.157     9 N    0.997
    12   8 O    2.074 --    11 C    1.718    13 N    0.152     9 N    0.103
    13   7 N    3.585 --    11 C    1.157     5 C    1.124    14 C    0.961
                            12 O    0.152     4 N    0.102
    14   6 C    3.913 --    24 H    0.969    22 H    0.967    23 H    0.967
                            13 N    0.961
    15   1 H    0.994 --     1 C    0.972
    16   1 H    0.994 --     1 C    0.972
    17   1 H    0.985 --     1 C    0.968
    18   1 H    0.961 --     3 C    0.938
    19   1 H    0.989 --    10 C    0.973
    20   1 H    0.983 --    10 C    0.962
    21   1 H    0.983 --    10 C    0.962
    22   1 H    0.989 --    14 C    0.967
    23   1 H    0.989 --    14 C    0.967
    24   1 H    0.986 --    14 C    0.969
    25   1 H    0.972 --     4 N    0.939
 ---------------------------------------------------------------------------

molecular dipole:
                 x           y           z       tot (Debye)
 q only:        2.844       0.159       0.012
   full:        3.664       0.317       0.018       9.347

           -------------------------------------------------
          | TOTAL ENERGY              -42.119772291211 Eh   |
          | GRADIENT NORM               0.008695290630 Eh/α |
          | HOMO-LUMO GAP               2.270266934696 eV   |
           -------------------------------------------------

 * finished run on 2024/06/05 at 19:57:53.975
