   * xtb version 6.6.1 (8d0f1dd) compiled by 'conda@1efc2f54142f' on 2023-08-01
          program call               : xtb struc.xyz --opt loose --input .xc1 --gfn2

   ID    Z sym.   atoms
    1    6 C      1, 3, 5-7, 10, 11, 14
    2    7 N      2, 4, 9, 13
    3    8 O      8, 12
    4    1 H      15-25
constraining bond 6 8 to    4.7600000 Å, actual value:    2.3687222 Å

          :  Hamiltonian                  GFN2-xTB          :
 * total energy  :   -32.0378117 Eh     change       -0.6650680E-10 Eh
 * total energy  :   -35.8610475 Eh     change       -0.3823236E+01 Eh
 * total energy  :   -38.7511715 Eh     change       -0.2890124E+01 Eh
 * total energy  :   -40.5151770 Eh     change       -0.1764006E+01 Eh
 * total energy  :   -41.3218034 Eh     change       -0.8066264E+00 Eh
 * total energy  :   -41.4808761 Eh     change       -0.1590727E+00 Eh
 * total energy  :   -41.5344848 Eh     change       -0.5360872E-01 Eh
 * total energy  :   -41.5904067 Eh     change       -0.5592186E-01 Eh
 * total energy  :   -41.6354782 Eh     change       -0.4507148E-01 Eh
 * total energy  :   -41.6636301 Eh     change       -0.2815189E-01 Eh
 * total energy  :   -42.1570823 Eh     change       -0.3241015E-03 Eh
 * total energy  :   -42.1573154 Eh     change       -0.2331044E-03 Eh
 * total energy  :   -42.1575585 Eh     change       -0.2430629E-03 Eh
 * total energy  :   -42.1577276 Eh     change       -0.1690922E-03 Eh
 * total energy  :   -42.1578808 Eh     change       -0.1532526E-03 Eh
 * total energy  :   -42.1580091 Eh     change       -0.1282889E-03 Eh
 * total energy  :   -42.1580604 Eh     change       -0.5129754E-04 Eh
 * total energy  :   -42.1581164 Eh     change       -0.5602271E-04 Eh
 * total energy  :   -42.1581422 Eh     change       -0.2574436E-04 Eh
   *** GEOMETRY OPTIMIZATION CONVERGED AFTER 75 ITERATIONS ***

 final structure:
================
25
 xtb: 6.6.1 (8d0f1dd)
C            3.42678739667849        0.85808003473288        0.31881044059885
N            2.41437894841700       -0.14645336289864        0.14776885082880
C            2.59067551808652       -1.45947990637830        0.02931542721228
N            1.39005838705459       -2.08024205072352       -0.10275130967730
C            0.42273195125032       -1.12647635719597       -0.06436829105056
C            1.06481986242741        0.10608366202837        0.09806589696980
C            0.31555610588399        1.30907932769695        0.14314458601369
O           -2.91573797181520        2.61753039149982       -0.55546041262990
N           -1.01601001813124        1.15067053675665        0.05655900922533
C           -1.88048328916153        2.35968035258694        0.31822155978382
C           -1.71279834897854       -0.06084111741820       -0.05737707450206
O           -2.90467311182394       -0.13899306467859       -0.07090300190889
N           -0.91145873147948       -1.22992768788468       -0.15220372303886
C           -1.57605204210609       -2.51131947805071       -0.29334092935369
H            3.87253161751338        0.78758093292912        1.31232116362832
H            4.21221154113466        0.73936055351395       -0.42683461376410
H            2.95687635028517        1.83334320748034        0.20866353888709
H            3.53612300018556       -1.96334416406258        0.03143920239422
H           -2.59617690208531        2.95712478890961       -1.40160327363805
H           -2.35765420193311        2.18156570338214        1.28940664567736
H           -1.16204980399882        3.18607608992843        0.39712377471230
H           -1.37548572844304       -3.14317093386010        0.57283206454913
H           -1.24973475581885       -3.01018963794637       -1.20627936387226
H           -2.64726378825942       -2.32040679386924       -0.35254819425485
H            1.26325952920979       -3.07709248488253       -0.20883035488943

          :  Hamiltonian                  GFN2-xTB          :
         :: total energy             -42.158142170969 Eh    ::
         :: gradient norm              0.002053706671 Eh/a0 ::
         :: HOMO-LUMO gap              1.700798377304 eV    ::
         :: SCC energy               -42.659371845147 Eh    ::
         :: -> dispersion             -0.022078963527 Eh    ::
         :: repulsion energy           0.501025510467 Eh    ::

    * Orbital Energies and Occupations

         #    Occupation            Energy/Eh            Energy/eV
      -------------------------------------------------------------
         1        2.0000           -0.9032793             -24.5795
       ...           ...                  ...                  ...
        25        2.0000           -0.6652325             -18.1019
        26        2.0000           -0.6593063             -17.9406
        27        2.0000           -0.6521898             -17.7470
        28        1.9999           -0.6328990             -17.2221
        29        1.9999           -0.6270298             -17.0624
        30        1.9998           -0.6211241             -16.9016
        31        1.9998           -0.6169525             -16.7881
        32        1.9994           -0.6024026             -16.3922
        33        1.9976           -0.5801200             -15.7859
        34        1.9974           -0.5789288             -15.7535
        35        1.9866           -0.5529813             -15.0474
        36        1.9857           -0.5518922             -15.0178
        37        1.7597           -0.5053109             -13.7502 (HOMO)
        38        0.2477           -0.4428077             -12.0494 (LUMO)
        39        0.0238           -0.4038309             -10.9888
        40        0.0028           -0.3699898             -10.0679
        41        0.0000           -0.2864881              -7.7957
        42        0.0000           -0.2096173              -5.7040
        43                         -0.1914178              -5.2087
        44                         -0.1424774              -3.8770
        45                         -0.1342570              -3.6533
        46                         -0.0744238              -2.0252
        47                         -0.0470584              -1.2805
        48                         -0.0438788              -1.1940
       ...                                ...                  ...
        67                          0.5474588              14.8971
      -------------------------------------------------------------
                  HL-Gap            0.0625032 Eh            1.7008 eV

     #   Z          covCN         q      C6AA      α(0)
     1   6 C        3.692    -0.090    22.402     6.773
     2   7 N        2.825     0.070    20.028     6.647
     3   6 C        3.056     0.049    26.847     8.497
     4   7 N        2.784    -0.064    22.478     7.041
     5   6 C        3.041     0.116    25.413     8.268
     6   6 C        3.117     0.021    27.381     8.571
     7   6 C        1.916    -0.120    34.445     9.478
     8   8 O        1.657    -0.374    20.343     6.089
     9   7 N        2.743    -0.044    22.096     6.981
    10   6 C        3.619     0.130    18.889     6.267
    11   6 C        2.715     0.318    21.601     7.608
    12   8 O        0.859    -0.339    20.508     6.072
    13   7 N        2.738    -0.053    22.271     7.009
    14   6 C        3.697    -0.070    22.009     6.711
    15   1 H        0.924     0.106     1.729     2.056
    16   1 H        0.925     0.103     1.754     2.071
    17   1 H        0.925     0.121     1.602     1.979
    18   1 H        0.926     0.117     1.641     2.003
    19   1 H        0.805     0.317     0.673     1.289
    20   1 H        0.924     0.100     1.787     2.091
    21   1 H        0.924     0.078     1.999     2.211
    22   1 H        0.924     0.080     1.976     2.198
    23   1 H        0.924     0.080     1.982     2.201
    24   1 H        0.925     0.125     1.575     1.962
    25   1 H        0.860     0.223     0.995     1.562

Wiberg/Mayer (AO) data.
largest (>0.10) Wiberg bond orders for each atom

     #   Z sym  total        # sym  WBO       # sym  WBO       # sym  WBO
 ---------------------------------------------------------------------------
     1   6 C    3.925 --     2 N    0.989    17 H    0.969    16 H    0.965
                            15 H    0.958
     2   7 N    3.644 --     3 C    1.382     6 C    1.140     1 C    0.989
     3   6 C    3.801 --     2 N    1.382     4 N    1.254    18 H    0.955
     4   7 N    3.583 --     3 C    1.254     5 C    1.202    25 H    0.920
     5   6 C    3.906 --     6 C    1.281    13 N    1.234     4 N    1.202
     6   6 C    3.897 --     5 C    1.281     7 C    1.231     2 N    1.140
     7   6 C    2.770 --     9 N    1.355     6 C    1.231
     8   8 O    2.036 --    10 C    1.068    19 H    0.884
     9   7 N    3.582 --     7 C    1.355    11 C    1.072    10 C    0.903
                            12 O    0.116
    10   6 C    3.918 --     8 O    1.068    21 H    0.957    20 H    0.949
                             9 N    0.903
    11   6 C    3.937 --    12 O    1.741     9 N    1.072    13 N    1.030
    12   8 O    2.077 --    11 C    1.741    13 N    0.133     9 N    0.116
    13   7 N    3.554 --     5 C    1.234    11 C    1.030    14 C    0.975
                            12 O    0.133
    14   6 C    3.927 --    13 N    0.975    23 H    0.971    22 H    0.970
                            24 H    0.964
    15   1 H    0.984 --     1 C    0.958
    16   1 H    0.986 --     1 C    0.965
    17   1 H    0.985 --     1 C    0.969
    18   1 H    0.985 --     3 C    0.955
    19   1 H    0.899 --     8 O    0.884
    20   1 H    0.985 --    10 C    0.949
    21   1 H    0.989 --    10 C    0.957
    22   1 H    0.991 --    14 C    0.970
    23   1 H    0.991 --    14 C    0.971
    24   1 H    0.984 --    14 C    0.964
    25   1 H    0.949 --     4 N    0.920
 ---------------------------------------------------------------------------

molecular dipole:
                 x           y           z       tot (Debye)
 q only:        3.087      -1.278      -0.099
   full:        3.415      -2.032      -0.252      10.122

           -------------------------------------------------
          | TOTAL ENERGY              -42.158142170969 Eh   |
          | GRADIENT NORM               0.002053706671 Eh/α |
          | HOMO-LUMO GAP               1.700798377304 eV   |
           -------------------------------------------------

 * finished run on 2024/06/05 at 19:57:56.231
