   * xtb version 6.6.1 (8d0f1dd) compiled by 'conda@1efc2f54142f' on 2023-08-01
          program call               : xtb struc.xyz --opt loose --input .xc1 --gfn2

   ID    Z sym.   atoms
    1    7 N      1, 17
    2    6 C      2-6, 8, 9, 11-16, 18-23, 25, 26, 28-33
    3    8 O      7, 10, 24, 27
    4    1 H      34-72
constraining bond 20 61 to    2.7133300 Å, actual value:    2.1372506 Å

          :  Hamiltonian                  GFN2-xTB          :
 * total energy  :   -99.4633869 Eh     change       -0.4035485E-08 Eh
 * total energy  :   -99.5378624 Eh     change       -0.7447543E-01 Eh
 * total energy  :   -99.6211652 Eh     change       -0.8330280E-01 Eh
 * total energy  :   -99.6736047 Eh     change       -0.5243953E-01 Eh
 * total energy  :   -99.6945939 Eh     change       -0.2098920E-01 Eh
 * total energy  :   -99.7202180 Eh     change       -0.2562408E-01 Eh
 * total energy  :   -99.7231304 Eh     change       -0.2912466E-02 Eh
 * total energy  :   -99.7498255 Eh     change       -0.2669505E-01 Eh
 * total energy  :   -99.7586701 Eh     change       -0.8844649E-02 Eh
 * total energy  :   -99.7739625 Eh     change       -0.1529239E-01 Eh
 * total energy  :   -99.8605400 Eh     change       -0.9872018E-04 Eh
 * total energy  :   -99.8606200 Eh     change       -0.8001175E-04 Eh
 * total energy  :   -99.8607102 Eh     change       -0.9020481E-04 Eh
 * total energy  :   -99.8608225 Eh     change       -0.1122522E-03 Eh
 * total energy  :   -99.8609499 Eh     change       -0.1274267E-03 Eh
 * total energy  :   -99.8610790 Eh     change       -0.1290970E-03 Eh
 * total energy  :   -99.8611948 Eh     change       -0.1157816E-03 Eh
 * total energy  :   -99.8612515 Eh     change       -0.5667528E-04 Eh
 * total energy  :   -99.8612939 Eh     change       -0.4238757E-04 Eh
   *** GEOMETRY OPTIMIZATION CONVERGED AFTER 45 ITERATIONS ***

 final structure:
================
72
 xtb: 6.6.1 (8d0f1dd)
N           -1.58761032277588        2.71148431986967        2.30838573331698
C           -1.58577565753985        2.03963795742587        1.25565661641021
C           -2.76944070208985        1.87607377986609        0.34269698168358
C           -3.27639923460706        0.44370114064669        0.41884858409257
C           -4.19789799699971       -0.01713165288059       -0.52379309977194
C           -4.70116991025442       -1.30611306425024       -0.47362794414132
O           -5.58699493713617       -1.83158836413380       -1.34575657382767
C           -6.10696741322058       -1.02181970021126       -2.37354790766053
C           -4.27718669306852       -2.18322280469941        0.56104470360932
O           -4.82046633944364       -3.41665791468248        0.53406348661352
C           -4.51307562467659       -4.32313447579652        1.56741857307928
C           -3.36577104194438       -1.71807395982444        1.49540862152455
C           -2.87132390887352       -0.42189582214290        1.42280531230707
C           -2.24679255847475        2.18253259865202       -1.08448370916422
C           -1.35454172352021        1.08070601006155       -1.68124188095024
C            0.02227345145838        1.05165075936136       -1.13622333967977
N            0.69542827316707       -0.04625914671694       -0.80823377887795
C            2.13334251089853       -0.01730949787630       -0.67504823267083
C            2.80172318545123       -0.56260972607066       -1.93980262068836
C            4.35244004584167       -0.58410317519681       -1.81798039145168
C            4.91003460815068        0.81553457701848       -1.79674718799898
C            5.88270126728433        1.19705256073600       -0.93539254745498
C            6.36250231285795        0.33766792232534        0.07777980776736
O            7.35615983026386        0.60643883961768        0.91759016817910
C            8.10896311634024        1.79350252441870        0.77718759710868
C            5.71903308568593       -0.94375317039595        0.24905195870452
O            6.14445299486731       -1.66119977593890        1.31754960406960
C            5.58649500852380       -2.94723979944844        1.44659560386858
C            4.75883379864179       -1.34783588027052       -0.61242243180178
C            0.05184185392411       -1.33415760930317       -0.70492075725151
C           -3.95559953321066        2.82600513617559        0.68694079784061
C           -4.57028666936801        2.48814361034167        2.04302234135380
C           -3.57192881459966        4.30263572437100        0.64940506215554
H           -4.53708510272665        0.64792954028665       -1.30036285969129
H           -6.64231231482249       -0.15615275226719       -1.97163423508506
H           -6.80504669589791       -1.65443067098012       -2.91841878697194
H           -5.32033508948131       -0.68274970612706       -3.05598132773520
H           -4.80691034177118       -3.93036697160203        2.54523236400558
H           -5.09041276496249       -5.21960717806661        1.35035763236688
H           -3.44734956647643       -4.57283672922410        1.57884343096058
H           -3.03809747691469       -2.35566339843293        2.30023499095258
H           -2.18400847184560       -0.08664638535946        2.18401483791804
H           -3.09983868139005        2.32549908711400       -1.74661544409549
H           -1.68906354193123        3.11954824155276       -1.06190211047888
H           -1.84716244330892        0.11538783457108       -1.57979763841982
H           -1.26357788550043        1.29683552983728       -2.75419213377067
H           -0.69019791161955        1.52336964920603        0.85543783913223
H            0.59081425636412        1.96953861858338       -1.17309628586334
H            2.43791842842207       -0.62858721457472        0.17879262071620
H            2.46500626325558        1.00799011409902       -0.49915665975380
H            2.51535219243148        0.04837312364665       -2.79806449421500
H            2.46589853972007       -1.58473290030231       -2.11596060025708
H            4.54894909635444        1.49668891534342       -2.55332537028081
H            6.29618830901489        2.19143117605376       -1.01259624459735
H            7.49904097252843        2.67843066879582        0.98242944453383
H            8.54642277167554        1.87190459317334       -0.22251858195164
H            8.90448175986206        1.72450559218453        1.51747709952128
H            6.05145824082706       -3.39619350193708        2.32185616544175
H            4.50179064286305       -2.88825521033895        1.58541880691039
H            5.79397792237879       -3.55260186036952        0.55940627513018
H            4.64691616727023       -0.97940590216977       -2.50530668906777
H           -0.21730604324877       -1.72849727968843       -1.68730561022836
H           -0.85423792724901       -1.25714829949223       -0.09966972280456
H            0.73215567912049       -2.03407508557077       -0.22581903646548
H           -4.71960471920900        2.65417222960675       -0.08023226809676
H           -3.84090290598297        2.64355228195463        2.83135659283904
H           -4.91145932838205        1.45634389432236        2.07445797785435
H           -5.42338663581183        3.13588338192710        2.22700892877626
H           -2.79307830481534        4.50837068359104        1.37703968128581
H           -3.23350893373171        4.61015957712672       -0.33633863535603
H           -4.44102751653645        4.90303466404281        0.90447235335375
H           -0.72094130302877        2.77447925092702        2.83349338580103

          :  Hamiltonian                  GFN2-xTB          :
         :: total energy             -99.861293866774 Eh    ::
         :: gradient norm              0.001614374432 Eh/a0 ::
         :: HOMO-LUMO gap              0.753302589214 eV    ::
         :: SCC energy              -100.671770953171 Eh    ::
         :: -> dispersion             -0.075048623623 Eh    ::
         :: repulsion energy           1.431594492824 Eh    ::

    * Orbital Energies and Occupations

         #    Occupation            Energy/Eh            Energy/eV
      -------------------------------------------------------------
         1        2.0000           -0.8228160             -22.3900
       ...           ...                  ...                  ...
        78        1.9987           -0.5308070             -14.4440
        79        1.9983           -0.5273000             -14.3486
        80        1.9983           -0.5264877             -14.3265
        81        1.9975           -0.5206680             -14.1681
        82        1.9974           -0.5200871             -14.1523
        83        1.9960           -0.5133346             -13.9685
        84        1.9952           -0.5106391             -13.8952
        85        1.9944           -0.5080064             -13.8236
        86        1.9810           -0.4885609             -13.2944
        87        1.9400           -0.4700273             -12.7901
        88        1.9303           -0.4675730             -12.7233
        89        1.8718           -0.4574452             -12.4477
        90        1.3733           -0.4274176             -11.6306 (HOMO)
        91        0.5522           -0.3997343             -10.8773 (LUMO)
        92        0.3598           -0.3909739             -10.6389
        93        0.0147           -0.3372676              -9.1775
        94        0.0035           -0.3143981              -8.5552
        95        0.0029           -0.3113931              -8.4734
        96        0.0021           -0.3061559              -8.3309
        97        0.0000           -0.2227990              -6.0627
        98        0.0000           -0.1886515              -5.1335
        99                         -0.1369266              -3.7260
       100                         -0.0674057              -1.8342
       101                         -0.0658650              -1.7923
       ...                                ...                  ...
       171                          0.7929717              21.5779
      -------------------------------------------------------------
                  HL-Gap            0.0276834 Eh            0.7533 eV

     #   Z          covCN         q      C6AA      α(0)
     1   7 N        1.774    -0.269    27.810     7.809
     2   6 C        2.827     0.102    25.735     8.313
     3   6 C        3.908     0.006    20.413     6.422
     4   6 C        2.974     0.002    27.973     8.676
     5   6 C        2.920    -0.080    30.012     8.984
     6   6 C        2.862     0.129    25.169     8.223
     7   8 O        1.706    -0.230    17.821     5.700
     8   6 C        3.644     0.028    20.443     6.499
     9   6 C        2.864     0.129    25.178     8.225
    10   8 O        1.706    -0.229    17.792     5.695
    11   6 C        3.645     0.027    20.459     6.501
    12   6 C        2.914    -0.074    29.847     8.959
    13   6 C        2.921    -0.053    29.317     8.879
    14   6 C        3.813    -0.065    21.732     6.635
    15   6 C        3.802    -0.069    21.819     6.650
    16   6 C        2.842     0.004    27.916     8.659
    17   7 N        2.730     0.009    21.098     6.822
    18   6 C        3.753    -0.018    20.952     6.527
    19   6 C        3.805    -0.066    21.762     6.641
    20   6 C        3.865    -0.030    21.063     6.526
    21   6 C        2.904    -0.046    29.148     8.853
    22   6 C        2.898    -0.064    29.590     8.919
    23   6 C        2.861     0.142    24.899     8.179
    24   8 O        1.706    -0.193    17.229     5.604
    25   6 C        3.644     0.021    20.558     6.517
    26   6 C        2.862     0.131    25.128     8.217
    27   8 O        1.705    -0.242    18.014     5.730
    28   6 C        3.659     0.028    20.376     6.478
    29   6 C        1.981    -0.163    35.692     9.648
    30   6 C        3.700    -0.071    22.033     6.713
    31   6 C        3.853    -0.007    20.668     6.466
    32   6 C        3.756    -0.119    22.829     6.813
    33   6 C        3.755    -0.118    22.817     6.811
    34   1 H        0.926     0.051     2.301     2.372
    35   1 H        0.924     0.054     2.275     2.359
    36   1 H        0.925     0.081     1.971     2.195
    37   1 H        0.924     0.046     2.369     2.407
    38   1 H        0.924     0.055     2.256     2.349
    39   1 H        0.925     0.081     1.969     2.195
    40   1 H        0.924     0.049     2.337     2.391
    41   1 H        0.926     0.053     2.285     2.364
    42   1 H        0.926     0.040     2.449     2.447
    43   1 H        0.925     0.059     2.212     2.326
    44   1 H        0.924     0.053     2.288     2.365
    45   1 H        0.925     0.066     2.128     2.281
    46   1 H        0.923     0.078     2.001     2.212
    47   1 H        0.922     0.006     2.964     2.693
    48   1 H        0.926     0.066     2.132     2.284
    49   1 H        0.924     0.075     2.036     2.231
    50   1 H        0.924     0.064     2.151     2.293
    51   1 H        0.924     0.049     2.334     2.389
    52   1 H        0.925     0.063     2.162     2.300
    53   1 H        0.926     0.053     2.287     2.365
    54   1 H        0.926     0.059     2.215     2.327
    55   1 H        0.924     0.060     2.194     2.316
    56   1 H        0.924     0.062     2.172     2.304
    57   1 H        0.925     0.088     1.897     2.154
    58   1 H        0.925     0.075     2.028     2.227
    59   1 H        0.924     0.047     2.363     2.404
    60   1 H        0.924     0.056     2.251     2.346
    61   1 H        0.930     0.127     1.554     1.949
    62   1 H        0.924     0.075     2.036     2.231
    63   1 H        0.924     0.080     1.984     2.202
    64   1 H        0.925     0.082     1.954     2.186
    65   1 H        0.924     0.037     2.492     2.469
    66   1 H        0.925     0.069     2.098     2.265
    67   1 H        0.925     0.036     2.506     2.476
    68   1 H        0.925     0.051     2.307     2.375
    69   1 H        0.925     0.060     2.201     2.320
    70   1 H        0.925     0.034     2.532     2.488
    71   1 H        0.925     0.054     2.269     2.356
    72   1 H        0.860     0.156     1.359     1.826

Wiberg/Mayer (AO) data.
largest (>0.10) Wiberg bond orders for each atom

     #   Z sym  total        # sym  WBO       # sym  WBO       # sym  WBO
 ---------------------------------------------------------------------------
     1   7 N    3.039 --     2 C    1.956    72 H    0.942
     2   6 C    3.929 --     1 N    1.956     3 C    0.995    47 H    0.902
     3   6 C    3.976 --     2 C    0.995     4 C    0.969    14 C    0.959
                            31 C    0.941
     4   6 C    3.949 --    13 C    1.414     5 C    1.367     3 C    0.969
     5   6 C    3.962 --     6 C    1.402     4 C    1.367    34 H    0.958
     6   6 C    3.905 --     5 C    1.402     9 C    1.222     7 O    1.098
     7   8 O    2.254 --     6 C    1.098     8 C    0.979
     8   6 C    3.933 --     7 O    0.979    36 H    0.977    37 H    0.974
                            35 H    0.973
     9   6 C    3.902 --    12 C    1.392     6 C    1.222    10 O    1.102
    10   8 O    2.252 --     9 C    1.102    11 C    0.977
    11   6 C    3.931 --    10 O    0.977    39 H    0.977    40 H    0.974
                            38 H    0.973
    12   6 C    3.962 --    13 C    1.404     9 C    1.392    41 H    0.964
    13   6 C    3.955 --     4 C    1.414    12 C    1.404    42 H    0.963
    14   6 C    3.974 --    15 C    0.983    44 H    0.972    43 H    0.969
                             3 C    0.959
    15   6 C    3.985 --    16 C    1.057    14 C    0.983    45 H    0.961
                            46 H    0.926
    16   6 C    3.581 --    17 N    1.396    15 C    1.057    48 H    0.958
    17   7 N    3.473 --    16 C    1.396    30 C    0.998    18 C    0.987
    18   6 C    3.955 --    17 N    0.987    19 C    0.986    50 H    0.967
                            49 H    0.959
    19   6 C    3.944 --    18 C    0.986    51 H    0.976    52 H    0.974
                            20 C    0.941
    20   6 C    3.949 --    29 C    1.035    21 C    0.997    19 C    0.941
                            61 H    0.909
    21   6 C    3.725 --    22 C    1.645    20 C    0.997    53 H    0.962
    22   6 C    3.971 --    21 C    1.645    23 C    1.247    54 H    0.955
    23   6 C    3.671 --    22 C    1.247    24 O    1.168    26 C    1.128
    24   8 O    2.288 --    23 C    1.168    25 C    0.965
    25   6 C    3.919 --    57 H    0.976    56 H    0.973    55 H    0.971
                            24 O    0.965
    26   6 C    3.875 --    29 C    1.538    23 C    1.128    27 O    1.073
    27   8 O    2.220 --    26 C    1.073    28 C    0.979
    28   6 C    3.928 --    27 O    0.979    58 H    0.979    60 H    0.973
                            59 H    0.973
    29   6 C    2.828 --    26 C    1.538    20 C    1.035
    30   6 C    3.957 --    17 N    0.998    64 H    0.976    62 H    0.965
                            63 H    0.964
    31   6 C    3.973 --    33 C    1.009    32 C    1.008    65 H    0.961
                             3 C    0.941
    32   6 C    3.979 --    31 C    1.008    67 H    0.982    68 H    0.981
                            66 H    0.974
    33   6 C    3.983 --    31 C    1.009    70 H    0.983    71 H    0.980
                            69 H    0.977
    34   1 H    0.996 --     5 C    0.958
    35   1 H    0.993 --     8 C    0.973
    36   1 H    0.993 --     8 C    0.977
    37   1 H    0.994 --     8 C    0.974
    38   1 H    0.993 --    11 C    0.973
    39   1 H    0.993 --    11 C    0.977
    40   1 H    0.993 --    11 C    0.974
    41   1 H    0.996 --    12 C    0.964
    42   1 H    0.998 --    13 C    0.963
    43   1 H    0.995 --    14 C    0.969
    44   1 H    0.996 --    14 C    0.972
    45   1 H    0.995 --    15 C    0.961
    46   1 H    0.969 --    15 C    0.926
    47   1 H    0.987 --     2 C    0.902
    48   1 H    0.995 --    16 C    0.958
    49   1 H    0.990 --    18 C    0.959
    50   1 H    0.995 --    18 C    0.967
    51   1 H    0.997 --    19 C    0.976
    52   1 H    0.995 --    19 C    0.974
    53   1 H    0.988 --    21 C    0.962
    54   1 H    0.989 --    22 C    0.955
    55   1 H    0.990 --    25 C    0.971
    56   1 H    0.991 --    25 C    0.973
    57   1 H    0.991 --    25 C    0.976
    58   1 H    0.993 --    28 C    0.979
    59   1 H    0.993 --    28 C    0.973
    60   1 H    0.993 --    28 C    0.973
    61   1 H    0.961 --    20 C    0.909
    62   1 H    0.984 --    30 C    0.965
    63   1 H    0.988 --    30 C    0.964
    64   1 H    0.993 --    30 C    0.976
    65   1 H    0.993 --    31 C    0.961
    66   1 H    0.991 --    32 C    0.974
    67   1 H    0.997 --    32 C    0.982
    68   1 H    0.994 --    32 C    0.981
    69   1 H    0.993 --    33 C    0.977
    70   1 H    0.997 --    33 C    0.983
    71   1 H    0.994 --    33 C    0.980
    72   1 H    0.970 --     1 N    0.942
 ---------------------------------------------------------------------------

molecular dipole:
                 x           y           z       tot (Debye)
 q only:        1.135       0.223      -1.202
   full:        1.678       0.481      -1.530       5.900

           -------------------------------------------------
          | TOTAL ENERGY              -99.861293866774 Eh   |
          | GRADIENT NORM               0.001614374432 Eh/α |
          | HOMO-LUMO GAP               0.753302589214 eV   |
           -------------------------------------------------

 * finished run on 2024/04/06 at 11:16:58.748
