   * xtb version 6.6.1 (8d0f1dd) compiled by 'conda@1efc2f54142f' on 2023-08-01
          program call               : xtb xtbopt.xyz --opt crude --input .xc2 --gfn2

   ID    Z sym.   atoms
    1    7 N      1, 17
    2    6 C      2-6, 8, 9, 11-16, 18-23, 25, 26, 28-33
    3    8 O      7, 10, 24, 27
    4    1 H      34-72
########################################################################
[WARNING] Please study the warnings concerning your input carefully
-1- readin_getIntValue: could not parse ''
########################################################################

          :  Hamiltonian                  GFN2-xTB          :
 * total energy  :   -99.2385675 Eh     change       -0.8088819E-10 Eh
 * total energy  :   -99.2994906 Eh     change       -0.6092304E-01 Eh
 * total energy  :   -99.3010300 Eh     change       -0.1539442E-02 Eh
 * total energy  :   -99.3017513 Eh     change       -0.7212559E-03 Eh
 * total energy  :   -99.3017940 Eh     change       -0.4270039E-04 Eh
   *** GEOMETRY OPTIMIZATION CONVERGED AFTER 5 ITERATIONS ***

 final structure:
================
72
 xtb: 6.6.1 (8d0f1dd)
N           -1.58463292212135        2.71578312902735        2.30373873938293
C           -1.58514890308218        2.04154842560196        1.25252276060502
C           -2.77070601583792        1.87744517222474        0.34202460768097
C           -3.27545118457737        0.44430425915274        0.41824711555248
C           -4.19740334112562       -0.01735279580306       -0.52353079025086
C           -4.69926939529622       -1.30686536519741       -0.47318582638736
O           -5.58601579754900       -1.83267524321118       -1.34405032598006
C           -6.11113416785954       -1.02165708847523       -2.36805777795644
C           -4.27289261610348       -2.18408776679989        0.56036340678254
O           -4.81524573861362       -3.41791578783751        0.53356441445028
C           -4.50974306255385       -4.32320126043472        1.56858415988514
C           -3.36046940553200       -1.71845885891075        1.49351367578358
C           -2.86786116784841       -0.42149880482721        1.42108438446779
C           -2.25299107146292        2.18680416535328       -1.08635801075965
C           -1.36486631218211        1.08560736376604       -1.69001594976850
C            0.01170318395100        1.05317902121208       -1.14593801857467
N            0.68179247280473       -0.04512923837889       -0.81434111212812
C            2.11838584141711       -0.01501759656409       -0.67426716563885
C            2.79965074922912       -0.56103597162445       -1.93485388110306
C            4.33260058281176       -0.55922207235429       -1.76875272699943
C            4.91174902711426        0.81824773321901       -1.78590472473571
C            5.89163105137882        1.19697745496119       -0.92954953245204
C            6.36586917941382        0.33882123163553        0.08674600284325
O            7.35792735241578        0.60861127898192        0.92877566293794
C            8.10695012759847        1.79807181117380        0.79051293572994
C            5.72498134514886       -0.94289002521747        0.25794701290711
O            6.16010841153796       -1.66566013518692        1.31866751697034
C            5.59855488834350       -2.95015164424849        1.45002139272289
C            4.75653524243367       -1.34445452246149       -0.59726838791254
C            0.03842854237228       -1.33326296218446       -0.71254749974517
C           -3.95664704114567        2.82621600115912        0.68958160863878
C           -4.56712349991354        2.48884794849895        2.04763591999560
C           -3.57389432554957        4.30306531309115        0.64990997658454
H           -4.53793869104437        0.64749483809731       -1.29968574101781
H           -6.64382763997997       -0.15629728797849       -1.96237398775654
H           -6.81227017551030       -1.65352286242402       -2.90966268451209
H           -5.32815857703546       -0.68212366490191       -3.05426464550474
H           -4.80336894059156       -3.92821828398978        2.54560882618701
H           -5.08857490648947       -5.21906558578411        1.35279603302888
H           -3.44446743497981       -4.57483460787142        1.58094067504824
H           -3.03055923304629       -2.35632725389290        2.29724286992699
H           -2.17991801718499       -0.08606361747671        2.18167427366046
H           -3.10835270632534        2.33382314814169       -1.74460144168885
H           -1.69307586368739        3.12247308062219       -1.06297609062192
H           -1.85833275099739        0.12041340796648       -1.59188846439340
H           -1.27476767009844        1.30642654952866       -2.76214192449343
H           -0.69135976337021        1.52197199842176        0.85322343364545
H            0.58154551039692        1.97032961582573       -1.18047588375357
H            2.41960919155679       -0.62523072767637        0.18233632724107
H            2.44806125812174        1.01116323081487       -0.49727578759942
H            2.51894973439567        0.04806568837367       -2.79597497971397
H            2.46981357240714       -1.58497792712362       -2.10989214338017
H            4.55272144426625        1.49645880020785       -2.54540795139548
H            6.31680481164454        2.18588790798098       -1.01626290901634
H            7.49392261513125        2.68098021750291        0.99295515707170
H            8.54767135619081        1.87708200457131       -0.20704539091750
H            8.89963459362780        1.73187485548132        1.53316196721037
H            6.06376570222812       -3.39948460137989        2.32411384622734
H            4.51476169734492       -2.88747539045953        1.59182401444857
H            5.79989592181273       -3.55652999844634        0.56225886874878
H            4.72502841615563       -1.07791385147924       -2.66073523566277
H           -0.22752892376991       -1.72792675901158       -1.69576141796029
H           -0.86920836168988       -1.25667556328022       -0.10945726385948
H            0.71813897221834       -2.03264707139783       -0.23154377672066
H           -4.72276349958041        2.65320204208975       -0.07525604893572
H           -3.83661143477384        2.64850882156760        2.83401850090222
H           -4.90435698238915        1.45583552254536        2.08183817446013
H           -5.42221577126201        3.13378441121743        2.23198926400105
H           -2.79487417349038        4.51008479762237        1.37713711050549
H           -3.23559610811655        4.60958578265891       -0.33638173159671
H           -4.44342210367689        4.90341879213071        0.90413497479262
H           -0.71763150102887        2.77759589435539        2.82825646247151

          :  Hamiltonian                  GFN2-xTB          :
         :: total energy             -99.301793974099 Eh    ::
         :: gradient norm              0.000843463010 Eh/a0 ::
         :: HOMO-LUMO gap              0.761832192691 eV    ::
         :: SCC energy              -100.651788810139 Eh    ::
         :: -> dispersion             -0.075036723294 Eh    ::
         :: repulsion energy           1.348386415184 Eh    ::

    * Orbital Energies and Occupations

         #    Occupation            Energy/Eh            Energy/eV
      -------------------------------------------------------------
         1        2.0000           -0.8224922             -22.3812
       ...           ...                  ...                  ...
        78        1.9987           -0.5306328             -14.4393
        79        1.9983           -0.5272678             -14.3477
        80        1.9983           -0.5265219             -14.3274
        81        1.9975           -0.5204675             -14.1626
        82        1.9972           -0.5191889             -14.1278
        83        1.9960           -0.5133311             -13.9685
        84        1.9953           -0.5106435             -13.8953
        85        1.9944           -0.5080270             -13.8241
        86        1.9811           -0.4885864             -13.2951
        87        1.9399           -0.4699592             -12.7882
        88        1.9288           -0.4671901             -12.7129
        89        1.8723           -0.4574766             -12.4486
        90        1.3757           -0.4274666             -11.6320 (HOMO)
        91        0.5466           -0.3994698             -10.8701 (LUMO)
        92        0.3640           -0.3911575             -10.6439
        93        0.0147           -0.3372545              -9.1772
        94        0.0035           -0.3144443              -8.5565
        95        0.0029           -0.3114423              -8.4748
        96        0.0020           -0.3058924              -8.3238
        97        0.0000           -0.2237282              -6.0880
        98        0.0000           -0.1887069              -5.1350
        99                         -0.1362544              -3.7077
       100                         -0.0669384              -1.8215
       101                         -0.0652225              -1.7748
       ...                                ...                  ...
       171                          0.5743873              15.6299
      -------------------------------------------------------------
                  HL-Gap            0.0279968 Eh            0.7618 eV

     #   Z          covCN         q      C6AA      α(0)
     1   7 N        1.774    -0.269    27.813     7.810
     2   6 C        2.827     0.102    25.736     8.313
     3   6 C        3.908     0.006    20.413     6.422
     4   6 C        2.974     0.002    27.976     8.676
     5   6 C        2.920    -0.080    30.013     8.984
     6   6 C        2.862     0.129    25.170     8.223
     7   8 O        1.706    -0.230    17.822     5.700
     8   6 C        3.644     0.028    20.442     6.499
     9   6 C        2.864     0.129    25.179     8.225
    10   8 O        1.706    -0.229    17.793     5.695
    11   6 C        3.645     0.027    20.459     6.501
    12   6 C        2.914    -0.074    29.848     8.959
    13   6 C        2.921    -0.053    29.318     8.879
    14   6 C        3.813    -0.065    21.731     6.635
    15   6 C        3.802    -0.069    21.818     6.650
    16   6 C        2.843     0.005    27.910     8.658
    17   7 N        2.730     0.010    21.093     6.821
    18   6 C        3.754    -0.017    20.941     6.525
    19   6 C        3.806    -0.065    21.747     6.639
    20   6 C        3.863    -0.006    20.651     6.462
    21   6 C        2.905    -0.044    29.081     8.842
    22   6 C        2.899    -0.064    29.592     8.919
    23   6 C        2.861     0.142    24.903     8.180
    24   8 O        1.706    -0.194    17.237     5.606
    25   6 C        3.645     0.021    20.557     6.517
    26   6 C        2.863     0.132    25.120     8.215
    27   8 O        1.705    -0.241    18.001     5.728
    28   6 C        3.659     0.028    20.379     6.478
    29   6 C        1.981    -0.160    35.619     9.638
    30   6 C        3.700    -0.071    22.032     6.713
    31   6 C        3.853    -0.007    20.668     6.466
    32   6 C        3.756    -0.119    22.829     6.813
    33   6 C        3.755    -0.118    22.818     6.811
    34   1 H        0.926     0.051     2.301     2.372
    35   1 H        0.924     0.054     2.276     2.359
    36   1 H        0.925     0.081     1.971     2.195
    37   1 H        0.924     0.046     2.369     2.407
    38   1 H        0.924     0.055     2.257     2.349
    39   1 H        0.925     0.081     1.970     2.195
    40   1 H        0.924     0.049     2.337     2.391
    41   1 H        0.926     0.053     2.286     2.364
    42   1 H        0.926     0.040     2.450     2.448
    43   1 H        0.925     0.059     2.211     2.325
    44   1 H        0.924     0.053     2.288     2.365
    45   1 H        0.925     0.066     2.127     2.281
    46   1 H        0.923     0.078     2.000     2.212
    47   1 H        0.922     0.005     2.970     2.695
    48   1 H        0.926     0.066     2.133     2.284
    49   1 H        0.924     0.074     2.040     2.234
    50   1 H        0.924     0.064     2.155     2.296
    51   1 H        0.924     0.050     2.324     2.384
    52   1 H        0.925     0.064     2.153     2.294
    53   1 H        0.926     0.053     2.282     2.362
    54   1 H        0.926     0.059     2.209     2.324
    55   1 H        0.924     0.060     2.196     2.317
    56   1 H        0.924     0.062     2.173     2.305
    57   1 H        0.925     0.088     1.897     2.154
    58   1 H        0.925     0.076     2.024     2.225
    59   1 H        0.924     0.047     2.360     2.403
    60   1 H        0.924     0.056     2.249     2.345
    61   1 H        0.923     0.095     1.827     2.114
    62   1 H        0.924     0.075     2.035     2.231
    63   1 H        0.924     0.080     1.982     2.201
    64   1 H        0.925     0.082     1.955     2.186
    65   1 H        0.924     0.037     2.493     2.469
    66   1 H        0.925     0.069     2.098     2.265
    67   1 H        0.925     0.036     2.507     2.476
    68   1 H        0.925     0.051     2.307     2.375
    69   1 H        0.925     0.060     2.199     2.319
    70   1 H        0.925     0.034     2.533     2.489
    71   1 H        0.925     0.054     2.270     2.356
    72   1 H        0.860     0.156     1.360     1.827

Wiberg/Mayer (AO) data.
largest (>0.10) Wiberg bond orders for each atom

     #   Z sym  total        # sym  WBO       # sym  WBO       # sym  WBO
 ---------------------------------------------------------------------------
     1   7 N    3.038 --     2 C    1.956    72 H    0.942
     2   6 C    3.929 --     1 N    1.956     3 C    0.995    47 H    0.902
     3   6 C    3.976 --     2 C    0.995     4 C    0.969    14 C    0.958
                            31 C    0.942
     4   6 C    3.949 --    13 C    1.414     5 C    1.367     3 C    0.969
     5   6 C    3.963 --     6 C    1.402     4 C    1.367    34 H    0.958
     6   6 C    3.905 --     5 C    1.402     9 C    1.222     7 O    1.098
     7   8 O    2.254 --     6 C    1.098     8 C    0.979
     8   6 C    3.933 --     7 O    0.979    36 H    0.977    37 H    0.974
                            35 H    0.973
     9   6 C    3.902 --    12 C    1.392     6 C    1.222    10 O    1.101
    10   8 O    2.252 --     9 C    1.101    11 C    0.977
    11   6 C    3.931 --    10 O    0.977    39 H    0.977    40 H    0.974
                            38 H    0.973
    12   6 C    3.962 --    13 C    1.404     9 C    1.392    41 H    0.964
    13   6 C    3.955 --     4 C    1.414    12 C    1.404    42 H    0.963
    14   6 C    3.974 --    15 C    0.983    44 H    0.972    43 H    0.969
                             3 C    0.958
    15   6 C    3.985 --    16 C    1.058    14 C    0.983    45 H    0.961
                            46 H    0.927
    16   6 C    3.580 --    17 N    1.396    15 C    1.058    48 H    0.958
    17   7 N    3.473 --    16 C    1.396    30 C    0.998    18 C    0.988
    18   6 C    3.955 --    17 N    0.988    19 C    0.983    50 H    0.967
                            49 H    0.959
    19   6 C    3.949 --    18 C    0.983    51 H    0.976    52 H    0.974
                            20 C    0.955
    20   6 C    3.955 --    29 C    1.045    21 C    1.008    19 C    0.955
                            61 H    0.884
    21   6 C    3.728 --    22 C    1.638    20 C    1.008    53 H    0.962
    22   6 C    3.971 --    21 C    1.638    23 C    1.250    54 H    0.956
    23   6 C    3.676 --    22 C    1.250    24 O    1.167    26 C    1.131
    24   8 O    2.288 --    23 C    1.167    25 C    0.965
    25   6 C    3.919 --    57 H    0.976    56 H    0.973    55 H    0.971
                            24 O    0.965
    26   6 C    3.876 --    29 C    1.533    23 C    1.131    27 O    1.075
    27   8 O    2.221 --    26 C    1.075    28 C    0.979
    28   6 C    3.928 --    27 O    0.979    58 H    0.979    60 H    0.973
                            59 H    0.973
    29   6 C    2.829 --    26 C    1.533    20 C    1.045
    30   6 C    3.957 --    17 N    0.998    64 H    0.976    62 H    0.965
                            63 H    0.963
    31   6 C    3.973 --    33 C    1.009    32 C    1.008    65 H    0.961
                             3 C    0.942
    32   6 C    3.979 --    31 C    1.008    67 H    0.982    68 H    0.981
                            66 H    0.974
    33   6 C    3.983 --    31 C    1.009    70 H    0.983    71 H    0.980
                            69 H    0.977
    34   1 H    0.996 --     5 C    0.958
    35   1 H    0.993 --     8 C    0.973
    36   1 H    0.993 --     8 C    0.977
    37   1 H    0.994 --     8 C    0.974
    38   1 H    0.993 --    11 C    0.973
    39   1 H    0.993 --    11 C    0.977
    40   1 H    0.993 --    11 C    0.974
    41   1 H    0.996 --    12 C    0.964
    42   1 H    0.998 --    13 C    0.963
    43   1 H    0.995 --    14 C    0.969
    44   1 H    0.996 --    14 C    0.972
    45   1 H    0.995 --    15 C    0.961
    46   1 H    0.969 --    15 C    0.927
    47   1 H    0.987 --     2 C    0.902
    48   1 H    0.995 --    16 C    0.958
    49   1 H    0.990 --    18 C    0.959
    50   1 H    0.995 --    18 C    0.967
    51   1 H    0.997 --    19 C    0.976
    52   1 H    0.995 --    19 C    0.974
    53   1 H    0.988 --    21 C    0.962
    54   1 H    0.989 --    22 C    0.956
    55   1 H    0.990 --    25 C    0.971
    56   1 H    0.991 --    25 C    0.973
    57   1 H    0.991 --    25 C    0.976
    58   1 H    0.993 --    28 C    0.979
    59   1 H    0.993 --    28 C    0.973
    60   1 H    0.993 --    28 C    0.973
    61   1 H    0.947 --    20 C    0.884
    62   1 H    0.984 --    30 C    0.965
    63   1 H    0.988 --    30 C    0.963
    64   1 H    0.993 --    30 C    0.976
    65   1 H    0.993 --    31 C    0.961
    66   1 H    0.991 --    32 C    0.974
    67   1 H    0.997 --    32 C    0.982
    68   1 H    0.994 --    32 C    0.981
    69   1 H    0.993 --    33 C    0.977
    70   1 H    0.997 --    33 C    0.983
    71   1 H    0.994 --    33 C    0.980
    72   1 H    0.970 --     1 N    0.942
 ---------------------------------------------------------------------------

molecular dipole:
                 x           y           z       tot (Debye)
 q only:        1.123       0.231      -1.186
   full:        1.662       0.479      -1.535       5.878

           -------------------------------------------------
          | TOTAL ENERGY              -99.301793974099 Eh   |
          | GRADIENT NORM               0.000843463010 Eh/α |
          | HOMO-LUMO GAP               0.761832192691 eV   |
           -------------------------------------------------

 * finished run on 2024/04/06 at 11:16:59.884
