   * xtb version 6.6.1 (8d0f1dd) compiled by 'conda@1efc2f54142f' on 2023-08-01
          program call               : xtb struc.xyz --opt loose --input .xc1 --gfn2

   ID    Z sym.   atoms
    1    6 C      1, 3, 5-7, 10, 11, 14
    2    7 N      2, 4, 9, 13
    3    8 O      8, 12
    4    1 H      15-25
constraining bond 2 9 to    5.8400000 Å, actual value:    3.6850118 Å

          :  Hamiltonian                  GFN2-xTB          :
 * total energy  :    -9.0799985 Eh     change       -0.6650680E-10 Eh
 * total energy  :   -26.3261089 Eh     change       -0.1724611E+02 Eh
 * total energy  :   -35.7016524 Eh     change       -0.9375543E+01 Eh
 * total energy  :   -40.2263480 Eh     change       -0.4524696E+01 Eh
 * total energy  :   -41.5368029 Eh     change       -0.1310455E+01 Eh
 * total energy  :   -41.6447150 Eh     change       -0.1079122E+00 Eh
 * total energy  :   -41.6875535 Eh     change       -0.4283847E-01 Eh
 * total energy  :   -41.7563181 Eh     change       -0.6876457E-01 Eh
 * total energy  :   -41.7899472 Eh     change       -0.3362908E-01 Eh
 * total energy  :   -41.8156473 Eh     change       -0.2570013E-01 Eh
 * total energy  :   -42.0594884 Eh     change       -0.4909357E-02 Eh
 * total energy  :   -42.0640228 Eh     change       -0.4534408E-02 Eh
 * total energy  :   -42.0661402 Eh     change       -0.2117441E-02 Eh
 * total energy  :   -42.0673538 Eh     change       -0.1213510E-02 Eh
 * total energy  :   -42.0678276 Eh     change       -0.4738758E-03 Eh
 * total energy  :   -42.0679527 Eh     change       -0.1251000E-03 Eh
 * total energy  :   -42.0680933 Eh     change       -0.1406082E-03 Eh
 * total energy  :   -42.0681515 Eh     change       -0.5815511E-04 Eh
 * total energy  :   -42.0681976 Eh     change       -0.4614719E-04 Eh
   *** GEOMETRY OPTIMIZATION CONVERGED AFTER 34 ITERATIONS ***

 final structure:
================
25
 xtb: 6.6.1 (8d0f1dd)
C            3.71137971095477        0.69221740556636        0.02475883796169
N            3.70008878080051       -0.71160232540882        0.02601154530228
C            2.76390269496739       -1.54150710255145        0.01389187404334
N            1.35562613554993       -1.48464915948536       -0.00848687779059
C            0.33493524804822       -0.57194226815494       -0.00437089577704
C            0.46359321540900        0.78831236962004       -0.00276592529062
C            0.31164886330402        2.05221497564899       -0.00705383611621
O            0.21325320264144        3.20432818549769       -0.01061298830050
N           -1.86585193444098        1.04964651744823       -0.00220062447733
C           -2.77195691841464        2.11073022704169       -0.00685338893968
C           -2.09967406025415       -0.24596174707147       -0.01246707673894
O           -3.19670921577939       -0.76585816338471       -0.02163650671865
N           -0.92512050967792       -1.08310627932352       -0.00671141307430
C           -1.19582784438073       -2.50607449348838       -0.00168356034844
H            4.19448272655380        1.03292825506077        0.94492538103894
H            4.33039329177832        1.02656600519913       -0.81182886430604
H            2.70926134714721        1.14372807342523       -0.05310129607463
H            3.07932001194825       -2.58157948968175        0.01884367786482
H           -2.20353957963247        3.04718499330401       -0.00875014283044
H           -3.40911921975481        2.08889180219806       -0.90024969363781
H           -3.40979623418878        2.09491136031911        0.88628554245035
H           -0.80860496777712       -2.98920445354709        0.89864167468513
H           -0.81789661392938       -2.99549679223194       -0.90242927085498
H           -2.28552273514456       -2.60796362421314        0.00272440364339
H            0.98216611837135       -2.42847573018529       -0.02370895781665

          :  Hamiltonian                  GFN2-xTB          :
         :: total energy             -42.068197639252 Eh    ::
         :: gradient norm              0.002975632603 Eh/a0 ::
         :: HOMO-LUMO gap              0.918055377959 eV    ::
         :: SCC energy               -42.643217169760 Eh    ::
         :: -> dispersion             -0.021117910885 Eh    ::
         :: repulsion energy           0.574904649603 Eh    ::

    * Orbital Energies and Occupations

         #    Occupation            Energy/Eh            Energy/eV
      -------------------------------------------------------------
         1        2.0000           -0.9003602             -24.5000
       ...           ...                  ...                  ...
        25        1.9998           -0.6681416             -18.1811
        26        1.9997           -0.6630681             -18.0430
        27        1.9992           -0.6445469             -17.5390
        28        1.9991           -0.6440886             -17.5265
        29        1.9984           -0.6344123             -17.2632
        30        1.9976           -0.6278262             -17.0840
        31        1.9968           -0.6234869             -16.9659
        32        1.9814           -0.5953441             -16.2001
        33        1.9458           -0.5780962             -15.7308
        34        1.9234           -0.5724422             -15.5769
        35        1.8866           -0.5659138             -15.3993
        36        1.7396           -0.5514666             -15.0062
        37        1.7016           -0.5489599             -14.9380 (HOMO)
        38        0.8075           -0.5152220             -14.0199 (LUMO)
        39        0.0234           -0.4511429             -12.2762
        40        0.0003           -0.3818088             -10.3895
        41        0.0000           -0.3432511              -9.3403
        42        0.0000           -0.3361515              -9.1471
        43        0.0000           -0.2736869              -7.4474
        44                         -0.2131365              -5.7997
        45                         -0.1522935              -4.1441
        46                         -0.1127343              -3.0677
        47                         -0.0859150              -2.3379
        48                         -0.0584066              -1.5893
       ...                                ...                  ...
        67                          1.2007256              32.6734
      -------------------------------------------------------------
                  HL-Gap            0.0337379 Eh            0.9181 eV

     #   Z          covCN         q      C6AA      α(0)
     1   6 C        3.692    -0.050    21.654     6.659
     2   7 N        1.820    -0.103    24.024     7.262
     3   6 C        2.756     0.110    25.551     8.277
     4   7 N        2.691    -0.116    23.532     7.205
     5   6 C        2.815     0.181    24.111     8.045
     6   6 C        1.995    -0.085    33.383     9.331
     7   6 C        1.843     0.272    24.925     8.065
     8   8 O        0.856    -0.165    17.508     5.610
     9   7 N        1.849    -0.176    25.628     7.503
    10   6 C        3.688    -0.035    21.403     6.622
    11   6 C        2.700     0.331    21.375     7.567
    12   8 O        0.859    -0.355    20.801     6.115
    13   7 N        2.759    -0.053    22.270     7.009
    14   6 C        3.697    -0.077    22.156     6.733
    15   1 H        0.924     0.116     1.650     2.009
    16   1 H        0.924     0.117     1.634     1.999
    17   1 H        0.923     0.073     2.051     2.240
    18   1 H        0.925     0.107     1.724     2.054
    19   1 H        0.924     0.123     1.593     1.974
    20   1 H        0.924     0.123     1.592     1.973
    21   1 H        0.924     0.123     1.589     1.971
    22   1 H        0.924     0.087     1.909     2.161
    23   1 H        0.924     0.087     1.910     2.161
    24   1 H        0.924     0.140     1.458     1.888
    25   1 H        0.860     0.228     0.976     1.547

Wiberg/Mayer (AO) data.
largest (>0.10) Wiberg bond orders for each atom

     #   Z sym  total        # sym  WBO       # sym  WBO       # sym  WBO
 ---------------------------------------------------------------------------
     1   6 C    3.891 --     2 N    1.069    16 H    0.932    15 H    0.931
                            17 H    0.908
     2   7 N    3.051 --     3 C    1.808     1 C    1.069
     3   6 C    3.929 --     2 N    1.808     4 N    1.083    18 H    0.931
     4   7 N    3.465 --     5 C    1.202     3 C    1.083    25 H    0.900
     5   6 C    3.948 --     6 C    1.340    13 N    1.237     4 N    1.202
     6   6 C    3.565 --     7 C    1.724     5 C    1.340     8 O    0.171
                             9 N    0.128
     7   6 C    3.871 --     8 O    1.973     6 C    1.724
     8   8 O    2.329 --     7 C    1.973     6 C    0.171
     9   7 N    2.830 --    11 C    1.309    10 C    1.093    12 O    0.134
                             6 C    0.128
    10   6 C    3.868 --     9 N    1.093    19 H    0.918    20 H    0.904
                            21 H    0.903
    11   6 C    3.935 --    12 O    1.588     9 N    1.309    13 N    0.971
    12   8 O    1.897 --    11 C    1.588     9 N    0.134
    13   7 N    3.515 --     5 C    1.237    14 C    0.989    11 C    0.971
    14   6 C    3.913 --    13 N    0.989    22 H    0.958    23 H    0.958
                            24 H    0.942
    15   1 H    0.970 --     1 C    0.931
    16   1 H    0.968 --     1 C    0.932
    17   1 H    0.945 --     1 C    0.908
    18   1 H    0.973 --     3 C    0.931
    19   1 H    0.951 --    10 C    0.918
    20   1 H    0.925 --    10 C    0.904
    21   1 H    0.924 --    10 C    0.903
    22   1 H    0.983 --    14 C    0.958
    23   1 H    0.983 --    14 C    0.958
    24   1 H    0.976 --    14 C    0.942
    25   1 H    0.946 --     4 N    0.900
 ---------------------------------------------------------------------------

molecular dipole:
                 x           y           z       tot (Debye)
 q only:        1.574      -0.796       0.013
   full:        1.348      -0.921       0.008       4.150

           -------------------------------------------------
          | TOTAL ENERGY              -42.068197639252 Eh   |
          | GRADIENT NORM               0.002975632603 Eh/α |
          | HOMO-LUMO GAP               0.918055377959 eV   |
           -------------------------------------------------

 * finished run on 2024/06/05 at 20:00:06.179
