   * xtb version 6.6.1 (8d0f1dd) compiled by 'conda@1efc2f54142f' on 2023-08-01
          program call               : xtb xtbopt.xyz --opt crude --input .xc2 --gfn2

   ID    Z sym.   atoms
    1    6 C      1, 3, 5-7, 10, 11, 14
    2    7 N      2, 4, 9, 13
    3    8 O      8, 12
    4    1 H      15-25
########################################################################
[WARNING] Please study the warnings concerning your input carefully
-1- readin_getIntValue: could not parse ''
########################################################################

          :  Hamiltonian                  GFN2-xTB          :
 * total energy  :   -42.0682256 Eh     change       -0.2543743E-11 Eh
 * total energy  :   -42.0702346 Eh     change       -0.2008974E-02 Eh
 * total energy  :   -42.0721857 Eh     change       -0.1951117E-02 Eh
 * total energy  :   -42.0712777 Eh     change        0.9080258E-03 Eh
 * total energy  :   -42.0744543 Eh     change       -0.3176642E-02 Eh
 * total energy  :   -42.0776134 Eh     change       -0.3159060E-02 Eh
 * total energy  :   -42.0845624 Eh     change       -0.6949079E-02 Eh
 * total energy  :   -42.1022415 Eh     change       -0.1767903E-01 Eh
 * total energy  :   -42.1219971 Eh     change       -0.1975567E-01 Eh
 * total energy  :   -42.1321482 Eh     change       -0.1015110E-01 Eh
 * total energy  :   -42.1458877 Eh     change       -0.8656623E-03 Eh
 * total energy  :   -42.1468958 Eh     change       -0.1008106E-02 Eh
 * total energy  :   -42.1477674 Eh     change       -0.8716048E-03 Eh
 * total energy  :   -42.1487296 Eh     change       -0.9621854E-03 Eh
 * total energy  :   -42.1496724 Eh     change       -0.9428005E-03 Eh
 * total energy  :   -42.1504882 Eh     change       -0.8158576E-03 Eh
 * total energy  :   -42.1511827 Eh     change       -0.6944572E-03 Eh
 * total energy  :   -42.1515896 Eh     change       -0.4069091E-03 Eh
 * total energy  :   -42.1518167 Eh     change       -0.2270931E-03 Eh
   *** GEOMETRY OPTIMIZATION CONVERGED AFTER 22 ITERATIONS ***

 final structure:
================
25
 xtb: 6.6.1 (8d0f1dd)
C            3.23899096799255        0.98296077261046        0.01841288101724
N            3.41086339429512       -0.36838140494402        0.03200056149867
C            2.66289594274020       -1.36972215303657        0.02668991339516
N            1.28151844826294       -1.51635896407619        0.00073183242415
C            0.18502523516115       -0.71170394954557       -0.00101680464027
C           -0.04419028930839        0.68588474456888        0.00403951425732
C            0.78055966337701        1.78829572661080        0.01282564385279
O            0.76302788065583        2.96836748581150        0.02457407683267
N           -1.43735389731931        0.86381978571208       -0.01021720458503
C           -2.18028497841512        2.09920515904949       -0.00983876387702
C           -2.06571672419207       -0.34681196669039       -0.01911012071372
O           -3.23773596017865       -0.58481714164240       -0.03048872068260
N           -1.03133001499354       -1.30997081070289       -0.01260341317265
C           -1.33105791089274       -2.71907308207295       -0.01227799406213
H            3.67417488889572        1.44428362373461        0.90791086489901
H            3.68459963022630        1.42723297514635       -0.87572406886332
H            2.10112008965929        1.30415693272843        0.00821169733032
H            3.15897455382867       -2.33371237532387        0.03976175880300
H           -1.50706815177634        2.95108428775404       -0.02153208212153
H           -2.82768038200325        2.13122996141808       -0.88760473377963
H           -2.81192922291294        2.14388339425870        0.87906554504879
H           -0.94794642501492       -3.20698298545039        0.88601308145186
H           -0.94638678779551       -3.20899317296574       -0.90867468084507
H           -2.41935586302046       -2.80105230495024       -0.01337637726690
H            1.00671742682798       -2.49458599640097       -0.00660078830440

          :  Hamiltonian                  GFN2-xTB          :
         :: total energy             -42.151816696066 Eh    ::
         :: gradient norm              0.005879032825 Eh/a0 ::
         :: HOMO-LUMO gap              2.108164265081 eV    ::
         :: SCC energy               -42.692276692810 Eh    ::
         :: -> dispersion             -0.022000247005 Eh    ::
         :: repulsion energy           0.540328611765 Eh    ::

    * Orbital Energies and Occupations

         #    Occupation            Energy/Eh            Energy/eV
      -------------------------------------------------------------
         1        2.0000           -0.9127341             -24.8368
       ...           ...                  ...                  ...
        25        2.0000           -0.6768591             -18.4183
        26        2.0000           -0.6744420             -18.3525
        27        1.9999           -0.6608128             -17.9816
        28        1.9999           -0.6516946             -17.7335
        29        1.9998           -0.6478522             -17.6290
        30        1.9996           -0.6332510             -17.2316
        31        1.9995           -0.6329235             -17.2227
        32        1.9990           -0.6196713             -16.8621
        33        1.9961           -0.5986562             -16.2903
        34        1.9890           -0.5823675             -15.8470
        35        1.9856           -0.5779964             -15.7281
        36        1.9601           -0.5617198             -15.2852
        37        1.8224           -0.5369033             -14.6099 (HOMO)
        38        0.1429           -0.4594297             -12.5017 (LUMO)
        39        0.1043           -0.4541161             -12.3571
        40        0.0020           -0.3908627             -10.6359
        41        0.0001           -0.3417187              -9.2986
        42        0.0000           -0.3175992              -8.6423
        43                         -0.1967881              -5.3549
        44                         -0.1909496              -5.1960
        45                         -0.1170200              -3.1843
        46                         -0.1041391              -2.8338
        47                         -0.0788528              -2.1457
        48                         -0.0480452              -1.3074
       ...                                ...                  ...
        67                          0.6433649              17.5069
      -------------------------------------------------------------
                  HL-Gap            0.0774736 Eh            2.1082 eV

     #   Z          covCN         q      C6AA      α(0)
     1   6 C        3.669    -0.026    21.293     6.615
     2   7 N        1.822    -0.122    24.419     7.322
     3   6 C        2.759     0.108    25.603     8.286
     4   7 N        2.689    -0.118    23.574     7.211
     5   6 C        2.912     0.123    25.309     8.249
     6   6 C        3.004    -0.003    28.094     8.695
     7   6 C        2.364     0.218    24.223     8.010
     8   8 O        0.856    -0.203    18.112     5.706
     9   7 N        2.809    -0.046    22.127     6.986
    10   6 C        3.691    -0.067    21.970     6.707
    11   6 C        2.830     0.312    21.704     7.634
    12   8 O        0.857    -0.355    20.798     6.114
    13   7 N        2.830    -0.057    22.343     7.020
    14   6 C        3.689    -0.073    22.096     6.728
    15   1 H        0.924     0.123     1.587     1.970
    16   1 H        0.924     0.123     1.587     1.970
    17   1 H        1.419     0.110     1.687     2.028
    18   1 H        0.925     0.110     1.695     2.036
    19   1 H        0.925     0.101     1.778     2.085
    20   1 H        0.924     0.106     1.734     2.059
    21   1 H        0.924     0.105     1.740     2.063
    22   1 H        0.924     0.086     1.917     2.165
    23   1 H        0.924     0.086     1.914     2.164
    24   1 H        0.924     0.129     1.546     1.944
    25   1 H        0.860     0.230     0.966     1.540

Wiberg/Mayer (AO) data.
largest (>0.10) Wiberg bond orders for each atom

     #   Z sym  total        # sym  WBO       # sym  WBO       # sym  WBO
 ---------------------------------------------------------------------------
     1   6 C    3.905 --     2 N    1.179    15 H    0.934    16 H    0.934
                            17 H    0.623     8 O    0.106
     2   7 N    3.279 --     3 C    1.766     1 C    1.179     4 N    0.108
     3   6 C    3.931 --     2 N    1.766     4 N    1.111    18 H    0.936
     4   7 N    3.502 --     5 C    1.197     3 C    1.111    25 H    0.906
                             2 N    0.108
     5   6 C    3.880 --    13 N    1.247     6 C    1.239     4 N    1.197
     6   6 C    3.875 --     7 C    1.289     5 C    1.239     9 N    1.062
     7   6 C    3.782 --     8 O    1.893     6 C    1.289    17 H    0.322
     8   8 O    2.287 --     7 C    1.893     1 C    0.106
     9   7 N    3.481 --    11 C    1.148     6 C    1.062    10 C    0.988
                            12 O    0.148
    10   6 C    3.912 --     9 N    0.988    19 H    0.969    20 H    0.958
                            21 H    0.957
    11   6 C    3.947 --    12 O    1.685     9 N    1.148    13 N    1.019
    12   8 O    2.009 --    11 C    1.685     9 N    0.148    13 N    0.113
    13   7 N    3.562 --     5 C    1.247    11 C    1.019    14 C    0.988
                            12 O    0.113
    14   6 C    3.929 --    13 N    0.988    22 H    0.964    23 H    0.964
                            24 H    0.961
    15   1 H    0.979 --     1 C    0.934
    16   1 H    0.979 --     1 C    0.934
    17   1 H    0.981 --     1 C    0.623     7 C    0.322
    18   1 H    0.983 --     3 C    0.936
    19   1 H    0.988 --    10 C    0.969
    20   1 H    0.976 --    10 C    0.958
    21   1 H    0.976 --    10 C    0.957
    22   1 H    0.987 --    14 C    0.964
    23   1 H    0.987 --    14 C    0.964
    24   1 H    0.983 --    14 C    0.961
    25   1 H    0.946 --     4 N    0.906
 ---------------------------------------------------------------------------

molecular dipole:
                 x           y           z       tot (Debye)
 q only:        1.969      -1.050       0.007
   full:        1.961      -1.204       0.006       5.849

           -------------------------------------------------
          | TOTAL ENERGY              -42.151816696066 Eh   |
          | GRADIENT NORM               0.005879032825 Eh/α |
          | HOMO-LUMO GAP               2.108164265081 eV   |
           -------------------------------------------------

 * finished run on 2024/06/05 at 20:00:06.891
