   * xtb version 6.6.1 (8d0f1dd) compiled by 'conda@1efc2f54142f' on 2023-08-01
          program call               : xtb struc.xyz --opt loose --input .xc1 --gfn2

   ID    Z sym.   atoms
    1    6 C      1, 3, 5-7, 10, 11, 14
    2    7 N      2, 4, 9, 13
    3    8 O      8, 12
    4    1 H      15-25
constraining bond 2 18 to    4.0600000 Å, actual value:    2.1303834 Å

          :  Hamiltonian                  GFN2-xTB          :
 * total energy  :   -15.6547147 Eh     change       -0.6650680E-10 Eh
 * total energy  :   -30.6526615 Eh     change       -0.1499795E+02 Eh
 * total energy  :   -38.2470086 Eh     change       -0.7594347E+01 Eh
 * total energy  :   -41.3271018 Eh     change       -0.3080093E+01 Eh
 * total energy  :   -41.8353024 Eh     change       -0.5082006E+00 Eh
 * total energy  :   -41.8502653 Eh     change       -0.1496290E-01 Eh
 * total energy  :   -41.8585404 Eh     change       -0.8275114E-02 Eh
 * total energy  :   -41.8818858 Eh     change       -0.2334538E-01 Eh
 * total energy  :   -41.9068585 Eh     change       -0.2497266E-01 Eh
 * total energy  :   -41.9242063 Eh     change       -0.1734785E-01 Eh
 * total energy  :   -42.0770044 Eh     change       -0.2810371E-02 Eh
 * total energy  :   -42.0789950 Eh     change       -0.1990617E-02 Eh
 * total energy  :   -42.0809134 Eh     change       -0.1918395E-02 Eh
 * total energy  :   -42.0819268 Eh     change       -0.1013406E-02 Eh
 * total energy  :   -42.0824102 Eh     change       -0.4834175E-03 Eh
 * total energy  :   -42.0828532 Eh     change       -0.4430018E-03 Eh
 * total energy  :   -42.0830123 Eh     change       -0.1590697E-03 Eh
 * total energy  :   -42.0830668 Eh     change       -0.5454398E-04 Eh
 * total energy  :   -42.0830809 Eh     change       -0.1408051E-04 Eh
   *** GEOMETRY OPTIMIZATION CONVERGED AFTER 35 ITERATIONS ***

 final structure:
================
25
 xtb: 6.6.1 (8d0f1dd)
C            3.09109745792331        1.73512591397351        0.05375033939995
N            2.35384222439069        0.56689136573102        0.05172451968370
C            2.62848675711502       -2.39128891762105       -0.08134568450505
N            1.35240871353395       -2.19608090487831       -0.01942691832071
C            0.58832202300292       -1.03490177779097        0.00214946201897
C            1.10041740736176        0.29766546873079        0.01445697789564
C            0.09928272550171        1.43208221783845       -0.01427618443374
O            0.45568345353302        2.58650374594441       -0.03817168478681
N           -1.21889245152165        1.07683232602796       -0.00690651780409
C           -2.22865301000181        2.13009430656296       -0.01628557028798
C           -1.71245497332669       -0.20866568424366        0.01301193811044
O           -2.89159838504486       -0.43734662353099        0.02878028054370
N           -0.76616337825993       -1.24389470523306        0.00739799656228
C           -1.34040769390304       -2.58203317856291        0.00179053513941
H            3.62768049178075        1.80971611082976        1.00428969983193
H            3.84587551768985        1.66633304087445       -0.73861682506205
H            2.47856288462754        2.63845448862905       -0.08983015181604
H            2.97774188185092       -3.44015781073481       -0.09977172497011
H           -1.72421761142662        3.09286916618215       -0.00498160437551
H           -2.84588266802957        2.03628971075844       -0.90945188298334
H           -2.86994991954923        2.02618044664779        0.85838740194526
H           -1.06781078877055       -3.14064029892392        0.89984761418601
H           -1.07824378522792       -3.12750676396991       -0.90719528890469
H           -2.42562354170678       -2.45743948749107        0.01008187014422
H            0.73092818255721       -3.01684361415033        0.01176302068902

          :  Hamiltonian                  GFN2-xTB          :
         :: total energy             -42.083080894436 Eh    ::
         :: gradient norm              0.002237852970 Eh/a0 ::
         :: HOMO-LUMO gap              0.203625603264 eV    ::
         :: SCC energy               -42.590228885440 Eh    ::
         :: -> dispersion             -0.021929205832 Eh    ::
         :: repulsion energy           0.507008977026 Eh    ::

    * Orbital Energies and Occupations

         #    Occupation            Energy/Eh            Energy/eV
      -------------------------------------------------------------
         1        2.0000           -0.8921156             -24.2757
       ...           ...                  ...                  ...
        25        1.9999           -0.6740907             -18.3429
        26        1.9999           -0.6677048             -18.1692
        27        1.9995           -0.6441481             -17.5282
        28        1.9994           -0.6415841             -17.4584
        29        1.9992           -0.6370050             -17.3338
        30        1.9987           -0.6284222             -17.1002
        31        1.9972           -0.6164476             -16.7744
        32        1.9946           -0.6058180             -16.4851
        33        1.9919           -0.5994611             -16.3122
        34        1.9843           -0.5887950             -16.0219
        35        1.9706           -0.5788068             -15.7501
        36        1.6537           -0.5369614             -14.6115
        37        1.2977           -0.5219267             -14.2023 (HOMO)
        38        1.0706           -0.5144435             -13.9987 (LUMO)
        39        0.0406           -0.4508078             -12.2671
        40        0.0018           -0.4009068             -10.9092
        41        0.0005           -0.3809761             -10.3669
        42        0.0000           -0.2978562              -8.1051
        43                         -0.2101178              -5.7176
        44                         -0.1707184              -4.6455
        45                         -0.1475991              -4.0164
        46                         -0.1171381              -3.1875
        47                         -0.0905091              -2.4629
        48                         -0.0443628              -1.2072
       ...                                ...                  ...
        67                          0.5471878              14.8897
      -------------------------------------------------------------
                  HL-Gap            0.0074831 Eh            0.2036 eV

     #   Z          covCN         q      C6AA      α(0)
     1   6 C        3.688    -0.058    21.818     6.686
     2   7 N        1.833    -0.083    23.602     7.199
     3   6 C        1.841    -0.066    32.957     9.274
     4   7 N        2.688     0.008    21.128     6.827
     5   6 C        2.833     0.098    25.821     8.327
     6   6 C        2.883     0.054    26.796     8.486
     7   6 C        2.769     0.268    22.477     7.765
     8   8 O        0.859    -0.326    20.261     6.035
     9   7 N        2.738    -0.064    22.477     7.041
    10   6 C        3.710    -0.063    21.855     6.681
    11   6 C        2.726     0.318    21.595     7.608
    12   8 O        0.860    -0.352    20.743     6.106
    13   7 N        2.744    -0.052    22.237     7.004
    14   6 C        3.702    -0.082    22.221     6.740
    15   1 H        0.924     0.132     1.519     1.928
    16   1 H        0.924     0.132     1.519     1.927
    17   1 H        0.923     0.144     1.436     1.874
    18   1 H        0.922     0.118     1.632     1.998
    19   1 H        0.925     0.114     1.660     2.015
    20   1 H        0.925     0.106     1.735     2.060
    21   1 H        0.925     0.106     1.727     2.055
    22   1 H        0.924     0.091     1.871     2.139
    23   1 H        0.924     0.091     1.870     2.138
    24   1 H        0.924     0.142     1.449     1.883
    25   1 H        0.859     0.225     0.988     1.557

Wiberg/Mayer (AO) data.
largest (>0.10) Wiberg bond orders for each atom

     #   Z sym  total        # sym  WBO       # sym  WBO       # sym  WBO
 ---------------------------------------------------------------------------
     1   6 C    3.858 --     2 N    1.122    16 H    0.907    15 H    0.903
                            17 H    0.870
     2   7 N    2.842 --     6 C    1.576     1 C    1.122
     3   6 C    2.630 --     4 N    1.584    18 H    0.922
     4   7 N    3.657 --     3 C    1.584     5 C    1.125    25 H    0.856
     5   6 C    3.686 --    13 N    1.204     6 C    1.198     4 N    1.125
     6   6 C    3.918 --     2 N    1.576     5 C    1.198     7 C    0.927
     7   6 C    3.891 --     8 O    1.700     9 N    1.167     6 C    0.927
     8   8 O    2.021 --     7 C    1.700     9 N    0.138
     9   7 N    3.551 --     7 C    1.167    11 C    1.106    10 C    0.959
                             8 O    0.138    12 O    0.119
    10   6 C    3.894 --    19 H    0.968    21 H    0.960    20 H    0.960
                             9 N    0.959
    11   6 C    3.940 --    12 O    1.692     9 N    1.106    13 N    1.058
    12   8 O    2.011 --    11 C    1.692     9 N    0.119    13 N    0.112
    13   7 N    3.479 --     5 C    1.204    11 C    1.058    14 C    0.978
                            12 O    0.112
    14   6 C    3.915 --    13 N    0.978    23 H    0.959    22 H    0.958
                            24 H    0.948
    15   1 H    0.943 --     1 C    0.903
    16   1 H    0.941 --     1 C    0.907
    17   1 H    0.904 --     1 C    0.870
    18   1 H    0.942 --     3 C    0.922
    19   1 H    0.984 --    10 C    0.968
    20   1 H    0.980 --    10 C    0.960
    21   1 H    0.980 --    10 C    0.960
    22   1 H    0.982 --    14 C    0.958
    23   1 H    0.982 --    14 C    0.959
    24   1 H    0.977 --    14 C    0.948
    25   1 H    0.907 --     4 N    0.856
 ---------------------------------------------------------------------------

molecular dipole:
                 x           y           z       tot (Debye)
 q only:        1.535      -1.459       0.021
   full:        1.337      -1.816       0.034       5.732

           -------------------------------------------------
          | TOTAL ENERGY              -42.083080894436 Eh   |
          | GRADIENT NORM               0.002237852970 Eh/α |
          | HOMO-LUMO GAP               0.203625603264 eV   |
           -------------------------------------------------

 * finished run on 2024/06/05 at 20:00:08.029
