   * xtb version 6.6.1 (8d0f1dd) compiled by 'conda@1efc2f54142f' on 2023-08-01
          program call               : xtb xtbopt.xyz --opt crude --input .xc2 --gfn2

   ID    Z sym.   atoms
    1    6 C      1, 3, 5-7, 10, 11, 14
    2    7 N      2, 4, 9, 13
    3    8 O      8, 12
    4    1 H      15-25
########################################################################
[WARNING] Please study the warnings concerning your input carefully
-1- readin_getIntValue: could not parse ''
########################################################################

          :  Hamiltonian                  GFN2-xTB          :
 * total energy  :   -42.0831051 Eh     change       -0.9499956E-11 Eh
 * total energy  :   -42.0870216 Eh     change       -0.3916515E-02 Eh
 * total energy  :   -42.0934583 Eh     change       -0.6436644E-02 Eh
 * total energy  :   -42.1027511 Eh     change       -0.9292845E-02 Eh
 * total energy  :   -42.1285902 Eh     change       -0.2583912E-01 Eh
 * total energy  :   -42.2016019 Eh     change       -0.7301168E-01 Eh
 * total energy  :   -42.1653663 Eh     change        0.3623562E-01 Eh
 * total energy  :   -42.2313887 Eh     change       -0.6602242E-01 Eh
 * total energy  :   -42.2313161 Eh     change        0.7261030E-04 Eh
 * total energy  :   -42.2400648 Eh     change       -0.8748732E-02 Eh
 * total energy  :   -42.2439998 Eh     change       -0.3934995E-02 Eh
 * total energy  :   -42.2462478 Eh     change       -0.2247926E-02 Eh
 * total energy  :   -42.2472514 Eh     change       -0.1003613E-02 Eh
 * total energy  :   -42.2477059 Eh     change       -0.4545001E-03 Eh
 * total energy  :   -42.2478595 Eh     change       -0.1536326E-03 Eh
   *** GEOMETRY OPTIMIZATION CONVERGED AFTER 15 ITERATIONS ***

 final structure:
================
25
 xtb: 6.6.1 (8d0f1dd)
C            3.22233203569009        1.14778142266722        0.02073119607329
N            2.26857209244077        0.07067863537995        0.00367760679322
C            2.54523319842476       -1.22561906544838       -0.00162985288206
N            1.39682908803274       -1.94310016678343       -0.00366494605371
C            0.35406926067513       -1.06145257322802        0.00283476055183
C            0.90523113849128        0.21033390019755        0.00733317037129
C            0.06794983484853        1.39937223727228       -0.00259734170238
O            0.46508370166274        2.53896395925217       -0.01431542302826
N           -1.28397465943272        1.05941528752697       -0.00008184851779
C           -2.24757431263703        2.15421147172852       -0.00747872914400
C           -1.85290726949950       -0.20218930562845        0.00222378952270
O           -3.03734710844137       -0.37790414039523        0.00271453355194
N           -0.96415475453553       -1.30298288961197        0.00286888278897
C           -1.50176269553856       -2.64854118154665       -0.00381877840725
H            3.76581292273500        1.15596630663795        0.96514252978392
H            3.93681632365332        1.03352591922018       -0.79384789069799
H            2.68784841493148        2.08939898589249       -0.09043544228018
H            3.52789599082700       -1.65264300100638       -0.00654125403971
H           -1.69702464552734        3.09130281107890        0.01144683339917
H           -2.86465305955425        2.09662924118080       -0.90352829658026
H           -2.89725864304700        2.07785232329586        0.86349002700870
H           -1.18688129575676       -3.18983323196571        0.88872557983901
H           -1.18531157175796       -3.18143925851588       -0.90077623061202
H           -2.58748977840328       -2.56569126748040       -0.00424210794043
H            1.32309730581835       -2.95579787812061       -0.00705914989779

          :  Hamiltonian                  GFN2-xTB          :
         :: total energy             -42.247859512436 Eh    ::
         :: gradient norm              0.007106331127 Eh/a0 ::
         :: HOMO-LUMO gap              3.300767609708 eV    ::
         :: SCC energy               -42.775957047551 Eh    ::
         :: -> dispersion             -0.022646688447 Eh    ::
         :: repulsion energy           0.527984126305 Eh    ::

    * Orbital Energies and Occupations

         #    Occupation            Energy/Eh            Energy/eV
      -------------------------------------------------------------
         1        2.0000           -0.9178542             -24.9761
       ...           ...                  ...                  ...
        25        2.0000           -0.6690881             -18.2068
        26        2.0000           -0.6655998             -18.1119
        27        1.9999           -0.6571799             -17.8828
        28        1.9998           -0.6365875             -17.3224
        29        1.9997           -0.6314709             -17.1832
        30        1.9996           -0.6261233             -17.0377
        31        1.9996           -0.6231346             -16.9564
        32        1.9994           -0.6193499             -16.8534
        33        1.9977           -0.5971520             -16.2493
        34        1.9928           -0.5787195             -15.7478
        35        1.9809           -0.5631959             -15.3253
        36        1.9760           -0.5596055             -15.2276
        37        1.9740           -0.5583109             -15.1924 (HOMO)
        38        0.0691           -0.4370100             -11.8916 (LUMO)
        39        0.0102           -0.4061914             -11.0530
        40        0.0012           -0.3729202             -10.1477
        41        0.0000           -0.2890942              -7.8667
        42                         -0.2065215              -5.6197
        43                         -0.2024926              -5.5101
        44                         -0.1472593              -4.0071
        45                         -0.1329336              -3.6173
        46                         -0.0833860              -2.2690
        47                         -0.0486894              -1.3249
        48                         -0.0373776              -1.0171
       ...                                ...                  ...
        67                          0.5587199              15.2035
      -------------------------------------------------------------
                  HL-Gap            0.1213010 Eh            3.3008 eV

     #   Z          covCN         q      C6AA      α(0)
     1   6 C        3.692    -0.096    22.526     6.791
     2   7 N        2.833     0.090    19.688     6.590
     3   6 C        3.065     0.052    26.778     8.486
     4   7 N        2.795    -0.059    22.382     7.027
     5   6 C        3.044     0.115    25.418     8.269
     6   6 C        3.129    -0.024    28.393     8.724
     7   6 C        2.764     0.274    22.371     7.746
     8   8 O        0.858    -0.362    20.943     6.136
     9   7 N        2.745    -0.085    22.890     7.106
    10   6 C        3.710    -0.062    21.838     6.678
    11   6 C        2.728     0.318    21.592     7.607
    12   8 O        0.859    -0.353    20.761     6.109
    13   7 N        2.738    -0.058    22.356     7.022
    14   6 C        3.697    -0.072    22.059     6.718
    15   1 H        0.925     0.111     1.691     2.034
    16   1 H        0.925     0.108     1.715     2.048
    17   1 H        0.925     0.138     1.473     1.898
    18   1 H        0.926     0.127     1.556     1.951
    19   1 H        0.925     0.114     1.666     2.019
    20   1 H        0.925     0.099     1.793     2.094
    21   1 H        0.925     0.100     1.786     2.090
    22   1 H        0.924     0.083     1.953     2.185
    23   1 H        0.924     0.082     1.955     2.186
    24   1 H        0.925     0.129     1.545     1.944
    25   1 H        0.860     0.232     0.957     1.532

Wiberg/Mayer (AO) data.
largest (>0.10) Wiberg bond orders for each atom

     #   Z sym  total        # sym  WBO       # sym  WBO       # sym  WBO
 ---------------------------------------------------------------------------
     1   6 C    3.912 --     2 N    0.984    16 H    0.961    17 H    0.961
                            15 H    0.956
     2   7 N    3.697 --     3 C    1.403     6 C    1.170     1 C    0.984
     3   6 C    3.869 --     2 N    1.403     4 N    1.272    18 H    0.952
     4   7 N    3.592 --     3 C    1.272     5 C    1.190    25 H    0.917
     5   6 C    3.952 --     6 C    1.351    13 N    1.222     4 N    1.190
     6   6 C    3.914 --     5 C    1.351     2 N    1.170     7 C    1.059
     7   6 C    3.952 --     8 O    1.693     9 N    1.108     6 C    1.059
     8   8 O    2.042 --     7 C    1.693     9 N    0.151
     9   7 N    3.556 --    11 C    1.122     7 C    1.108    10 C    0.968
                             8 O    0.151    12 O    0.136
    10   6 C    3.910 --     9 N    0.968    19 H    0.968    21 H    0.964
                            20 H    0.963
    11   6 C    3.957 --    12 O    1.714     9 N    1.122    13 N    1.029
    12   8 O    2.064 --    11 C    1.714     9 N    0.136    13 N    0.122
    13   7 N    3.553 --     5 C    1.222    11 C    1.029    14 C    0.974
                            12 O    0.122
    14   6 C    3.923 --    13 N    0.974    22 H    0.970    23 H    0.970
                            24 H    0.963
    15   1 H    0.985 --     1 C    0.956
    16   1 H    0.986 --     1 C    0.961
    17   1 H    0.981 --     1 C    0.961
    18   1 H    0.983 --     3 C    0.952
    19   1 H    0.985 --    10 C    0.968
    20   1 H    0.984 --    10 C    0.963
    21   1 H    0.984 --    10 C    0.964
    22   1 H    0.990 --    14 C    0.970
    23   1 H    0.990 --    14 C    0.970
    24   1 H    0.983 --    14 C    0.963
    25   1 H    0.946 --     4 N    0.917
 ---------------------------------------------------------------------------

molecular dipole:
                 x           y           z       tot (Debye)
 q only:        2.610      -2.007       0.012
   full:        2.901      -2.530       0.014       9.783

           -------------------------------------------------
          | TOTAL ENERGY              -42.247859512436 Eh   |
          | GRADIENT NORM               0.007106331127 Eh/α |
          | HOMO-LUMO GAP               3.300767609708 eV   |
           -------------------------------------------------

 * finished run on 2024/06/05 at 20:00:08.549
