   * xtb version 6.6.1 (8d0f1dd) compiled by 'conda@1efc2f54142f' on 2023-08-01
          program call               : xtb struc.xyz --opt loose --input .xc1 --gfn2

   ID    Z sym.   atoms
    1    6 C      1, 3, 5-7, 10, 11, 14
    2    7 N      2, 4, 9, 13
    3    8 O      8, 12
    4    1 H      15-25
constraining bond 5 12 to    5.7600000 Å, actual value:    3.4583605 Å

          :  Hamiltonian                  GFN2-xTB          :
 * total energy  :   -32.7863477 Eh     change       -0.6633627E-10 Eh
 * total energy  :   -36.5252846 Eh     change       -0.3738937E+01 Eh
 * total energy  :   -39.1397265 Eh     change       -0.2614442E+01 Eh
 * total energy  :   -40.6869022 Eh     change       -0.1547176E+01 Eh
 * total energy  :   -41.3536587 Eh     change       -0.6667565E+00 Eh
 * total energy  :   -41.5150673 Eh     change       -0.1614086E+00 Eh
 * total energy  :   -41.5608503 Eh     change       -0.4578299E-01 Eh
 * total energy  :   -41.6073833 Eh     change       -0.4653303E-01 Eh
 * total energy  :   -41.6397358 Eh     change       -0.3235252E-01 Eh
 * total energy  :   -41.6992827 Eh     change       -0.5954685E-01 Eh
 * total energy  :   -42.1069779 Eh     change        0.2540560E-04 Eh
 * total energy  :   -42.1086700 Eh     change       -0.1692114E-02 Eh
 * total energy  :   -42.1092942 Eh     change       -0.6241969E-03 Eh
 * total energy  :   -42.1099246 Eh     change       -0.6303191E-03 Eh
 * total energy  :   -42.1102739 Eh     change       -0.3493302E-03 Eh
 * total energy  :   -42.1104018 Eh     change       -0.1279281E-03 Eh
 * total energy  :   -42.1103935 Eh     change        0.8294362E-05 Eh
 * total energy  :   -42.1104896 Eh     change       -0.9609544E-04 Eh
 * total energy  :   -42.1105245 Eh     change       -0.3492470E-04 Eh
   *** GEOMETRY OPTIMIZATION CONVERGED AFTER 57 ITERATIONS ***

 final structure:
================
25
 xtb: 6.6.1 (8d0f1dd)
C            3.14346216409992        1.22068034205957       -0.02573055758475
N            2.31096838769133        0.04468453182802       -0.01075845234646
C            2.74534667222823       -1.20258872304851        0.09772375989309
N            1.70640779941960       -2.06872760484210        0.10318841796288
C            0.57828267784461       -1.33454518807825       -0.00662309580485
C            0.93985555189203        0.01811213832924       -0.08317207538656
C           -0.00524671490126        1.17242301945263       -0.18596918714363
O            0.38120963124626        2.31456137589805       -0.25188166441945
N           -1.36681465142921        0.80364705137440       -0.16723842449522
C           -2.42424670554316        2.04533806448278        0.18667532923913
C           -1.72503989542512       -0.49517336755637       -0.09712299035468
O           -3.45725672834060        2.69521939947829       -0.54963859114421
N           -0.79663024372150       -1.51431507708336       -0.04553434300802
C           -1.32417165964025       -2.86811995468170       -0.01473391889377
H            3.58685201943641        1.37769320624593        0.95854622497259
H            3.94130573865109        1.10815422732125       -0.75811867671801
H            2.52794874976848        2.08448687437806       -0.27634574509534
H            3.77524622249795       -1.49289550642419        0.16965987750815
H           -1.69036141691293        2.83500819246403        0.35673163539728
H           -4.23389634762956        2.12874695653762       -0.63327229028299
H           -2.82912363209882        1.64290222865621        1.11877018082452
H           -1.01159336343427       -3.37966097462861        0.89689947912170
H           -0.97962163579856       -3.42994223502687       -0.88432347494240
H           -2.40912337481417       -2.81266783402529       -0.03668480320348
H            1.77667226901485       -3.07478260151149        0.17012500380527

          :  Hamiltonian                  GFN2-xTB          :
         :: total energy             -42.110524545193 Eh    ::
         :: gradient norm              0.002608920763 Eh/a0 ::
         :: HOMO-LUMO gap              1.816531454707 eV    ::
         :: SCC energy               -42.589362450420 Eh    ::
         :: -> dispersion             -0.021672923639 Eh    ::
         :: repulsion energy           0.477035666901 Eh    ::

    * Orbital Energies and Occupations

         #    Occupation            Energy/Eh            Energy/eV
      -------------------------------------------------------------
         1        2.0000           -0.9127715             -24.8378
       ...           ...                  ...                  ...
        25        2.0000           -0.6638015             -18.0630
        26        2.0000           -0.6487956             -17.6546
        27        2.0000           -0.6425121             -17.4836
        28        2.0000           -0.6297399             -17.1361
        29        2.0000           -0.6190426             -16.8450
        30        2.0000           -0.6168813             -16.7862
        31        2.0000           -0.6156895             -16.7538
        32        2.0000           -0.6014819             -16.3672
        33        2.0000           -0.5836047             -15.8807
        34        2.0000           -0.5631966             -15.3254
        35        2.0000           -0.5558071             -15.1243
        36        1.9999           -0.5475689             -14.9001
        37        1.9706           -0.5013829             -13.6433 (HOMO)
        38        0.0288           -0.4346266             -11.8268 (LUMO)
        39        0.0008           -0.4056927             -11.0395
        40        0.0000           -0.3835529             -10.4370
        41                         -0.3176206              -8.6429
        42                         -0.2897286              -7.8839
        43                         -0.2085887              -5.6760
        44                         -0.1784580              -4.8561
        45                         -0.1397245              -3.8021
        46                         -0.0931055              -2.5335
        47                         -0.0646149              -1.7583
        48                         -0.0593238              -1.6143
       ...                                ...                  ...
        67                          0.5095301              13.8650
      -------------------------------------------------------------
                  HL-Gap            0.0667563 Eh            1.8165 eV

     #   Z          covCN         q      C6AA      α(0)
     1   6 C        3.692    -0.095    22.508     6.788
     2   7 N        2.835     0.085    19.770     6.604
     3   6 C        3.087     0.055    26.665     8.465
     4   7 N        2.777    -0.048    22.165     6.992
     5   6 C        3.059     0.105    25.626     8.302
     6   6 C        3.108    -0.011    28.146     8.692
     7   6 C        2.761     0.273    22.389     7.749
     8   8 O        0.857    -0.375    21.195     6.172
     9   7 N        2.677    -0.070    22.610     7.062
    10   6 C        3.549     0.115    19.616     6.476
    11   6 C        1.860    -0.092    33.679     9.374
    12   8 O        1.653    -0.365    20.182     6.064
    13   7 N        2.749     0.009    21.101     6.822
    14   6 C        3.705    -0.077    22.124     6.724
    15   1 H        0.924     0.108     1.718     2.050
    16   1 H        0.925     0.104     1.746     2.066
    17   1 H        0.925     0.141     1.451     1.884
    18   1 H        0.926     0.123     1.586     1.970
    19   1 H        0.924     0.124     1.579     1.965
    20   1 H        0.805     0.318     0.668     1.284
    21   1 H        0.924     0.078     1.997     2.210
    22   1 H        0.924     0.074     2.046     2.237
    23   1 H        0.924     0.075     2.028     2.227
    24   1 H        0.925     0.115     1.654     2.011
    25   1 H        0.860     0.230     0.965     1.539

Wiberg/Mayer (AO) data.
largest (>0.10) Wiberg bond orders for each atom

     #   Z sym  total        # sym  WBO       # sym  WBO       # sym  WBO
 ---------------------------------------------------------------------------
     1   6 C    3.913 --     2 N    0.982    16 H    0.963    17 H    0.957
                            15 H    0.956
     2   7 N    3.721 --     3 C    1.415     6 C    1.183     1 C    0.982
     3   6 C    3.917 --     2 N    1.415     4 N    1.279    18 H    0.952
     4   7 N    3.614 --     3 C    1.279     5 C    1.209    25 H    0.919
     5   6 C    3.961 --     6 C    1.371     4 N    1.209    13 N    1.163
     6   6 C    3.933 --     5 C    1.371     2 N    1.183     7 C    1.037
     7   6 C    3.956 --     8 O    1.716     9 N    1.102     6 C    1.037
     8   8 O    2.072 --     7 C    1.716     9 N    0.137
     9   7 N    3.614 --    11 C    1.385     7 C    1.102    10 C    0.825
                             8 O    0.137
    10   6 C    3.908 --    12 O    1.102    21 H    0.967    19 H    0.958
                             9 N    0.825
    11   6 C    2.866 --     9 N    1.385    13 N    1.264
    12   8 O    2.090 --    10 C    1.102    20 H    0.886
    13   7 N    3.621 --    11 C    1.264     5 C    1.163    14 C    0.986
    14   6 C    3.943 --    13 N    0.986    22 H    0.973    23 H    0.973
                            24 H    0.972
    15   1 H    0.987 --     1 C    0.956
    16   1 H    0.988 --     1 C    0.963
    17   1 H    0.980 --     1 C    0.957
    18   1 H    0.984 --     3 C    0.952
    19   1 H    0.984 --    10 C    0.958
    20   1 H    0.899 --    12 O    0.886
    21   1 H    0.993 --    10 C    0.967
    22   1 H    0.993 --    14 C    0.973
    23   1 H    0.992 --    14 C    0.973
    24   1 H    0.986 --    14 C    0.972
    25   1 H    0.946 --     4 N    0.919
 ---------------------------------------------------------------------------

molecular dipole:
                 x           y           z       tot (Debye)
 q only:        1.944      -2.506       0.491
   full:        2.569      -3.123       0.517      10.362

           -------------------------------------------------
          | TOTAL ENERGY              -42.110524545193 Eh   |
          | GRADIENT NORM               0.002608920763 Eh/α |
          | HOMO-LUMO GAP               1.816531454707 eV   |
           -------------------------------------------------

 * finished run on 2024/06/05 at 19:57:59.110
