   * xtb version 6.6.1 (8d0f1dd) compiled by 'conda@1efc2f54142f' on 2023-08-01
          program call               : xtb xtbopt.xyz --opt crude --input .xc2 --gfn2

   ID    Z sym.   atoms
    1    6 C      1, 3, 5-7, 10, 11, 14
    2    7 N      2, 4, 9, 13
    3    8 O      8, 12
    4    1 H      15-25
########################################################################
[WARNING] Please study the warnings concerning your input carefully
-1- readin_getIntValue: could not parse ''
########################################################################

          :  Hamiltonian                  GFN2-xTB          :
 * total energy  :   -42.1122597 Eh     change       -0.7105427E-14 Eh
 * total energy  :   -42.1360358 Eh     change       -0.2377608E-01 Eh
 * total energy  :   -42.1510157 Eh     change       -0.1497993E-01 Eh
 * total energy  :   -42.1560955 Eh     change       -0.5079815E-02 Eh
 * total energy  :   -42.1577374 Eh     change       -0.1641919E-02 Eh
 * total energy  :   -42.1591936 Eh     change       -0.1456112E-02 Eh
 * total energy  :   -42.1602181 Eh     change       -0.1024587E-02 Eh
 * total energy  :   -42.1606472 Eh     change       -0.4290399E-03 Eh
 * total energy  :   -42.1611209 Eh     change       -0.4737458E-03 Eh
 * total energy  :   -42.1614889 Eh     change       -0.3679702E-03 Eh
 * total energy  :   -42.1617179 Eh     change       -0.2289724E-03 Eh
 * total energy  :   -42.1618910 Eh     change       -0.1730794E-03 Eh
   *** GEOMETRY OPTIMIZATION CONVERGED AFTER 12 ITERATIONS ***

 final structure:
================
25
 xtb: 6.6.1 (8d0f1dd)
C            3.19932618836057        1.20723899973969       -0.04087809281000
N            2.30013378181954        0.08313143767541       -0.02676924107525
C            2.63342178488621       -1.19717721658216       -0.07124339676889
N            1.52538819395747       -1.96456971269261       -0.03815477790715
C            0.43809970335040       -1.12981034390327        0.02444086854722
C            0.93209911693540        0.16286358894653        0.04250101329809
C            0.04453872241859        1.31773105326290        0.11893906000150
O            0.39742846406054        2.47179506957770        0.12825946047195
N           -1.28716352091448        0.89047773418425        0.19430206746311
C           -2.33064079820595        1.94838153278249        0.22813578918310
C           -1.76942105916008       -0.36256714034182        0.16327266183523
O           -3.06300248692276        1.95406493535618       -0.93100762024097
N           -0.88826337923881       -1.38479775348315        0.07231826843380
C           -1.39105166522591       -2.74195244397018        0.01658184257420
H            3.70184020527996        1.30225162780526        0.92305616469670
H            3.94985308620235        1.07742454447151       -0.81919818739806
H            2.62380068394800        2.11485767127506       -0.22477290523871
H            3.63637051900795       -1.57678418025143       -0.12475483134110
H           -1.81544912538175        2.90973144973136        0.30355358894768
H           -3.65185237555134        1.18478055013331       -0.96471105947165
H           -2.93979560085228        1.76651486194107        1.12484555171825
H           -1.07007814972925       -3.30992178582847        0.89040126043357
H           -1.04759250836324       -3.23763616013532       -0.89179907526350
H           -2.47715598222479       -2.69282031865951        0.00620565117045
H            1.50959771564486       -2.97496945943583       -0.07235244335884

          :  Hamiltonian                  GFN2-xTB          :
         :: total energy             -42.161890953352 Eh    ::
         :: gradient norm              0.009088514082 Eh/a0 ::
         :: HOMO-LUMO gap              1.987905573466 eV    ::
         :: SCC energy               -42.666160259319 Eh    ::
         :: -> dispersion             -0.022304646347 Eh    ::
         :: repulsion energy           0.504159775739 Eh    ::

    * Orbital Energies and Occupations

         #    Occupation            Energy/Eh            Energy/eV
      -------------------------------------------------------------
         1        2.0000           -0.9181440             -24.9840
       ...           ...                  ...                  ...
        25        2.0000           -0.6692836             -18.2121
        26        2.0000           -0.6529057             -17.7665
        27        2.0000           -0.6432805             -17.5046
        28        2.0000           -0.6356720             -17.2975
        29        2.0000           -0.6266079             -17.0509
        30        2.0000           -0.6261361             -17.0380
        31        2.0000           -0.6215197             -16.9124
        32        2.0000           -0.6045002             -16.4493
        33        2.0000           -0.5767521             -15.6942
        34        2.0000           -0.5646299             -15.3644
        35        1.9999           -0.5565987             -15.1458
        36        1.9997           -0.5457047             -14.8494
        37        1.9803           -0.5118564             -13.9283 (HOMO)
        38        0.0196           -0.4388022             -11.9404 (LUMO)
        39        0.0004           -0.4088048             -11.1241
        40        0.0000           -0.3851128             -10.4795
        41                         -0.2865666              -7.7979
        42                         -0.2031087              -5.5269
        43                         -0.1896699              -5.1612
        44                         -0.1347835              -3.6676
        45                         -0.1313963              -3.5755
        46                         -0.0755589              -2.0561
        47                         -0.0450908              -1.2270
        48                         -0.0356934              -0.9713
       ...                                ...                  ...
        67                          0.5383791              14.6500
      -------------------------------------------------------------
                  HL-Gap            0.0730542 Eh            1.9879 eV

     #   Z          covCN         q      C6AA      α(0)
     1   6 C        3.692    -0.093    22.473     6.783
     2   7 N        2.836     0.085    19.766     6.603
     3   6 C        3.061     0.061    26.570     8.453
     4   7 N        2.797    -0.061    22.427     7.034
     5   6 C        3.054     0.109    25.547     8.289
     6   6 C        3.130    -0.008    28.009     8.665
     7   6 C        2.762     0.271    22.421     7.754
     8   8 O        0.857    -0.371    21.115     6.161
     9   7 N        2.749    -0.045    22.106     6.983
    10   6 C        3.634     0.130    18.827     6.244
    11   6 C        1.896    -0.103    33.970     9.413
    12   8 O        1.657    -0.396    20.762     6.151
    13   7 N        2.744     0.027    20.785     6.771
    14   6 C        3.705    -0.079    22.157     6.729
    15   1 H        0.924     0.111     1.687     2.031
    16   1 H        0.925     0.106     1.735     2.060
    17   1 H        0.924     0.139     1.468     1.895
    18   1 H        0.926     0.126     1.565     1.956
    19   1 H        0.924     0.106     1.731     2.058
    20   1 H        0.804     0.319     0.668     1.284
    21   1 H        0.923     0.063     2.169     2.303
    22   1 H        0.924     0.079     1.988     2.205
    23   1 H        0.924     0.077     2.009     2.216
    24   1 H        0.925     0.118     1.630     1.997
    25   1 H        0.860     0.230     0.965     1.539

Wiberg/Mayer (AO) data.
largest (>0.10) Wiberg bond orders for each atom

     #   Z sym  total        # sym  WBO       # sym  WBO       # sym  WBO
 ---------------------------------------------------------------------------
     1   6 C    3.914 --     2 N    0.983    16 H    0.965    17 H    0.960
                            15 H    0.954
     2   7 N    3.722 --     3 C    1.419     6 C    1.169     1 C    0.983
     3   6 C    3.927 --     2 N    1.419     4 N    1.298    18 H    0.951
     4   7 N    3.607 --     3 C    1.298     5 C    1.175    25 H    0.919
     5   6 C    3.961 --     6 C    1.377    13 N    1.197     4 N    1.175
     6   6 C    3.939 --     5 C    1.377     2 N    1.169     7 C    1.058
     7   6 C    3.962 --     8 O    1.714     9 N    1.083     6 C    1.058
     8   8 O    2.071 --     7 C    1.714     9 N    0.139
     9   7 N    3.644 --    11 C    1.365     7 C    1.083    10 C    0.918
                             8 O    0.139
    10   6 C    3.925 --    12 O    1.055    21 H    0.958    19 H    0.956
                             9 N    0.918
    11   6 C    2.859 --     9 N    1.365    13 N    1.268
    12   8 O    2.022 --    10 C    1.055    20 H    0.880
    13   7 N    3.650 --    11 C    1.268     5 C    1.197    14 C    0.983
    14   6 C    3.941 --    13 N    0.983    23 H    0.972    24 H    0.972
                            22 H    0.971
    15   1 H    0.987 --     1 C    0.954
    16   1 H    0.988 --     1 C    0.965
    17   1 H    0.981 --     1 C    0.960
    18   1 H    0.983 --     3 C    0.951
    19   1 H    0.988 --    10 C    0.956
    20   1 H    0.899 --    12 O    0.880
    21   1 H    0.995 --    10 C    0.958
    22   1 H    0.992 --    14 C    0.971
    23   1 H    0.992 --    14 C    0.972
    24   1 H    0.986 --    14 C    0.972
    25   1 H    0.946 --     4 N    0.919
 ---------------------------------------------------------------------------

molecular dipole:
                 x           y           z       tot (Debye)
 q only:        2.091      -2.740       0.207
   full:        2.754      -3.340       0.303      11.030

           -------------------------------------------------
          | TOTAL ENERGY              -42.161890953352 Eh   |
          | GRADIENT NORM               0.009088514082 Eh/α |
          | HOMO-LUMO GAP               1.987905573466 eV   |
           -------------------------------------------------

 * finished run on 2024/06/05 at 19:57:59.566
