   * xtb version 6.6.1 (8d0f1dd) compiled by 'conda@1efc2f54142f' on 2023-08-01
          program call               : xtb struc.xyz --opt loose --input .xc1 --gfn2

   ID    Z sym.   atoms
    1    6 C      1, 3, 5-7, 10, 11, 14
    2    7 N      2, 4, 9, 13
    3    8 O      8, 12
    4    1 H      15-25
constraining bond 15 17 to    3.2800000 Å, actual value:    1.7729540 Å

          :  Hamiltonian                  GFN2-xTB          :
 * total energy  :   -38.1900051 Eh     change       -0.6633627E-10 Eh
 * total energy  :   -40.2831543 Eh     change       -0.2093149E+01 Eh
 * total energy  :   -41.6320845 Eh     change       -0.1348930E+01 Eh
 * total energy  :   -42.0343487 Eh     change       -0.4022641E+00 Eh
 * total energy  :   -42.0639338 Eh     change       -0.2958515E-01 Eh
 * total energy  :   -42.0649703 Eh     change       -0.1036422E-02 Eh
 * total energy  :   -42.0664525 Eh     change       -0.1482237E-02 Eh
 * total energy  :   -42.0690217 Eh     change       -0.2569242E-02 Eh
 * total energy  :   -42.0709780 Eh     change       -0.1956244E-02 Eh
 * total energy  :   -42.0732969 Eh     change       -0.2318880E-02 Eh
 * total energy  :   -42.1804050 Eh     change       -0.4890431E-03 Eh
 * total energy  :   -42.1809974 Eh     change       -0.5924022E-03 Eh
 * total energy  :   -42.1813236 Eh     change       -0.3261650E-03 Eh
 * total energy  :   -42.1815747 Eh     change       -0.2511663E-03 Eh
 * total energy  :   -42.1817259 Eh     change       -0.1511456E-03 Eh
 * total energy  :   -42.1818260 Eh     change       -0.1001324E-03 Eh
 * total energy  :   -42.1819122 Eh     change       -0.8615014E-04 Eh
 * total energy  :   -42.1819667 Eh     change       -0.5456198E-04 Eh
 * total energy  :   -42.1820022 Eh     change       -0.3543420E-04 Eh
   *** GEOMETRY OPTIMIZATION CONVERGED AFTER 35 ITERATIONS ***

 final structure:
================
25
 xtb: 6.6.1 (8d0f1dd)
C            3.28875197175389        0.92502684013725       -0.05777242892287
N            2.38412580506186       -0.03975105073324        0.00248610701779
C            2.58536216814758       -1.36931661351612        0.15064874924085
N            1.37876822852276       -2.03409015640723        0.15689956381380
C            0.39497543739616       -1.14789352556164        0.01448680917494
C            0.99064216025681        0.13264782000528       -0.05922016896954
C            0.19157801042878        1.26122209397814       -0.02587604820323
O            0.63430864885056        2.50238370761064        0.06158592710614
N           -1.15045471080333        1.06447970412441       -0.05372285338631
C           -2.06573311190418        2.19743775328377       -0.04633468374122
C           -1.78071673433078       -0.19575697006074       -0.08960017877456
O           -2.97121082348414       -0.28417659871851       -0.15089034152307
N           -0.95008779788687       -1.31107542966082       -0.02800298247719
C           -1.54555759692958       -2.63459275532756       -0.01910346394627
H            4.31404306837613        0.67880948275328        0.09829644947567
H            3.05538281053631        1.89335530706471       -0.44695617129253
H            1.59788710205133        2.51899904863314        0.22229701384620
H            3.53691040533435       -1.84073802309441        0.24744334261513
H           -1.49580426978578        3.12042237027895       -0.04993046273134
H           -2.70741214891506        2.14666327504121       -0.92528130173457
H           -2.69845897396696        2.14856834935408        0.83960269682362
H           -1.30745672044156       -3.15254010984056        0.91029947576390
H           -1.18960742262954       -3.21344662930044       -0.87141739726439
H           -2.62489447188967       -2.51362609182065       -0.09369568205742
H            1.29509048035089       -3.03477325662297        0.24492964804656

          :  Hamiltonian                  GFN2-xTB          :
         :: total energy             -42.182002159908 Eh    ::
         :: gradient norm              0.003988026044 Eh/a0 ::
         :: HOMO-LUMO gap              1.391356639404 eV    ::
         :: SCC energy               -42.712342766765 Eh    ::
         :: -> dispersion             -0.023093066770 Eh    ::
         :: repulsion energy           0.530200789555 Eh    ::

    * Orbital Energies and Occupations

         #    Occupation            Energy/Eh            Energy/eV
      -------------------------------------------------------------
         1        2.0000           -0.9084042             -24.7189
       ...           ...                  ...                  ...
        25        2.0000           -0.6701614             -18.2360
        26        2.0000           -0.6644169             -18.0797
        27        2.0000           -0.6576907             -17.8967
        28        2.0000           -0.6481359             -17.6367
        29        2.0000           -0.6425650             -17.4851
        30        2.0000           -0.6233399             -16.9619
        31        2.0000           -0.6136888             -16.6993
        32        2.0000           -0.6116739             -16.6445
        33        2.0000           -0.6102384             -16.6054
        34        2.0000           -0.5874738             -15.9860
        35        2.0000           -0.5796749             -15.7738
        36        2.0000           -0.5586784             -15.2024
        37        1.9237           -0.4828025             -13.1377 (HOMO)
        38        0.0760           -0.4316711             -11.7464 (LUMO)
        39        0.0003           -0.3878362             -10.5536
        40        0.0000           -0.3570237              -9.7151
        41                         -0.2949380              -8.0257
        42                         -0.2074813              -5.6459
        43                         -0.1687019              -4.5906
        44                         -0.1498735              -4.0783
        45                         -0.1301154              -3.5406
        46                         -0.1111862              -3.0255
        47                         -0.0670687              -1.8250
        48                         -0.0338301              -0.9206
       ...                                ...                  ...
        67                          0.5399084              14.6917
      -------------------------------------------------------------
                  HL-Gap            0.0511314 Eh            1.3914 eV

     #   Z          covCN         q      C6AA      α(0)
     1   6 C        2.789    -0.136    31.470     9.189
     2   7 N        2.788     0.106    19.412     6.544
     3   6 C        3.037    -0.021    28.499     8.756
     4   7 N        2.775    -0.057    22.349     7.021
     5   6 C        3.012     0.105    25.667     8.311
     6   6 C        3.109    -0.039    28.828     8.796
     7   6 C        2.776     0.216    23.441     7.930
     8   8 O        1.659    -0.322    19.388     5.944
     9   7 N        2.748    -0.049    22.190     6.996
    10   6 C        3.705    -0.070    22.003     6.706
    11   6 C        2.727     0.314    21.657     7.619
    12   8 O        0.859    -0.352    20.749     6.107
    13   7 N        2.737    -0.057    22.337     7.019
    14   6 C        3.698    -0.072    22.052     6.716
    15   1 H        0.927     0.080     1.983     2.202
    16   1 H        0.927     0.065     2.145     2.290
    17   1 H        0.803     0.356     0.575     1.191
    18   1 H        0.927     0.100     1.785     2.089
    19   1 H        0.925     0.110     1.699     2.038
    20   1 H        0.925     0.108     1.710     2.045
    21   1 H        0.925     0.105     1.742     2.064
    22   1 H        0.924     0.085     1.932     2.174
    23   1 H        0.925     0.085     1.924     2.169
    24   1 H        0.925     0.124     1.579     1.965
    25   1 H        0.860     0.218     1.020     1.582

Wiberg/Mayer (AO) data.
largest (>0.10) Wiberg bond orders for each atom

     #   Z sym  total        # sym  WBO       # sym  WBO       # sym  WBO
 ---------------------------------------------------------------------------
     1   6 C    3.790 --     2 N    1.345    15 H    0.971    16 H    0.954
                             3 C    0.257
     2   7 N    3.742 --     1 C    1.345     3 C    1.244     6 C    1.062
     3   6 C    3.799 --     2 N    1.244     4 N    1.156    18 H    0.961
                             1 C    0.257     5 C    0.114
     4   7 N    3.595 --     5 C    1.304     3 C    1.156    25 H    0.924
     5   6 C    3.934 --     4 N    1.304     6 C    1.205    13 N    1.171
                             3 C    0.114
     6   6 C    3.919 --     7 C    1.330     5 C    1.205     2 N    1.062
     7   6 C    3.902 --     6 C    1.330     9 N    1.225     8 O    1.176
     8   8 O    2.221 --     7 C    1.176    17 H    0.820
     9   7 N    3.579 --     7 C    1.225    11 C    1.052    10 C    0.967
                            12 O    0.123
    10   6 C    3.916 --    19 H    0.971     9 N    0.967    21 H    0.964
                            20 H    0.963
    11   6 C    3.960 --    12 O    1.723    13 N    1.090     9 N    1.052
    12   8 O    2.083 --    11 C    1.723    13 N    0.143     9 N    0.123
    13   7 N    3.558 --     5 C    1.171    11 C    1.090    14 C    0.972
                            12 O    0.143
    14   6 C    3.925 --    13 N    0.972    23 H    0.971    22 H    0.970
                            24 H    0.966
    15   1 H    0.992 --     1 C    0.971
    16   1 H    0.996 --     1 C    0.954
    17   1 H    0.872 --     8 O    0.820
    18   1 H    0.989 --     3 C    0.961
    19   1 H    0.987 --    10 C    0.971
    20   1 H    0.984 --    10 C    0.963
    21   1 H    0.985 --    10 C    0.964
    22   1 H    0.991 --    14 C    0.970
    23   1 H    0.990 --    14 C    0.971
    24   1 H    0.984 --    14 C    0.966
    25   1 H    0.952 --     4 N    0.924
 ---------------------------------------------------------------------------

molecular dipole:
                 x           y           z       tot (Debye)
 q only:        1.570      -0.703       0.222
   full:        2.024      -0.966       0.243       5.735

           -------------------------------------------------
          | TOTAL ENERGY              -42.182002159908 Eh   |
          | GRADIENT NORM               0.003988026044 Eh/α |
          | HOMO-LUMO GAP               1.391356639404 eV   |
           -------------------------------------------------

 * finished run on 2024/06/05 at 19:58:08.465
