   * xtb version 6.6.1 (8d0f1dd) compiled by 'conda@1efc2f54142f' on 2023-08-01
          program call               : xtb xtbopt.xyz --opt crude --input .xc2 --gfn2

   ID    Z sym.   atoms
    1    6 C      1, 3, 5-7, 10, 11, 14
    2    7 N      2, 4, 9, 13
    3    8 O      8, 12
    4    1 H      15-25
########################################################################
[WARNING] Please study the warnings concerning your input carefully
-1- readin_getIntValue: could not parse ''
########################################################################

          :  Hamiltonian                  GFN2-xTB          :
 * total energy  :   -42.1820201 Eh     change        0.7105427E-13 Eh
 * total energy  :   -42.1826026 Eh     change       -0.5825680E-03 Eh
 * total energy  :   -42.1828506 Eh     change       -0.2479655E-03 Eh
   *** GEOMETRY OPTIMIZATION CONVERGED AFTER 3 ITERATIONS ***

 final structure:
================
25
 xtb: 6.6.1 (8d0f1dd)
C            3.32601361112103        0.89763082740716       -0.05140917279890
N            2.39436808614233       -0.04214912540325        0.00910586017547
C            2.58440254746767       -1.37279287607071        0.14878549538708
N            1.37479807646799       -2.02884345302908        0.15653689173941
C            0.39796817480798       -1.13644897338482        0.01786395871305
C            0.99858629887581        0.14633512290332       -0.04521798408304
C            0.18668508765544        1.27033278822416       -0.01910222637742
O            0.58823963562700        2.52712270797499        0.06596550777655
N           -1.15457489065891        1.06324118023812       -0.05876084187076
C           -2.07561451245355        2.19140553157477       -0.05512912931114
C           -1.78159176109828       -0.19550902448458       -0.09156089027152
O           -2.97243701737314       -0.28952579765813       -0.15275441155429
N           -0.94605247930796       -1.30534742128956       -0.02849394757949
C           -1.53798025691724       -2.63042234598623       -0.01510712331374
H            4.35571802442234        0.60033132282853        0.03272229242795
H            3.10258546828812        1.88106875841239       -0.41243251561551
H            1.53877429322245        2.59770412272945        0.25860957876620
H            3.53298421085029       -1.85167839188211        0.23922432055035
H           -1.51292533985652        3.11869141122273       -0.06040889125503
H           -2.71674242729951        2.13467947545419       -0.93402121086901
H           -2.70868567692061        2.14064365747721        0.83016430720774
H           -1.30027185856388       -3.14412232909174        0.91677992338308
H           -1.18082815171603       -3.21228563746021       -0.86492903172067
H           -2.61756932503017       -2.51185050523176       -0.09123737153665
H            1.28458169634733       -3.02997248387485        0.23597822993042

          :  Hamiltonian                  GFN2-xTB          :
         :: total energy             -42.182850591016 Eh    ::
         :: gradient norm              0.005125129153 Eh/a0 ::
         :: HOMO-LUMO gap              1.366583872633 eV    ::
         :: SCC energy               -42.710617369266 Eh    ::
         :: -> dispersion             -0.023054961100 Eh    ::
         :: repulsion energy           0.527646731027 Eh    ::

    * Orbital Energies and Occupations

         #    Occupation            Energy/Eh            Energy/eV
      -------------------------------------------------------------
         1        2.0000           -0.9082913             -24.7159
       ...           ...                  ...                  ...
        25        2.0000           -0.6682181             -18.1831
        26        2.0000           -0.6636800             -18.0597
        27        2.0000           -0.6569591             -17.8768
        28        2.0000           -0.6483569             -17.6427
        29        2.0000           -0.6417868             -17.4639
        30        2.0000           -0.6229389             -16.9510
        31        2.0000           -0.6131506             -16.6847
        32        2.0000           -0.6107662             -16.6198
        33        2.0000           -0.6101728             -16.6036
        34        2.0000           -0.5872038             -15.9786
        35        2.0000           -0.5787142             -15.7476
        36        2.0000           -0.5583684             -15.1940
        37        1.9194           -0.4818861             -13.1128 (HOMO)
        38        0.0803           -0.4316650             -11.7462 (LUMO)
        39        0.0003           -0.3871148             -10.5339
        40        0.0000           -0.3559044              -9.6847
        41                         -0.2950576              -8.0289
        42                         -0.2075155              -5.6468
        43                         -0.1682624              -4.5787
        44                         -0.1499036              -4.0791
        45                         -0.1304357              -3.5493
        46                         -0.1123571              -3.0574
        47                         -0.0642375              -1.7480
        48                         -0.0333582              -0.9077
       ...                                ...                  ...
        67                          0.5386194              14.6566
      -------------------------------------------------------------
                  HL-Gap            0.0502210 Eh            1.3666 eV

     #   Z          covCN         q      C6AA      α(0)
     1   6 C        2.789    -0.131    31.334     9.169
     2   7 N        2.789     0.106    19.412     6.544
     3   6 C        3.038    -0.021    28.504     8.757
     4   7 N        2.772    -0.057    22.341     7.020
     5   6 C        3.016     0.104    25.679     8.312
     6   6 C        3.098    -0.039    28.844     8.802
     7   6 C        2.775     0.215    23.453     7.932
     8   8 O        1.660    -0.320    19.354     5.939
     9   7 N        2.747    -0.048    22.175     6.994
    10   6 C        3.706    -0.071    22.014     6.707
    11   6 C        2.728     0.314    21.658     7.619
    12   8 O        0.859    -0.354    20.786     6.113
    13   7 N        2.737    -0.057    22.342     7.020
    14   6 C        3.698    -0.072    22.054     6.717
    15   1 H        0.926     0.079     1.986     2.204
    16   1 H        0.926     0.062     2.173     2.305
    17   1 H        0.804     0.354     0.578     1.194
    18   1 H        0.927     0.100     1.787     2.091
    19   1 H        0.925     0.110     1.694     2.035
    20   1 H        0.925     0.109     1.709     2.044
    21   1 H        0.925     0.105     1.743     2.064
    22   1 H        0.924     0.084     1.935     2.175
    23   1 H        0.925     0.085     1.927     2.171
    24   1 H        0.925     0.125     1.577     1.964
    25   1 H        0.860     0.218     1.019     1.581

Wiberg/Mayer (AO) data.
largest (>0.10) Wiberg bond orders for each atom

     #   Z sym  total        # sym  WBO       # sym  WBO       # sym  WBO
 ---------------------------------------------------------------------------
     1   6 C    3.786 --     2 N    1.348    15 H    0.970    16 H    0.961
                             3 C    0.254
     2   7 N    3.742 --     1 C    1.348     3 C    1.244     6 C    1.060
     3   6 C    3.797 --     2 N    1.244     4 N    1.157    18 H    0.961
                             1 C    0.254     5 C    0.116
     4   7 N    3.596 --     5 C    1.305     3 C    1.157    25 H    0.924
     5   6 C    3.932 --     4 N    1.305     6 C    1.202    13 N    1.171
                             3 C    0.116
     6   6 C    3.918 --     7 C    1.333     5 C    1.202     2 N    1.060
     7   6 C    3.898 --     6 C    1.333     9 N    1.222     8 O    1.171
     8   8 O    2.220 --     7 C    1.171    17 H    0.831
     9   7 N    3.579 --     7 C    1.222    11 C    1.055    10 C    0.967
                            12 O    0.123
    10   6 C    3.915 --    19 H    0.971     9 N    0.967    21 H    0.964
                            20 H    0.963
    11   6 C    3.960 --    12 O    1.720    13 N    1.091     9 N    1.055
    12   8 O    2.080 --    11 C    1.720    13 N    0.143     9 N    0.123
    13   7 N    3.558 --     5 C    1.171    11 C    1.091    14 C    0.972
                            12 O    0.143
    14   6 C    3.925 --    13 N    0.972    23 H    0.971    22 H    0.970
                            24 H    0.966
    15   1 H    0.992 --     1 C    0.970
    16   1 H    0.996 --     1 C    0.961
    17   1 H    0.873 --     8 O    0.831
    18   1 H    0.989 --     3 C    0.961
    19   1 H    0.987 --    10 C    0.971
    20   1 H    0.984 --    10 C    0.963
    21   1 H    0.985 --    10 C    0.964
    22   1 H    0.991 --    14 C    0.970
    23   1 H    0.990 --    14 C    0.971
    24   1 H    0.984 --    14 C    0.966
    25   1 H    0.952 --     4 N    0.924
 ---------------------------------------------------------------------------

molecular dipole:
                 x           y           z       tot (Debye)
 q only:        1.576      -0.660       0.234
   full:        2.041      -0.912       0.252       5.720

           -------------------------------------------------
          | TOTAL ENERGY              -42.182850591016 Eh   |
          | GRADIENT NORM               0.005125129153 Eh/α |
          | HOMO-LUMO GAP               1.366583872633 eV   |
           -------------------------------------------------

 * finished run on 2024/06/05 at 19:58:08.717
