   * xtb version 6.6.1 (8d0f1dd) compiled by 'conda@1efc2f54142f' on 2023-08-01
          program call               : xtb struc.xyz --opt loose --input .xc1 --gfn2

   ID    Z sym.   atoms
    1    6 C      1, 3, 5-7, 10, 11, 14
    2    7 N      2, 4, 9, 13
    3    8 O      8, 12
    4    1 H      15-25
constraining bond 18 25 to    4.2800000 Å, actual value:    2.5465365 Å

          :  Hamiltonian                  GFN2-xTB          :
 * total energy  :   -36.8825208 Eh     change       -0.6650680E-10 Eh
 * total energy  :   -39.5718535 Eh     change       -0.2689333E+01 Eh
 * total energy  :   -41.3324771 Eh     change       -0.1760624E+01 Eh
 * total energy  :   -41.9812110 Eh     change       -0.6487339E+00 Eh
 * total energy  :   -42.0672459 Eh     change       -0.8603485E-01 Eh
 * total energy  :   -42.0688068 Eh     change       -0.1560951E-02 Eh
 * total energy  :   -42.0705238 Eh     change       -0.1717018E-02 Eh
 * total energy  :   -42.0749241 Eh     change       -0.4400279E-02 Eh
 * total energy  :   -42.0796620 Eh     change       -0.4737848E-02 Eh
 * total energy  :   -42.0850290 Eh     change       -0.5367001E-02 Eh
 * total energy  :   -42.2200740 Eh     change       -0.1727523E-01 Eh
 * total energy  :   -42.2314398 Eh     change       -0.1136580E-01 Eh
 * total energy  :   -42.2358768 Eh     change       -0.4436916E-02 Eh
 * total energy  :   -42.2381605 Eh     change       -0.2283717E-02 Eh
 * total energy  :   -42.2392842 Eh     change       -0.1123758E-02 Eh
 * total energy  :   -42.2394709 Eh     change       -0.1867026E-03 Eh
 * total energy  :   -42.2400520 Eh     change       -0.5811006E-03 Eh
 * total energy  :   -42.2401353 Eh     change       -0.8324633E-04 Eh
 * total energy  :   -42.2401536 Eh     change       -0.1826801E-04 Eh
   *** GEOMETRY OPTIMIZATION CONVERGED AFTER 36 ITERATIONS ***

 final structure:
================
25
 xtb: 6.6.1 (8d0f1dd)
C            3.34155825203520        1.30659973197161        0.01902759372854
N            2.42988711342812        0.19400256105360        0.00003752244647
C            2.73698016571695       -1.11639144668563       -0.00453251243113
N            1.67682906689723       -1.90014407365389       -0.00605301431649
C            0.63419073896694       -1.06206790612078       -0.00094844201327
C            1.06190860909564        0.26503585316658        0.00350150477969
C            0.15014438092509        1.36687631923290       -0.00241210620287
O            0.38103662675491        2.54491303356047       -0.01083470714170
N           -1.21161975524629        0.88866778539269       -0.00008182467384
C           -2.25998625971647        1.89814956703007       -0.00066739421594
C           -1.57933422990593       -0.39697738376620       -0.00074139281323
O           -2.87270454841377       -0.63154167795504       -0.00051029146422
N           -0.69669023060386       -1.40158353635709       -0.00230924162880
C           -1.06341108836838       -2.80671868505085       -0.00601986414762
H            3.84573421573120        1.36483338428040        0.98501085863134
H            4.09255383354293        1.18765885918876       -0.76138284448660
H            2.78363752060540        2.22660569632189       -0.14608914098333
H            3.73423402815269       -1.50468938500202       -0.00834969525359
H           -1.77493151907039        2.87254890562009        0.00685448897004
H           -2.87778887359604        1.79901961159730       -0.89171659902585
H           -2.88769346275750        1.78914277330060        0.88215914950282
H           -1.62610007962350       -3.06850250978304        0.89135707326316
H           -1.62980679738455       -3.06273989489187       -0.90285400126543
H           -3.10440087235309       -1.57468743906856       -0.00156884613104
H           -0.12379532071253       -3.35977160178189       -0.00970465522708

          :  Hamiltonian                  GFN2-xTB          :
         :: total energy             -42.240153551933 Eh    ::
         :: gradient norm              0.001865892653 Eh/a0 ::
         :: HOMO-LUMO gap              3.522687259566 eV    ::
         :: SCC energy               -42.760521469821 Eh    ::
         :: -> dispersion             -0.022624587112 Eh    ::
         :: repulsion energy           0.520263724307 Eh    ::

    * Orbital Energies and Occupations

         #    Occupation            Energy/Eh            Energy/eV
      -------------------------------------------------------------
         1        2.0000           -0.9362909             -25.4778
       ...           ...                  ...                  ...
        25        2.0000           -0.6586963             -17.9240
        26        2.0000           -0.6577931             -17.8995
        27        1.9999           -0.6501968             -17.6928
        28        1.9999           -0.6435667             -17.5123
        29        1.9999           -0.6422429             -17.4763
        30        1.9997           -0.6241572             -16.9842
        31        1.9996           -0.6211068             -16.9012
        32        1.9995           -0.6170100             -16.7897
        33        1.9979           -0.5936255             -16.1534
        34        1.9955           -0.5813982             -15.8207
        35        1.9930           -0.5744552             -15.6317
        36        1.9748           -0.5540631             -15.0768
        37        1.9738           -0.5534729             -15.0608 (HOMO)
        38        0.0415           -0.4240165             -11.5381 (LUMO)
        39        0.0246           -0.4155686             -11.3082
        40        0.0005           -0.3522353              -9.5848
        41        0.0000           -0.2849996              -7.7552
        42                         -0.2170595              -5.9065
        43                         -0.1706239              -4.6429
        44                         -0.1378720              -3.7517
        45                         -0.1266252              -3.4456
        46                         -0.0735617              -2.0017
        47                         -0.0547283              -1.4892
        48                         -0.0355724              -0.9680
       ...                                ...                  ...
        67                          0.5607518              15.2588
      -------------------------------------------------------------
                  HL-Gap            0.1294564 Eh            3.5227 eV

     #   Z          covCN         q      C6AA      α(0)
     1   6 C        3.689    -0.079    22.218     6.746
     2   7 N        2.842     0.040    20.539     6.731
     3   6 C        3.215     0.095    25.258     8.176
     4   7 N        1.897    -0.239    27.086     7.716
     5   6 C        3.234     0.116    24.664     8.060
     6   6 C        3.113    -0.023    28.414     8.732
     7   6 C        2.761     0.266    22.518     7.771
     8   8 O        0.857    -0.342    20.562     6.080
     9   7 N        2.746    -0.047    22.157     6.991
    10   6 C        3.706    -0.074    22.073     6.716
    11   6 C        2.754     0.275    22.350     7.742
    12   8 O        1.662    -0.309    19.172     5.911
    13   7 N        2.739    -0.026    21.742     6.925
    14   6 C        3.698    -0.083    22.254     6.747
    15   1 H        0.924     0.098     1.807     2.102
    16   1 H        0.925     0.097     1.814     2.106
    17   1 H        0.925     0.114     1.666     2.018
    18   1 H        0.927     0.102     1.770     2.080
    19   1 H        0.925     0.129     1.545     1.944
    20   1 H        0.925     0.101     1.778     2.085
    21   1 H        0.925     0.101     1.777     2.085
    22   1 H        0.924     0.093     1.847     2.125
    23   1 H        0.924     0.093     1.847     2.125
    24   1 H        0.804     0.365     0.554     1.170
    25   1 H        0.924     0.139     1.471     1.896

Wiberg/Mayer (AO) data.
largest (>0.10) Wiberg bond orders for each atom

     #   Z sym  total        # sym  WBO       # sym  WBO       # sym  WBO
 ---------------------------------------------------------------------------
     1   6 C    3.930 --     2 N    0.990    17 H    0.970    16 H    0.966
                            15 H    0.960
     2   7 N    3.673 --     3 C    1.315     6 C    1.187     1 C    0.990
     3   6 C    3.930 --     4 N    1.461     2 N    1.315    18 H    0.957
     4   7 N    3.015 --     3 C    1.461     5 C    1.325
     5   6 C    3.937 --     4 N    1.325     6 C    1.313    13 N    1.088
     6   6 C    3.932 --     5 C    1.313     2 N    1.187     7 C    1.117
     7   6 C    3.937 --     8 O    1.732     6 C    1.117     9 N    0.984
     8   8 O    2.084 --     7 C    1.732     9 N    0.127
     9   7 N    3.592 --    11 C    1.303     7 C    0.984    10 C    0.967
                             8 O    0.127
    10   6 C    3.910 --     9 N    0.967    21 H    0.965    20 H    0.964
                            19 H    0.963
    11   6 C    3.922 --     9 N    1.303    13 N    1.280    12 O    1.185
    12   8 O    2.233 --    11 C    1.185    24 H    0.834
    13   7 N    3.601 --    11 C    1.280     5 C    1.088    14 C    0.967
    14   6 C    3.917 --    13 N    0.967    23 H    0.967    22 H    0.966
                            25 H    0.961
    15   1 H    0.987 --     1 C    0.960
    16   1 H    0.988 --     1 C    0.966
    17   1 H    0.986 --     1 C    0.970
    18   1 H    0.988 --     3 C    0.957
    19   1 H    0.983 --    10 C    0.963
    20   1 H    0.987 --    10 C    0.964
    21   1 H    0.987 --    10 C    0.965
    22   1 H    0.989 --    14 C    0.966
    23   1 H    0.989 --    14 C    0.967
    24   1 H    0.866 --    12 O    0.834
    25   1 H    0.980 --    14 C    0.961
 ---------------------------------------------------------------------------

molecular dipole:
                 x           y           z       tot (Debye)
 q only:       -0.680      -1.414       0.009
   full:       -0.706      -1.516       0.016       4.250

           -------------------------------------------------
          | TOTAL ENERGY              -42.240153551933 Eh   |
          | GRADIENT NORM               0.001865892653 Eh/α |
          | HOMO-LUMO GAP               3.522687259566 eV   |
           -------------------------------------------------

 * finished run on 2024/06/05 at 20:00:16.103
