   * xtb version 6.6.1 (8d0f1dd) compiled by 'conda@1efc2f54142f' on 2023-08-01
          program call               : xtb xtbopt.xyz --opt crude --input .xc2 --gfn2

   ID    Z sym.   atoms
    1    6 C      1, 3, 5-7, 10, 11, 14
    2    7 N      2, 4, 9, 13
    3    8 O      8, 12
    4    1 H      15-25

          :  Hamiltonian                  GFN2-xTB          :
 * total energy  :   -42.1045730 Eh     change       -0.6963319E-12 Eh
   *** GEOMETRY OPTIMIZATION CONVERGED AFTER 1 ITERATIONS ***

 final structure:
================
25
 xtb: 6.6.1 (8d0f1dd)
C            3.29643566318948        1.08965877881727        0.03116780087269
N            2.33606026586070        0.01878299010808        0.00926701566658
C            2.59590875691763       -1.28523628007173        0.05128643825571
N            1.43750227382171       -1.98483164008721        0.02388123660017
C            0.40745202325833       -1.09433579459438       -0.03835139056705
C            0.96735498246110        0.17669306208343       -0.04626504734800
C            0.17447323095981        1.36670193411615       -0.11688575016362
O            0.55739139469641        2.51538591212859       -0.11868001179743
N           -1.22749212427622        1.05373800052181       -0.19649786546303
C           -2.08354090007311        2.08247509201675       -0.27702504904863
C           -1.80077274146503       -0.25012861407701       -0.18838597007562
O           -2.98662562357915       -0.40958795789307       -0.26238513560903
N           -0.91983412955519       -1.32485055096066       -0.08746807984549
C           -1.46107863956509       -2.67204648644349       -0.05174726090957
H            3.80910746220264        1.11962196874329        0.99338452179511
H            4.03628171146539        0.95053715650541       -0.75666265362099
H            2.77262843106513        2.03251028715989       -0.12076613723972
H            3.57291753743539       -1.72304176794897        0.09815582068256
H           -1.67346126111974        3.07515505340244       -0.27472032725356
H           -3.13465626384207        1.87694335754156       -0.33848035857413
H           -4.04329710768995        3.20588685155661        1.78367291264132
H           -1.15405555050404       -3.17842684551031        0.86347980144132
H           -1.13571150084094       -3.23854886656819       -0.92467690843083
H           -2.54710523404671       -2.59287319284249       -0.06742067803307
H            1.36454885732341       -2.99194390610392        0.04329469392441

          :  Hamiltonian                  GFN2-xTB          :
         :: total energy             -42.104573010427 Eh    ::
         :: gradient norm              0.003506399400 Eh/a0 ::
         :: HOMO-LUMO gap              0.273443534210 eV    ::
         :: SCC energy               -42.625584484337 Eh    ::
         :: -> dispersion             -0.022701591986 Eh    ::
         :: repulsion energy           0.520914559155 Eh    ::

    * Orbital Energies and Occupations

         #    Occupation            Energy/Eh            Energy/eV
      -------------------------------------------------------------
         1        2.0000           -0.9115905             -24.8056
       ...           ...                  ...                  ...
        25        2.0000           -0.6714211             -18.2703
        26        2.0000           -0.6695031             -18.2181
        27        2.0000           -0.6634279             -18.0528
        28        1.9999           -0.6328786             -17.2215
        29        1.9999           -0.6304331             -17.1550
        30        1.9999           -0.6280535             -17.0902
        31        1.9998           -0.6193683             -16.8539
        32        1.9997           -0.6147815             -16.7291
        33        1.9997           -0.6133481             -16.6901
        34        1.9982           -0.5859260             -15.9439
        35        1.9940           -0.5670510             -15.4302
        36        1.9901           -0.5589505             -15.2098
        37        1.0982           -0.4781235             -13.0104 (HOMO)
        38        0.7847           -0.4680746             -12.7370 (LUMO)
        39        0.1157           -0.4308258             -11.7234
        40        0.0172           -0.3998200             -10.8797
        41        0.0031           -0.3723445             -10.1320
        42        0.0000           -0.2878987              -7.8341
        43                         -0.2086390              -5.6774
        44                         -0.1972952              -5.3687
        45                         -0.1513887              -4.1195
        46                         -0.1458135              -3.9678
        47                         -0.0792382              -2.1562
        48                         -0.0542860              -1.4772
       ...                                ...                  ...
        67                          0.5492347              14.9454
      -------------------------------------------------------------
                  HL-Gap            0.0100489 Eh            0.2734 eV

     #   Z          covCN         q      C6AA      α(0)
     1   6 C        3.691    -0.094    22.494     6.787
     2   7 N        2.830     0.077    19.894     6.624
     3   6 C        3.048     0.047    26.896     8.506
     4   7 N        2.792    -0.058    22.356     7.022
     5   6 C        3.040     0.106    25.620     8.302
     6   6 C        3.109    -0.023    28.432     8.736
     7   6 C        2.774     0.254    22.724     7.807
     8   8 O        0.857    -0.362    20.929     6.134
     9   7 N        2.741    -0.032    21.855     6.943
    10   6 C        2.816    -0.022    28.532     8.752
    11   6 C        2.739     0.309    21.745     7.635
    12   8 O        0.859    -0.349    20.696     6.099
    13   7 N        2.737    -0.050    22.203     6.998
    14   6 C        3.698    -0.074    22.081     6.721
    15   1 H        0.924     0.107     1.720     2.051
    16   1 H        0.925     0.105     1.741     2.063
    17   1 H        0.925     0.135     1.501     1.916
    18   1 H        0.926     0.124     1.582     1.967
    19   1 H        0.926     0.134     1.502     1.917
    20   1 H        0.926     0.132     1.521     1.929
    21   1 H        0.000     0.007     7.332     4.951
    22   1 H        0.925     0.084     1.942     2.180
    23   1 H        0.924     0.085     1.933     2.174
    24   1 H        0.925     0.127     1.555     1.950
    25   1 H        0.860     0.229     0.969     1.542

Wiberg/Mayer (AO) data.
largest (>0.10) Wiberg bond orders for each atom

     #   Z sym  total        # sym  WBO       # sym  WBO       # sym  WBO
 ---------------------------------------------------------------------------
     1   6 C    3.916 --     2 N    0.986    16 H    0.962    17 H    0.962
                            15 H    0.957
     2   7 N    3.649 --     3 C    1.379     6 C    1.146     1 C    0.986
     3   6 C    3.822 --     2 N    1.379     4 N    1.267    18 H    0.953
     4   7 N    3.580 --     3 C    1.267     5 C    1.194    25 H    0.919
     5   6 C    3.900 --     6 C    1.328     4 N    1.194    13 N    1.191
     6   6 C    3.910 --     5 C    1.328     2 N    1.146     7 C    1.116
     7   6 C    3.869 --     8 O    1.675     6 C    1.116     9 N    0.986
     8   8 O    1.959 --     7 C    1.675     9 N    0.108
     9   7 N    3.615 --    10 C    1.344    11 C    1.015     7 C    0.986
                             8 O    0.108
    10   6 C    3.361 --     9 N    1.344    19 H    0.959    20 H    0.958
    11   6 C    3.906 --    12 O    1.710    13 N    1.086     9 N    1.015
    12   8 O    2.023 --    11 C    1.710    13 N    0.135
    13   7 N    3.565 --     5 C    1.191    11 C    1.086    14 C    0.970
                            12 O    0.135
    14   6 C    3.923 --    22 H    0.972    23 H    0.971    13 N    0.970
                            24 H    0.965
    15   1 H    0.984 --     1 C    0.957
    16   1 H    0.985 --     1 C    0.962
    17   1 H    0.982 --     1 C    0.962
    18   1 H    0.984 --     3 C    0.953
    19   1 H    0.981 --    10 C    0.959
    20   1 H    0.982 --    10 C    0.958
    21   1 H    0.026
    22   1 H    0.991 --    14 C    0.972
    23   1 H    0.991 --    14 C    0.971
    24   1 H    0.983 --    14 C    0.965
    25   1 H    0.947 --     4 N    0.919
 ---------------------------------------------------------------------------

molecular dipole:
                 x           y           z       tot (Debye)
 q only:        2.410      -2.025       0.022
   full:        2.635      -2.478       0.053       9.195

           -------------------------------------------------
          | TOTAL ENERGY              -42.104573010427 Eh   |
          | GRADIENT NORM               0.003506399400 Eh/α |
          | HOMO-LUMO GAP               0.273443534210 eV   |
           -------------------------------------------------

 * finished run on 2024/06/05 at 20:00:16.544
