   * xtb version 6.6.1 (8d0f1dd) compiled by 'conda@1efc2f54142f' on 2023-08-01
          program call               : xtb struc.xyz --opt loose --input .xc1 --gfn2

   ID    Z sym.   atoms
    1    7 N      1, 17
    2    6 C      2-6, 8, 9, 11-16, 18-23, 25, 26, 28-33
    3    8 O      7, 10, 24, 27
    4    1 H      34-72
constraining bond 26 60 to    3.7133300 Å, actual value:    2.7022333 Å

          :  Hamiltonian                  GFN2-xTB          :
 * total energy  :   -99.5866688 Eh     change       -0.4035485E-08 Eh
 * total energy  :   -99.8387255 Eh     change       -0.2520567E+00 Eh
 * total energy  :  -100.1447486 Eh     change       -0.3060231E+00 Eh
 * total energy  :  -100.5040476 Eh     change       -0.3592989E+00 Eh
 * total energy  :   -98.4144461 Eh     change        0.2089601E+01 Eh
 * total energy  :  -100.5746488 Eh     change       -0.2160203E+01 Eh
 * total energy  :  -100.6373101 Eh     change       -0.6266129E-01 Eh
 * total energy  :  -100.6209807 Eh     change        0.1632937E-01 Eh
 * total energy  :  -100.6835072 Eh     change       -0.6252654E-01 Eh
 * total energy  :  -100.6896293 Eh     change       -0.6122103E-02 Eh
 * total energy  :  -100.7880549 Eh     change       -0.2450326E-03 Eh
 * total energy  :  -100.7882752 Eh     change       -0.2202697E-03 Eh
 * total energy  :  -100.7883426 Eh     change       -0.6736529E-04 Eh
 * total energy  :  -100.7885212 Eh     change       -0.1786074E-03 Eh
 * total energy  :  -100.7885810 Eh     change       -0.5983114E-04 Eh
 * total energy  :  -100.7887361 Eh     change       -0.1551012E-03 Eh
 * total energy  :  -100.7888321 Eh     change       -0.9596456E-04 Eh
 * total energy  :  -100.7888935 Eh     change       -0.6143886E-04 Eh
 * total energy  :  -100.7889220 Eh     change       -0.2846886E-04 Eh
   *** GEOMETRY OPTIMIZATION CONVERGED AFTER 68 ITERATIONS ***

 final structure:
================
72
 xtb: 6.6.1 (8d0f1dd)
N           -1.76285586779844        2.75401703422711        2.27642709048325
C           -1.73898750361888        2.04320353350094        1.25022181245316
C           -2.90992475894560        1.83406443378652        0.32921211860402
C           -3.36805341936379        0.38511702209752        0.40957970746284
C           -4.28430676648433       -0.10458894423079       -0.52329581455916
C           -4.74783153313337       -1.40852169886667       -0.46681340573859
O           -5.63031801684174       -1.96003572233569       -1.32354160023686
C           -6.19268827267235       -1.16886627668939       -2.34354702468785
C           -4.28196326200098       -2.27343146314614        0.56164928380178
O           -4.78732079095515       -3.52086920937297        0.53999987569501
C           -4.43660099817667       -4.42296694719662        1.56387541637764
C           -3.37298403889397       -1.77984594725074        1.48467972955230
C           -2.92371247131410       -0.46818760666783        1.40856200826987
C           -2.39575561359657        2.14693206635918       -1.09997827412781
C           -1.43894664593554        1.08683987586612       -1.67296790166134
C           -0.06573666297629        1.18140021970502       -1.13079413663590
N            0.69437328884796        0.17082352400615       -0.76420175519421
C            2.09456589602504        0.36927458077234       -0.47289937378166
C            2.97127920697967       -0.03258702562447       -1.67422773461618
C            4.42029725233459       -0.03752600906598       -1.27866978467384
C            5.09635145590362        1.14992750129166       -1.03065775040874
C            6.42258984193719        1.14828252229469       -0.64184310758732
C            7.10357109369032       -0.05954764549179       -0.49790557290453
O            8.39452990329582       -0.17774956058484       -0.12539386273065
C            9.16001426089453        0.98325982640073        0.11068066459358
C            6.44605168530511       -1.28489758499756       -0.74774948395471
O            2.87612786836536       -2.05606486422877        1.37525115753328
C            3.95085677650757       -2.29077283210974        1.87147550443294
C            5.11267852509879       -1.23415095360078       -1.12869654667220
C            0.20175476355749       -1.18335633921842       -0.67993667260697
C           -4.12693775305878        2.74701443567964        0.66511905560004
C           -4.72434310433543        2.40324789188908        2.02749042714771
C           -3.79496157001954        4.23565262227350        0.60878051517622
H           -4.65265877802166        0.54803266382452       -1.29712908667723
H           -6.74635350631638       -0.31882033088208       -1.93357057499472
H           -6.88105901539618       -1.82370329352412       -2.87414010672795
H           -5.42908015486709       -0.80834103182948       -3.04050643195311
H           -4.73095074315091       -4.04531369257044        2.54748762367202
H           -4.98700793352777       -5.33667032298534        1.34842645612504
H           -3.36330322732374       -4.63694948071899        1.56022155020812
H           -3.01220895511006       -2.40800557490032        2.28263222371724
H           -2.23847626137680       -0.11281352299940        2.16241229825674
H           -3.25264838584612        2.23204009906381       -1.76689961575197
H           -1.89180045854171        3.11396172800116       -1.09017081048889
H           -1.86158152618768        0.09244624949094       -1.53772471895164
H           -1.36655315266249        1.27293815520590       -2.75233582399061
H           -0.83284440695625        1.52367170559871        0.88781308322736
H            0.40232772205479        2.15607225154628       -1.14990758226524
H            2.36674699056959       -0.25275953113021        0.38306048999527
H            2.27330251162799        1.41659346896018       -0.22388334265688
H            2.80315593698401        0.66786930732864       -2.49536553626557
H            2.68632256233477       -1.03077754491289       -2.00688997598407
H            4.58866460754105        2.09563266926815       -1.15238768081627
H            6.91862507444908        2.08795084461433       -0.46043160454072
H            8.75662401251910        1.56401430375314        0.94551475930428
H            9.21459577111117        1.61240253050307       -0.78225362940243
H           10.15707072944212        0.62985169186940        0.36528803187275
H            4.68737280161185       -1.49946371635684        2.06803017288533
H            4.26271669602281       -3.30404578977459        2.14859058243930
H            6.83938455375382       -1.96054950551064       -0.68498158860011
H            4.60283217590682       -2.16705432628685       -1.32598274764199
H            0.03692260869258       -1.60665043056248       -1.67261999566623
H           -0.74042332801251       -1.21119831058693       -0.12843536322065
H            0.93194146676162       -1.79233063692590       -0.15127206116067
H           -4.88755581135063        2.54036730759564       -0.09666196408702
H           -4.00146316258398        2.60254494932042        2.81205240885085
H           -5.01959639321267        1.35794428131676        2.07546311544272
H           -5.60451101947781        3.01572124752326        2.20402734553866
H           -3.01352419938229        4.47513097795831        1.32332596042887
H           -3.48198329555020        4.54582290470656       -0.38468746479171
H           -4.68062663979374        4.80804907353246        0.87134200793341
H           -0.90669303792333        2.84543769513868        2.81392987531349

          :  Hamiltonian                  GFN2-xTB          :
         :: total energy            -100.788921994067 Eh    ::
         :: gradient norm              0.002574025721 Eh/a0 ::
         :: HOMO-LUMO gap              1.780556616854 eV    ::
         :: SCC energy              -100.796330851994 Eh    ::
         :: -> dispersion             -0.075264540398 Eh    ::
         :: repulsion energy           1.537818198287 Eh    ::

    * Orbital Energies and Occupations

         #    Occupation            Energy/Eh            Energy/eV
      -------------------------------------------------------------
         1        2.0000           -0.8147632             -22.1708
       ...           ...                  ...                  ...
        78        1.9979           -0.5307986             -14.4438
        79        1.9978           -0.5300334             -14.4229
        80        1.9968           -0.5239921             -14.2586
        81        1.9951           -0.5172033             -14.0738
        82        1.9942           -0.5146575             -14.0045
        83        1.9934           -0.5123845             -13.9427
        84        1.9932           -0.5119194             -13.9300
        85        1.9884           -0.5035193             -13.7015
        86        1.9855           -0.4999423             -13.6041
        87        1.9769           -0.4925021             -13.4017
        88        1.9265           -0.4737861             -12.8924
        89        1.8961           -0.4680359             -12.7359
        90        1.8436           -0.4611208             -12.5477 (HOMO)
        91        0.3180           -0.3956866             -10.7672 (LUMO)
        92        0.0853           -0.3727875             -10.1441
        93        0.0125           -0.3418057              -9.3010
        94        0.0032           -0.3203564              -8.7173
        95        0.0029           -0.3183146              -8.6618
        96        0.0024           -0.3154640              -8.5842
        97        0.0016           -0.3091836              -8.4133
        98        0.0000           -0.1927566              -5.2452
        99        0.0000           -0.1898766              -5.1668
       100                         -0.1320760              -3.5940
       101                         -0.0703550              -1.9145
       ...                                ...                  ...
       171                          1.2247688              33.3277
      -------------------------------------------------------------
                  HL-Gap            0.0654343 Eh            1.7806 eV

     #   Z          covCN         q      C6AA      α(0)
     1   7 N        1.774    -0.266    27.730     7.798
     2   6 C        2.826     0.102    25.741     8.314
     3   6 C        3.907     0.007    20.410     6.422
     4   6 C        2.974     0.003    27.964     8.674
     5   6 C        2.920    -0.080    29.995     8.981
     6   6 C        2.862     0.131    25.137     8.218
     7   8 O        1.706    -0.227    17.757     5.689
     8   6 C        3.644     0.027    20.462     6.502
     9   6 C        2.864     0.131    25.137     8.218
    10   8 O        1.706    -0.224    17.717     5.683
    11   6 C        3.645     0.025    20.484     6.505
    12   6 C        2.913    -0.072    29.801     8.952
    13   6 C        2.921    -0.051    29.276     8.873
    14   6 C        3.812    -0.065    21.744     6.637
    15   6 C        3.802    -0.070    21.841     6.654
    16   6 C        2.845     0.014    27.685     8.623
    17   7 N        2.729     0.033    20.669     6.752
    18   6 C        3.758    -0.032    21.188     6.562
    19   6 C        3.808    -0.069    21.822     6.650
    20   6 C        2.966     0.003    27.964     8.674
    21   6 C        2.925    -0.037    28.909     8.817
    22   6 C        2.911    -0.064    29.583     8.919
    23   6 C        2.868     0.148    24.782     8.160
    24   8 O        1.706    -0.241    18.000     5.728
    25   6 C        3.643     0.027    20.459     6.502
    26   6 C        2.913    -0.078    29.947     8.974
    27   8 O        0.856    -0.328    20.295     6.040
    28   6 C        2.703     0.173    24.261     8.062
    29   6 C        2.927    -0.039    28.981     8.829
    30   6 C        3.701    -0.080    22.203     6.738
    31   6 C        3.853    -0.007    20.671     6.467
    32   6 C        3.756    -0.119    22.834     6.813
    33   6 C        3.755    -0.119    22.837     6.814
    34   1 H        0.926     0.053     2.288     2.365
    35   1 H        0.924     0.055     2.260     2.351
    36   1 H        0.925     0.082     1.954     2.186
    37   1 H        0.924     0.048     2.343     2.394
    38   1 H        0.924     0.057     2.238     2.339
    39   1 H        0.925     0.083     1.953     2.185
    40   1 H        0.924     0.052     2.296     2.369
    41   1 H        0.926     0.056     2.246     2.343
    42   1 H        0.926     0.042     2.417     2.431
    43   1 H        0.925     0.061     2.187     2.313
    44   1 H        0.924     0.055     2.263     2.352
    45   1 H        0.925     0.069     2.098     2.265
    46   1 H        0.924     0.083     1.944     2.181
    47   1 H        0.922     0.007     2.935     2.679
    48   1 H        0.925     0.073     2.051     2.239
    49   1 H        0.924     0.104     1.749     2.068
    50   1 H        0.924     0.064     2.149     2.292
    51   1 H        0.924     0.053     2.287     2.365
    52   1 H        0.925     0.058     2.224     2.332
    53   1 H        0.926     0.042     2.427     2.436
    54   1 H        0.926     0.052     2.292     2.367
    55   1 H        0.924     0.052     2.296     2.370
    56   1 H        0.924     0.054     2.265     2.353
    57   1 H        0.925     0.079     1.992     2.207
    58   1 H        0.923     0.041     2.442     2.444
    59   1 H        0.924     0.052     2.290     2.366
    60   1 H        0.930     0.104     1.750     2.069
    61   1 H        0.925     0.043     2.405     2.425
    62   1 H        0.924     0.078     2.003     2.213
    63   1 H        0.924     0.079     1.987     2.204
    64   1 H        0.925     0.108     1.713     2.047
    65   1 H        0.924     0.038     2.474     2.460
    66   1 H        0.925     0.070     2.090     2.261
    67   1 H        0.925     0.036     2.499     2.472
    68   1 H        0.925     0.052     2.291     2.367
    69   1 H        0.925     0.062     2.179     2.308
    70   1 H        0.925     0.035     2.517     2.481
    71   1 H        0.925     0.056     2.251     2.346
    72   1 H        0.860     0.159     1.343     1.815

Wiberg/Mayer (AO) data.
largest (>0.10) Wiberg bond orders for each atom

     #   Z sym  total        # sym  WBO       # sym  WBO       # sym  WBO
 ---------------------------------------------------------------------------
     1   7 N    3.037 --     2 C    1.958    72 H    0.941
     2   6 C    3.933 --     1 N    1.958     3 C    0.994    47 H    0.905
     3   6 C    3.974 --     2 C    0.994     4 C    0.969    14 C    0.958
                            31 C    0.942
     4   6 C    3.942 --    13 C    1.410     5 C    1.369     3 C    0.969
     5   6 C    3.959 --     6 C    1.399     4 C    1.369    34 H    0.957
     6   6 C    3.899 --     5 C    1.399     9 C    1.217     7 O    1.103
     7   8 O    2.254 --     6 C    1.103     8 C    0.978
     8   6 C    3.931 --     7 O    0.978    36 H    0.976    37 H    0.973
                            35 H    0.973
     9   6 C    3.895 --    12 C    1.388     6 C    1.217    10 O    1.108
    10   8 O    2.253 --     9 C    1.108    11 C    0.976
    11   6 C    3.928 --    39 H    0.977    10 O    0.976    40 H    0.973
                            38 H    0.973
    12   6 C    3.959 --    13 C    1.408     9 C    1.388    41 H    0.963
    13   6 C    3.949 --     4 C    1.410    12 C    1.408    42 H    0.962
    14   6 C    3.975 --    15 C    0.983    44 H    0.972    43 H    0.968
                             3 C    0.958
    15   6 C    3.986 --    16 C    1.059    14 C    0.983    45 H    0.960
                            46 H    0.925
    16   6 C    3.656 --    17 N    1.459    15 C    1.059    48 H    0.956
    17   7 N    3.531 --    16 C    1.459    30 C    0.996    18 C    0.984
    18   6 C    3.944 --    17 N    0.984    50 H    0.968    19 C    0.965
                            49 H    0.945
    19   6 C    3.976 --    20 C    1.008    52 H    0.973    51 H    0.968
                            18 C    0.965
    20   6 C    3.941 --    21 C    1.399    29 C    1.388    19 C    1.008
    21   6 C    3.972 --    22 C    1.452    20 C    1.399    53 H    0.968
                            26 C    0.102
    22   6 C    3.955 --    21 C    1.452    23 C    1.350    54 H    0.964
    23   6 C    3.904 --    22 C    1.350    26 C    1.313    24 O    1.102
    24   8 O    2.245 --    23 C    1.102    25 C    0.976
    25   6 C    3.931 --    57 H    0.977    24 O    0.976    56 H    0.973
                            55 H    0.973
    26   6 C    3.949 --    29 C    1.472    23 C    1.313    60 H    0.972
                            21 C    0.102
    27   8 O    2.020 --    28 C    1.908
    28   6 C    3.805 --    27 O    1.908    59 H    0.947    58 H    0.947
    29   6 C    3.973 --    26 C    1.472    20 C    1.388    61 H    0.966
    30   6 C    3.949 --    17 N    0.996    64 H    0.970    62 H    0.964
                            63 H    0.963
    31   6 C    3.971 --    33 C    1.009    32 C    1.008    65 H    0.959
                             3 C    0.942
    32   6 C    3.976 --    31 C    1.008    67 H    0.981    68 H    0.981
                            66 H    0.973
    33   6 C    3.981 --    31 C    1.009    70 H    0.983    71 H    0.980
                            69 H    0.975
    34   1 H    0.996 --     5 C    0.957
    35   1 H    0.992 --     8 C    0.973
    36   1 H    0.992 --     8 C    0.976
    37   1 H    0.993 --     8 C    0.973
    38   1 H    0.992 --    11 C    0.973
    39   1 H    0.992 --    11 C    0.977
    40   1 H    0.992 --    11 C    0.973
    41   1 H    0.995 --    12 C    0.963
    42   1 H    0.997 --    13 C    0.962
    43   1 H    0.995 --    14 C    0.968
    44   1 H    0.996 --    14 C    0.972
    45   1 H    0.994 --    15 C    0.960
    46   1 H    0.973 --    15 C    0.925
    47   1 H    0.985 --     2 C    0.905
    48   1 H    0.994 --    16 C    0.956
    49   1 H    0.985 --    18 C    0.945
    50   1 H    0.995 --    18 C    0.968
    51   1 H    0.995 --    19 C    0.968
    52   1 H    0.996 --    19 C    0.973
    53   1 H    0.997 --    21 C    0.968
    54   1 H    0.996 --    22 C    0.964
    55   1 H    0.992 --    25 C    0.973
    56   1 H    0.992 --    25 C    0.973
    57   1 H    0.993 --    25 C    0.977
    58   1 H    0.995 --    28 C    0.947
    59   1 H    0.993 --    28 C    0.947
    60   1 H    0.989 --    26 C    0.972
    61   1 H    0.996 --    29 C    0.966
    62   1 H    0.985 --    30 C    0.964
    63   1 H    0.988 --    30 C    0.963
    64   1 H    0.988 --    30 C    0.970
    65   1 H    0.991 --    31 C    0.959
    66   1 H    0.990 --    32 C    0.973
    67   1 H    0.996 --    32 C    0.981
    68   1 H    0.994 --    32 C    0.981
    69   1 H    0.992 --    33 C    0.975
    70   1 H    0.997 --    33 C    0.983
    71   1 H    0.993 --    33 C    0.980
    72   1 H    0.969 --     1 N    0.941
 ---------------------------------------------------------------------------

molecular dipole:
                 x           y           z       tot (Debye)
 q only:        0.547       0.414      -0.762
   full:        1.132       0.471      -0.799       3.720

           -------------------------------------------------
          | TOTAL ENERGY             -100.788921994067 Eh   |
          | GRADIENT NORM               0.002574025721 Eh/α |
          | HOMO-LUMO GAP               1.780556616854 eV   |
           -------------------------------------------------

 * finished run on 2024/04/06 at 11:16:24.299
