   * xtb version 6.6.1 (8d0f1dd) compiled by 'conda@1efc2f54142f' on 2023-08-01
          program call               : xtb xtbopt.xyz --opt crude --input .xc2 --gfn2

   ID    Z sym.   atoms
    1    7 N      1, 17
    2    6 C      2-6, 8, 9, 11-16, 18-23, 25, 26, 28-33
    3    8 O      7, 10, 24, 27
    4    1 H      34-72

          :  Hamiltonian                  GFN2-xTB          :
 * total energy  :   -99.2570951 Eh     change       -0.5684342E-13 Eh
 * total energy  :   -99.3637751 Eh     change       -0.1066800E+00 Eh
 * total energy  :   -99.3651565 Eh     change       -0.1381338E-02 Eh
 * total energy  :   -99.3581508 Eh     change        0.7005638E-02 Eh
 * total energy  :   -99.3655317 Eh     change       -0.7380820E-02 Eh
 * total energy  :   -99.3658084 Eh     change       -0.2767320E-03 Eh
   *** GEOMETRY OPTIMIZATION CONVERGED AFTER 6 ITERATIONS ***

 final structure:
================
72
 xtb: 6.6.1 (8d0f1dd)
N           -1.76853202855702        2.75763937658111        2.27760356445760
C           -1.74243773505546        2.04851562231336        1.25019542011793
C           -2.91268569822133        1.83627963894165        0.32910414195884
C           -3.36780823715142        0.38647287897108        0.40961562016945
C           -4.28376085303353       -0.10476096200396       -0.52273666571985
C           -4.74525187717153       -1.40941355249135       -0.46623512593289
O           -5.62744875462140       -1.96182032007814       -1.32279530065039
C           -6.19462581704915       -1.16958873830721       -2.33940918630352
C           -4.27736998866189       -2.27365497592543        0.56178588509798
O           -4.78095503882170       -3.52187168460755        0.54102612167397
C           -4.42920070434352       -4.42262289679218        1.56579541955792
C           -3.36827714590050       -1.77870217178125        1.48400112407841
C           -2.92107076972476       -0.46633824110349        1.40791088835780
C           -2.39846285773778        2.15003007097337       -1.09990077738435
C           -1.44059659363570        1.09094935486275       -1.67299812302452
C           -0.06815646535810        1.18405741274639       -1.12809679494722
N            0.69105352544907        0.17198023194260       -0.76309815220295
C            2.09169513110118        0.36953947847974       -0.47110920098739
C            2.96804524816252       -0.01767854216248       -1.67823388900753
C            4.41778890935561       -0.02832176223818       -1.28443605393895
C            5.09842599053017        1.15792723291671       -1.04073088940767
C            6.42517503691302        1.16176143148276       -0.65103334667325
C            7.10892917405390       -0.04483597284122       -0.49690783851903
O            8.39714840781388       -0.16741817186537       -0.12134523177832
C            9.16533088134637        0.99202153907581        0.11224383500548
C            6.42701642509806       -1.24320603290175       -0.74348952563897
O            2.86985150193022       -2.05575839282693        1.36770567438338
C            3.94118192893338       -2.30810044530752        1.86324937836024
C            5.10430222851323       -1.22947937745293       -1.12762111646960
C            0.19684314745853       -1.18209882164346       -0.68346423439501
C           -4.13186807014952        2.74653726906212        0.66475237993495
C           -4.72686023372425        2.40342534336786        2.02832312429728
C           -3.80402435713348        4.23594072123885        0.60587926699721
H           -4.65345739905659        0.54744227965789       -1.29627251497572
H           -6.74624169737561       -0.31990722815881       -1.92599501571681
H           -6.88555790253592       -1.82379371425164       -2.86743208493443
H           -5.43427801586796       -0.80847797865821       -3.03963511364291
H           -4.72162981011438       -4.04322356610768        2.54928849679515
H           -4.98062036217466       -5.33626790658905        1.35268419014557
H           -3.35605902491698       -4.63737221841458        1.56060087622369
H           -3.00595603874890       -2.40654480184839        2.28150459680384
H           -2.23565630878010       -0.10997127599348        2.16113105205737
H           -3.25517095132143        2.23454705536992       -1.76717161188422
H           -1.89521490009731        3.11746187750757       -1.08962575515691
H           -1.86378534371395        0.09640774711150       -1.54042751609808
H           -1.36604201665804        1.27907384648184       -2.75189574273164
H           -0.83443417692461        1.53302378935118        0.88644740742263
H            0.39998666898126        2.15867482906935       -1.14487474082329
H            2.36525180142813       -0.26036046356869        0.37851208652332
H            2.26847675037258        1.41473930929830       -0.21122276004272
H            2.79824760011957        0.69346301996358       -2.49014501695837
H            2.68142277101114       -1.01135755957171       -2.02321061808410
H            4.58992880276871        2.10290007360301       -1.16686717744839
H            6.91779341802248        2.10438466715556       -0.47490447322590
H            8.76249000243888        1.57787901199780        0.94397630032225
H            9.22581304329494        1.61850024068177       -0.78229797459364
H           10.16086118241725        0.63672381125494        0.37122571020898
H            4.69378288370674       -1.53085617416791        2.05902511426336
H            4.23120811511300       -3.32670895306034        2.15060474973128
H            6.96360420806396       -2.16812401758480       -0.63514893036584
H            4.59829332670096       -2.16443966669941       -1.31804180999259
H            0.03179958951117       -1.60201947207380       -1.67763869976097
H           -0.74553926137361       -1.21066137111730       -0.13235436037105
H            0.92614478492151       -1.79375295219978       -0.15665149310810
H           -4.89261862303798        2.53665616133568       -0.09599924013259
H           -4.00446019295920        2.60851266217943        2.81185474849950
H           -5.01669004736912        1.35676112821680        2.07939893622791
H           -5.61000679582141        3.01192159589578        2.20373249217026
H           -3.02471977795836        4.47924473436772        1.32150533550501
H           -3.48989954832097        4.54494213901696       -0.38757881170548
H           -4.69193933934278        4.80631755683839        0.86535786210487
H           -0.91200612757563        2.85099476621565        2.81425595825861

          :  Hamiltonian                  GFN2-xTB          :
         :: total energy             -99.365808398326 Eh    ::
         :: gradient norm              0.003603306845 Eh/a0 ::
         :: HOMO-LUMO gap              1.781261920123 eV    ::
         :: SCC energy              -100.769794455786 Eh    ::
         :: -> dispersion             -0.075217637462 Eh    ::
         :: repulsion energy           1.402565225550 Eh    ::

    * Orbital Energies and Occupations

         #    Occupation            Energy/Eh            Energy/eV
      -------------------------------------------------------------
         1        2.0000           -0.8147089             -22.1694
       ...           ...                  ...                  ...
        78        1.9979           -0.5307331             -14.4420
        79        1.9978           -0.5300407             -14.4231
        80        1.9968           -0.5239651             -14.2578
        81        1.9951           -0.5171689             -14.0729
        82        1.9943           -0.5146540             -14.0044
        83        1.9932           -0.5118854             -13.9291
        84        1.9929           -0.5112949             -13.9130
        85        1.9884           -0.5034433             -13.6994
        86        1.9851           -0.4994803             -13.5916
        87        1.9769           -0.4924628             -13.4006
        88        1.9268           -0.4737832             -12.8923
        89        1.8959           -0.4679466             -12.7335
        90        1.8440           -0.4610986             -12.5471 (HOMO)
        91        0.3183           -0.3956385             -10.7659 (LUMO)
        92        0.0857           -0.3728205             -10.1450
        93        0.0125           -0.3417915              -9.3006
        94        0.0029           -0.3182878              -8.6611
        95        0.0027           -0.3175799              -8.6418
        96        0.0024           -0.3154266              -8.5832
        97        0.0016           -0.3092046              -8.4139
        98        0.0000           -0.1927202              -5.2442
        99        0.0000           -0.1871361              -5.0922
       100                         -0.1323695              -3.6020
       101                         -0.0703327              -1.9139
       ...                                ...                  ...
       171                          0.5702823              15.5182
      -------------------------------------------------------------
                  HL-Gap            0.0654602 Eh            1.7813 eV

     #   Z          covCN         q      C6AA      α(0)
     1   7 N        1.774    -0.266    27.729     7.798
     2   6 C        2.826     0.102    25.742     8.314
     3   6 C        3.907     0.007    20.410     6.422
     4   6 C        2.974     0.003    27.964     8.674
     5   6 C        2.920    -0.080    29.995     8.981
     6   6 C        2.862     0.131    25.137     8.218
     7   8 O        1.706    -0.227    17.758     5.690
     8   6 C        3.644     0.027    20.461     6.502
     9   6 C        2.864     0.131    25.137     8.218
    10   8 O        1.706    -0.224    17.719     5.683
    11   6 C        3.645     0.025    20.483     6.505
    12   6 C        2.913    -0.072    29.801     8.952
    13   6 C        2.921    -0.051    29.276     8.873
    14   6 C        3.812    -0.065    21.744     6.637
    15   6 C        3.802    -0.070    21.841     6.654
    16   6 C        2.845     0.014    27.685     8.623
    17   7 N        2.729     0.033    20.674     6.753
    18   6 C        3.758    -0.032    21.191     6.563
    19   6 C        3.807    -0.069    21.817     6.649
    20   6 C        2.969     0.004    27.939     8.670
    21   6 C        2.924    -0.037    28.924     8.820
    22   6 C        2.915    -0.063    29.558     8.915
    23   6 C        2.865     0.152    24.694     8.146
    24   8 O        1.706    -0.240    17.971     5.724
    25   6 C        3.644     0.027    20.452     6.501
    26   6 C        2.919    -0.052    29.291     8.875
    27   8 O        0.856    -0.328    20.298     6.040
    28   6 C        2.702     0.173    24.258     8.061
    29   6 C        2.923    -0.035    28.881     8.813
    30   6 C        3.701    -0.080    22.201     6.738
    31   6 C        3.853    -0.007    20.671     6.467
    32   6 C        3.756    -0.119    22.835     6.814
    33   6 C        3.755    -0.119    22.835     6.814
    34   1 H        0.926     0.053     2.288     2.365
    35   1 H        0.924     0.055     2.261     2.351
    36   1 H        0.925     0.082     1.954     2.186
    37   1 H        0.924     0.048     2.343     2.394
    38   1 H        0.924     0.057     2.238     2.340
    39   1 H        0.925     0.083     1.953     2.185
    40   1 H        0.924     0.052     2.296     2.370
    41   1 H        0.926     0.056     2.246     2.344
    42   1 H        0.926     0.042     2.417     2.431
    43   1 H        0.925     0.061     2.188     2.313
    44   1 H        0.924     0.055     2.263     2.353
    45   1 H        0.925     0.069     2.099     2.265
    46   1 H        0.924     0.083     1.945     2.181
    47   1 H        0.922     0.007     2.933     2.678
    48   1 H        0.925     0.073     2.051     2.240
    49   1 H        0.924     0.104     1.746     2.066
    50   1 H        0.924     0.064     2.151     2.294
    51   1 H        0.924     0.052     2.290     2.367
    52   1 H        0.924     0.058     2.226     2.333
    53   1 H        0.926     0.041     2.432     2.439
    54   1 H        0.926     0.052     2.294     2.368
    55   1 H        0.924     0.052     2.294     2.368
    56   1 H        0.924     0.055     2.262     2.352
    57   1 H        0.925     0.079     1.988     2.205
    58   1 H        0.923     0.041     2.440     2.443
    59   1 H        0.924     0.052     2.292     2.368
    60   1 H        0.926     0.064     2.148     2.292
    61   1 H        0.926     0.046     2.373     2.409
    62   1 H        0.924     0.078     2.004     2.214
    63   1 H        0.924     0.079     1.987     2.204
    64   1 H        0.925     0.108     1.714     2.048
    65   1 H        0.924     0.038     2.474     2.460
    66   1 H        0.925     0.070     2.088     2.260
    67   1 H        0.925     0.036     2.499     2.472
    68   1 H        0.925     0.052     2.291     2.367
    69   1 H        0.925     0.062     2.180     2.309
    70   1 H        0.925     0.035     2.516     2.481
    71   1 H        0.925     0.056     2.251     2.346
    72   1 H        0.860     0.159     1.343     1.815

Wiberg/Mayer (AO) data.
largest (>0.10) Wiberg bond orders for each atom

     #   Z sym  total        # sym  WBO       # sym  WBO       # sym  WBO
 ---------------------------------------------------------------------------
     1   7 N    3.037 --     2 C    1.958    72 H    0.941
     2   6 C    3.933 --     1 N    1.958     3 C    0.994    47 H    0.905
     3   6 C    3.974 --     2 C    0.994     4 C    0.969    14 C    0.958
                            31 C    0.942
     4   6 C    3.943 --    13 C    1.410     5 C    1.369     3 C    0.969
     5   6 C    3.959 --     6 C    1.399     4 C    1.369    34 H    0.957
     6   6 C    3.899 --     5 C    1.399     9 C    1.217     7 O    1.103
     7   8 O    2.254 --     6 C    1.103     8 C    0.978
     8   6 C    3.931 --     7 O    0.978    36 H    0.976    37 H    0.973
                            35 H    0.973
     9   6 C    3.895 --    12 C    1.388     6 C    1.217    10 O    1.107
    10   8 O    2.253 --     9 C    1.107    11 C    0.976
    11   6 C    3.928 --    39 H    0.977    10 O    0.976    40 H    0.973
                            38 H    0.973
    12   6 C    3.959 --    13 C    1.408     9 C    1.388    41 H    0.963
    13   6 C    3.949 --     4 C    1.410    12 C    1.408    42 H    0.962
    14   6 C    3.975 --    15 C    0.983    44 H    0.972    43 H    0.968
                             3 C    0.958
    15   6 C    3.986 --    16 C    1.059    14 C    0.983    45 H    0.960
                            46 H    0.925
    16   6 C    3.656 --    17 N    1.459    15 C    1.059    48 H    0.956
    17   7 N    3.530 --    16 C    1.459    30 C    0.996    18 C    0.984
    18   6 C    3.943 --    17 N    0.984    50 H    0.968    19 C    0.965
                            49 H    0.945
    19   6 C    3.976 --    20 C    1.008    52 H    0.973    51 H    0.968
                            18 C    0.965
    20   6 C    3.941 --    21 C    1.401    29 C    1.381    19 C    1.008
    21   6 C    3.972 --    22 C    1.452    20 C    1.401    53 H    0.968
    22   6 C    3.955 --    21 C    1.452    23 C    1.344    54 H    0.964
    23   6 C    3.906 --    22 C    1.344    26 C    1.320    24 O    1.102
    24   8 O    2.245 --    23 C    1.102    25 C    0.976
    25   6 C    3.930 --    57 H    0.977    24 O    0.976    56 H    0.973
                            55 H    0.973
    26   6 C    3.950 --    29 C    1.478    23 C    1.320    60 H    0.966
    27   8 O    2.020 --    28 C    1.907
    28   6 C    3.804 --    27 O    1.907    58 H    0.946    59 H    0.946
    29   6 C    3.973 --    26 C    1.478    20 C    1.381    61 H    0.966
    30   6 C    3.949 --    17 N    0.996    64 H    0.970    62 H    0.964
                            63 H    0.963
    31   6 C    3.971 --    33 C    1.009    32 C    1.008    65 H    0.959
                             3 C    0.942
    32   6 C    3.976 --    31 C    1.008    67 H    0.981    68 H    0.981
                            66 H    0.973
    33   6 C    3.981 --    31 C    1.009    70 H    0.982    71 H    0.980
                            69 H    0.976
    34   1 H    0.996 --     5 C    0.957
    35   1 H    0.992 --     8 C    0.973
    36   1 H    0.992 --     8 C    0.976
    37   1 H    0.993 --     8 C    0.973
    38   1 H    0.992 --    11 C    0.973
    39   1 H    0.992 --    11 C    0.977
    40   1 H    0.992 --    11 C    0.973
    41   1 H    0.995 --    12 C    0.963
    42   1 H    0.997 --    13 C    0.962
    43   1 H    0.995 --    14 C    0.968
    44   1 H    0.996 --    14 C    0.972
    45   1 H    0.994 --    15 C    0.960
    46   1 H    0.973 --    15 C    0.925
    47   1 H    0.985 --     2 C    0.905
    48   1 H    0.994 --    16 C    0.956
    49   1 H    0.985 --    18 C    0.945
    50   1 H    0.995 --    18 C    0.968
    51   1 H    0.994 --    19 C    0.968
    52   1 H    0.996 --    19 C    0.973
    53   1 H    0.997 --    21 C    0.968
    54   1 H    0.996 --    22 C    0.964
    55   1 H    0.992 --    25 C    0.973
    56   1 H    0.992 --    25 C    0.973
    57   1 H    0.993 --    25 C    0.977
    58   1 H    0.995 --    28 C    0.946
    59   1 H    0.993 --    28 C    0.946
    60   1 H    0.994 --    26 C    0.966
    61   1 H    0.996 --    29 C    0.966
    62   1 H    0.985 --    30 C    0.964
    63   1 H    0.988 --    30 C    0.963
    64   1 H    0.988 --    30 C    0.970
    65   1 H    0.991 --    31 C    0.959
    66   1 H    0.990 --    32 C    0.973
    67   1 H    0.996 --    32 C    0.981
    68   1 H    0.994 --    32 C    0.981
    69   1 H    0.992 --    33 C    0.976
    70   1 H    0.997 --    33 C    0.982
    71   1 H    0.993 --    33 C    0.980
    72   1 H    0.969 --     1 N    0.941
 ---------------------------------------------------------------------------

molecular dipole:
                 x           y           z       tot (Debye)
 q only:        0.544       0.447      -0.759
   full:        1.138       0.476      -0.795       3.731

           -------------------------------------------------
          | TOTAL ENERGY              -99.365808398326 Eh   |
          | GRADIENT NORM               0.003603306845 Eh/α |
          | HOMO-LUMO GAP               1.781261920123 eV   |
           -------------------------------------------------

 * finished run on 2024/04/06 at 11:16:25.601
