   * xtb version 6.6.1 (8d0f1dd) compiled by 'conda@1efc2f54142f' on 2023-08-01
          program call               : xtb struc.xyz --opt loose --input .xc1 --gfn2

   ID    Z sym.   atoms
    1    7 N      1, 17
    2    6 C      2-6, 8, 9, 11-16, 18-23, 25, 26, 28-33
    3    8 O      7, 10, 24, 27
    4    1 H      34-72
constraining bond 49 50 to    3.2800000 Å, actual value:    1.7708731 Å

          :  Hamiltonian                  GFN2-xTB          :
 * total energy  :   -98.9974824 Eh     change       -0.4035485E-08 Eh
 * total energy  :   -99.1593114 Eh     change       -0.1618289E+00 Eh
 * total energy  :   -99.2334097 Eh     change       -0.7409832E-01 Eh
 * total energy  :   -99.2531369 Eh     change       -0.1972722E-01 Eh
 * total energy  :   -99.2567532 Eh     change       -0.3616287E-02 Eh
 * total energy  :   -99.2574370 Eh     change       -0.6838591E-03 Eh
 * total energy  :   -99.2579137 Eh     change       -0.4766881E-03 Eh
 * total energy  :   -99.2582101 Eh     change       -0.2963622E-03 Eh
 * total energy  :   -99.2585415 Eh     change       -0.3314011E-03 Eh
 * total energy  :   -99.2589065 Eh     change       -0.3650144E-03 Eh
 * total energy  :   -99.3160578 Eh     change       -0.8592648E-04 Eh
 * total energy  :   -99.3161152 Eh     change       -0.5741349E-04 Eh
 * total energy  :   -99.3161813 Eh     change       -0.6605024E-04 Eh
 * total energy  :   -99.3162622 Eh     change       -0.8090314E-04 Eh
 * total energy  :   -99.3163379 Eh     change       -0.7575025E-04 Eh
 * total energy  :   -99.3164344 Eh     change       -0.9650455E-04 Eh
 * total energy  :   -99.3165023 Eh     change       -0.6783961E-04 Eh
 * total energy  :   -99.3165719 Eh     change       -0.6960222E-04 Eh
 * total energy  :   -99.3166075 Eh     change       -0.3564208E-04 Eh
   *** GEOMETRY OPTIMIZATION CONVERGED AFTER 70 ITERATIONS ***

 final structure:
================
72
 xtb: 6.6.1 (8d0f1dd)
N           -1.00598130535763        2.88001384805734        1.65498043790602
C           -1.43164611907732        1.92141269948667        0.97289064263964
C           -2.79509026070682        1.88392543541079        0.33392758296790
C           -3.29887770608764        0.45677384050460        0.40348188364533
C           -4.19461641178093       -0.04942311295760       -0.53094612450162
C           -4.60967888601834       -1.37395795647337       -0.48864190158256
O           -5.47429174365786       -1.94498564570113       -1.34622048874892
C           -6.11408439244511       -1.15456343773745       -2.32084317005815
C           -4.10106387243883       -2.23766897772881        0.52442889013464
O           -4.51394526997273       -3.51162357720289        0.45555358018627
C           -4.04313339169092       -4.43908271905986        1.40672055075299
C           -3.26245704768628       -1.70482523108302        1.49516405682352
C           -2.87602688669759       -0.38067997810158        1.43788152287544
C           -2.59776802585629        2.36512361401204       -1.12830028008165
C           -1.79218233353666        1.40751428351007       -2.01175488277049
C           -0.35365759326465        1.42618917945742       -1.67690392626226
N            0.46206695120311        0.38897687707662       -1.84688098771061
C            1.62590160188366        0.32642925737150       -1.21589452596597
C            2.55098596028129       -0.82749348345301       -1.22517439141634
C            3.91406243471269       -0.45306436102022       -0.70714562383351
C            4.54207087499581        0.69310313537667       -1.17966778467035
C            5.80595232432843        1.04603535550906       -0.73875631035867
C            6.47998998462715        0.25238903597609        0.18156370590418
O            7.70665964790449        0.48990096888310        0.67145042651934
C            8.42130842424203        1.62331344918269        0.23334720736897
C            5.84771813267323       -0.93015623204869        0.66610303136950
O            6.57303333678716       -1.64246116577180        1.54307209986296
C            6.05551935663656       -2.84473955539351        2.06414656434042
C            4.57465634033867       -1.25665593112383        0.21533161240750
C           -0.00017718274047       -0.73262563256684       -2.63362858285956
C           -3.84552369437147        2.80066081616089        1.03650090467553
C           -4.02031087528515        2.43365845142082        2.50771502111138
C           -3.52465257070953        4.28806754712192        0.92117729869064
H           -4.57130852940894        0.58993366876026       -1.31262972382167
H           -6.66834340786033       -0.32861202971991       -1.86516526690550
H           -6.81112497568402       -1.82079733732022       -2.82552618404564
H           -5.40089209690529       -0.75893140553567       -3.05045588075262
H           -4.37594026212722       -4.17853460228797        2.41579682662860
H           -4.47356411289405       -5.39678669473806        1.12030462650123
H           -2.95171604725709       -4.50659278133067        1.38859701187531
H           -2.87728114811136       -2.32568913724556        2.28710811815124
H           -2.21820002485411       -0.00243543630178        2.20291138428752
H           -3.58043284094131        2.51552671432466       -1.57734474844570
H           -2.09781538088733        3.33341983256549       -1.10365963820437
H           -2.16582766073399        0.38928033088838       -1.87799624047538
H           -1.95151246863882        1.69147893596405       -3.05937413073251
H           -0.85036415851187        1.02045791169932        0.74181202092552
H            0.04535279347084        2.27735376885304       -1.14555778554819
H           -0.79606250883586       -0.69660841269525        0.01669367318678
H            1.85951293650597        1.14885044297720       -0.55634271553477
H            2.66831759197346       -1.23733992498287       -2.23541654793272
H            2.11421674908323       -1.62580163246051       -0.61165542601155
H            4.04452352341323        1.31604400441180       -1.90740201660508
H            6.26544763545605        1.94189378196671       -1.12304351536321
H            7.90171175195973        2.54984405375948        0.49485877867066
H            8.59521374460861        1.59347675001979       -0.84633980659702
H            9.37621682998283        1.58580209394993        0.75400380171663
H            6.82691919463803       -3.22974687882943        2.72828730444328
H            5.13815640509392       -2.67209220690274        2.63499592261509
H            5.86220313129396       -3.57378109158805        1.27164972140374
H            4.08687465904008       -2.14660517024877        0.57989444342802
H            0.83807002486271       -1.28884673447480       -3.03940982231141
H           -0.63683332951982       -0.38966776884414       -3.44567391134793
H           -0.56802831944694       -1.38410390035938       -1.96261030559367
H           -4.79799009108653        2.61015284857153        0.52486891575580
H           -3.10038366566442        2.62215812426135        3.05455836032859
H           -4.29702069091298        1.38892042101927        2.62719041490581
H           -4.80638728182772        3.04437373494526        2.94470427309528
H           -2.52298000044260        4.48097545706633        1.29593726919575
H           -3.60425704320578        4.64561523948830       -0.10140905143541
H           -4.22993802178798        4.85321602884769        1.52548320672527
H           -0.06677710774148        2.82885772747358        2.03394344720701

          :  Hamiltonian                  GFN2-xTB          :
         :: total energy             -99.316607523590 Eh    ::
         :: gradient norm              0.003939863424 Eh/a0 ::
         :: HOMO-LUMO gap              0.319029025946 eV    ::
         :: SCC energy              -100.702718215189 Eh    ::
         :: -> dispersion             -0.126751857655 Eh    ::
         :: repulsion energy           1.384452531283 Eh    ::

    * Orbital Energies and Occupations

         #    Occupation            Energy/Eh            Energy/eV
      -------------------------------------------------------------
         1        2.0000           -0.8173886             -22.2423
       ...           ...                  ...                  ...
        78        1.9968           -0.5357187             -14.5776
        79        1.9963           -0.5336735             -14.5220
        80        1.9949           -0.5283762             -14.3778
        81        1.9918           -0.5209561             -14.1759
        82        1.9903           -0.5181472             -14.0995
        83        1.9896           -0.5171687             -14.0729
        84        1.9866           -0.5130242             -13.9601
        85        1.9648           -0.4976065             -13.5406
        86        1.9548           -0.4935394             -13.4299
        87        1.9193           -0.4840881             -13.1727
        88        1.7545           -0.4650460             -12.6545
        89        1.7382           -0.4638809             -12.6228
        90        1.5216           -0.4522305             -12.3058 (HOMO)
        91        1.2054           -0.4405064             -11.9868 (LUMO)
        92        0.0084           -0.3473198              -9.4511
        93        0.0037           -0.3342355              -9.0950
        94        0.0016           -0.3206889              -8.7264
        95        0.0015           -0.3198160              -8.7026
        96        0.0010           -0.3140950              -8.5470
        97        0.0009           -0.3114073              -8.4738
        98        0.0000           -0.1959747              -5.3327
        99        0.0000           -0.1900496              -5.1715
       100                         -0.0931651              -2.5352
       101                         -0.0696868              -1.8963
       ...                                ...                  ...
       171                          0.5693616              15.4931
      -------------------------------------------------------------
                  HL-Gap            0.0117241 Eh            0.3190 eV

     #   Z          covCN         q      C6AA      α(0)
     1   7 N        1.774    -0.254    27.436     7.756
     2   6 C        2.831     0.101    25.754     8.316
     3   6 C        3.908     0.016    20.251     6.396
     4   6 C        2.977     0.032    27.274     8.567
     5   6 C        2.918    -0.072    29.783     8.949
     6   6 C        2.862     0.139    24.961     8.189
     7   8 O        1.706    -0.212    17.530     5.653
     8   6 C        3.644     0.024    20.514     6.510
     9   6 C        2.866     0.144    24.857     8.172
    10   8 O        1.706    -0.205    17.417     5.635
    11   6 C        3.647     0.022    20.531     6.511
    12   6 C        2.912    -0.047    29.172     8.857
    13   6 C        2.923     0.006    27.885     8.660
    14   6 C        3.813    -0.062    21.673     6.626
    15   6 C        3.803    -0.060    21.652     6.625
    16   6 C        2.886     0.005    27.906     8.661
    17   7 N        2.731     0.130    19.034     6.480
    18   6 C        2.885     0.010    27.786     8.642
    19   6 C        3.810    -0.063    21.707     6.632
    20   6 C        2.970     0.010    27.786     8.646
    21   6 C        2.922    -0.045    29.121     8.850
    22   6 C        2.912    -0.065    29.608     8.923
    23   6 C        2.864     0.137    25.008     8.197
    24   8 O        1.706    -0.210    17.499     5.648
    25   6 C        3.645     0.022    20.541     6.514
    26   6 C        2.862     0.138    24.979     8.192
    27   8 O        1.706    -0.212    17.516     5.651
    28   6 C        3.644     0.023    20.534     6.513
    29   6 C        2.918    -0.073    29.833     8.957
    30   6 C        3.717    -0.074    22.033     6.705
    31   6 C        3.853    -0.007    20.663     6.465
    32   6 C        3.756    -0.115    22.752     6.801
    33   6 C        3.755    -0.123    22.915     6.825
    34   1 H        0.926     0.058     2.226     2.333
    35   1 H        0.924     0.059     2.216     2.328
    36   1 H        0.925     0.087     1.913     2.163
    37   1 H        0.924     0.055     2.262     2.352
    38   1 H        0.924     0.062     2.174     2.306
    39   1 H        0.925     0.086     1.918     2.166
    40   1 H        0.924     0.063     2.160     2.299
    41   1 H        0.926     0.068     2.105     2.269
    42   1 H        0.926     0.066     2.128     2.281
    43   1 H        0.924     0.060     2.204     2.322
    44   1 H        0.925     0.063     2.165     2.301
    45   1 H        0.924     0.092     1.857     2.131
    46   1 H        0.924     0.071     2.070     2.250
    47   1 H        0.924     0.101     1.776     2.084
    48   1 H        0.926     0.063     2.162     2.299
    49   1 H        0.000    -0.781  2497.495    91.379
    50   1 H        0.926     0.070     2.086     2.259
    51   1 H        0.924     0.081     1.971     2.195
    52   1 H        0.924     0.103     1.754     2.071
    53   1 H        0.926     0.050     2.315     2.379
    54   1 H        0.926     0.063     2.162     2.299
    55   1 H        0.924     0.060     2.205     2.322
    56   1 H        0.924     0.060     2.194     2.316
    57   1 H        0.925     0.087     1.908     2.160
    58   1 H        0.925     0.087     1.912     2.162
    59   1 H        0.924     0.059     2.212     2.326
    60   1 H        0.924     0.059     2.211     2.325
    61   1 H        0.926     0.061     2.191     2.315
    62   1 H        0.925     0.081     1.967     2.193
    63   1 H        0.925     0.078     2.003     2.213
    64   1 H        0.924     0.129     1.541     1.941
    65   1 H        0.924     0.042     2.419     2.432
    66   1 H        0.925     0.058     2.228     2.334
    67   1 H        0.925     0.038     2.471     2.458
    68   1 H        0.925     0.056     2.246     2.344
    69   1 H        0.925     0.076     2.024     2.225
    70   1 H        0.925     0.043     2.412     2.429
    71   1 H        0.925     0.060     2.204     2.322
    72   1 H        0.860     0.166     1.300     1.786

Wiberg/Mayer (AO) data.
largest (>0.10) Wiberg bond orders for each atom

     #   Z sym  total        # sym  WBO       # sym  WBO       # sym  WBO
 ---------------------------------------------------------------------------
     1   7 N    2.990 --     2 C    1.943    72 H    0.933
     2   6 C    3.882 --     1 N    1.943     3 C    0.983    47 H    0.871
     3   6 C    3.952 --     4 C    0.987     2 C    0.983    14 C    0.950
                            31 C    0.928
     4   6 C    3.880 --     5 C    1.395    13 C    1.340     3 C    0.987
     5   6 C    3.940 --     4 C    1.395     6 C    1.373    34 H    0.956
     6   6 C    3.845 --     5 C    1.373     9 C    1.196     7 O    1.117
     7   8 O    2.239 --     6 C    1.117     8 C    0.976
     8   6 C    3.925 --    36 H    0.976     7 O    0.976    35 H    0.971
                            37 H    0.970
     9   6 C    3.848 --    12 C    1.363     6 C    1.196    10 O    1.129
    10   8 O    2.245 --     9 C    1.129    11 C    0.973
    11   6 C    3.920 --    39 H    0.976    10 O    0.973    40 H    0.970
                            38 H    0.969
    12   6 C    3.933 --    13 C    1.430     9 C    1.363    41 H    0.960
    13   6 C    3.883 --    12 C    1.430     4 C    1.340    42 H    0.958
    14   6 C    3.977 --    15 C    0.996    44 H    0.969    43 H    0.965
                             3 C    0.950
    15   6 C    3.975 --    16 C    1.062    14 C    0.996    45 H    0.937
                            46 H    0.929
    16   6 C    3.544 --    17 N    1.338    15 C    1.062    48 H    0.956
    17   7 N    3.767 --    18 C    1.366    16 C    1.338    30 C    0.983
    18   6 C    3.567 --    17 N    1.366    19 C    1.059    50 H    0.958
    19   6 C    3.977 --    18 C    1.059    20 C    1.006    51 H    0.924
                            52 H    0.917
    20   6 C    3.924 --    29 C    1.394    21 C    1.386    19 C    1.006
    21   6 C    3.926 --    22 C    1.429    20 C    1.386    53 H    0.966
    22   6 C    3.949 --    21 C    1.429    23 C    1.369    54 H    0.962
    23   6 C    3.871 --    22 C    1.369    26 C    1.206    24 O    1.123
    24   8 O    2.252 --    23 C    1.123    25 C    0.974
    25   6 C    3.922 --    57 H    0.976    24 O    0.974    56 H    0.971
                            55 H    0.971
    26   6 C    3.878 --    29 C    1.379    23 C    1.206    27 O    1.121
    27   8 O    2.255 --    26 C    1.121    28 C    0.974
    28   6 C    3.923 --    58 H    0.976    27 O    0.974    60 H    0.971
                            59 H    0.971
    29   6 C    3.948 --    20 C    1.394    26 C    1.379    61 H    0.960
    30   6 C    3.935 --    17 N    0.983    63 H    0.976    62 H    0.967
                            64 H    0.937
    31   6 C    3.954 --    32 C    1.008    33 C    1.008    65 H    0.956
                             3 C    0.928
    32   6 C    3.975 --    31 C    1.008    68 H    0.979    67 H    0.978
                            66 H    0.978
    33   6 C    3.961 --    31 C    1.008    70 H    0.980    71 H    0.975
                            69 H    0.963
    34   1 H    0.994 --     5 C    0.956
    35   1 H    0.989 --     8 C    0.971
    36   1 H    0.992 --     8 C    0.976
    37   1 H    0.988 --     8 C    0.970
    38   1 H    0.986 --    11 C    0.969
    39   1 H    0.992 --    11 C    0.976
    40   1 H    0.987 --    11 C    0.970
    41   1 H    0.992 --    12 C    0.960
    42   1 H    0.993 --    13 C    0.958
    43   1 H    0.993 --    14 C    0.965
    44   1 H    0.994 --    14 C    0.969
    45   1 H    0.977 --    15 C    0.937
    46   1 H    0.963 --    15 C    0.929
    47   1 H    0.940 --     2 C    0.871
    48   1 H    0.995 --    16 C    0.956
    49   1 H    0.087
    50   1 H    0.995 --    18 C    0.958
    51   1 H    0.974 --    19 C    0.924
    52   1 H    0.957 --    19 C    0.917
    53   1 H    0.996 --    21 C    0.966
    54   1 H    0.994 --    22 C    0.962
    55   1 H    0.988 --    25 C    0.971
    56   1 H    0.988 --    25 C    0.971
    57   1 H    0.991 --    25 C    0.976
    58   1 H    0.992 --    28 C    0.976
    59   1 H    0.989 --    28 C    0.971
    60   1 H    0.989 --    28 C    0.971
    61   1 H    0.995 --    29 C    0.960
    62   1 H    0.993 --    30 C    0.967
    63   1 H    0.993 --    30 C    0.976
    64   1 H    0.983 --    30 C    0.937
    65   1 H    0.985 --    31 C    0.956
    66   1 H    0.991 --    32 C    0.978
    67   1 H    0.995 --    32 C    0.978
    68   1 H    0.992 --    32 C    0.979
    69   1 H    0.985 --    33 C    0.963
    70   1 H    0.994 --    33 C    0.980
    71   1 H    0.989 --    33 C    0.975
    72   1 H    0.958 --     1 N    0.933
 ---------------------------------------------------------------------------

molecular dipole:
                 x           y           z       tot (Debye)
 q only:        0.671       0.632      -1.499
   full:        0.894       0.406      -1.547       4.658

           -------------------------------------------------
          | TOTAL ENERGY              -99.316607523590 Eh   |
          | GRADIENT NORM               0.003939863424 Eh/α |
          | HOMO-LUMO GAP               0.319029025946 eV   |
           -------------------------------------------------

 * finished run on 2024/04/06 at 11:15:17.560
