   * xtb version 6.6.1 (8d0f1dd) compiled by 'conda@1efc2f54142f' on 2023-08-01
          program call               : xtb xtbopt.xyz --opt crude --input .xc2 --gfn2

   ID    Z sym.   atoms
    1    6 C      1, 3, 5-7, 10, 11, 14
    2    7 N      2, 4, 9, 13
    3    8 O      8, 12
    4    1 H      15-25

          :  Hamiltonian                  GFN2-xTB          :
 * total energy  :   -42.1411640 Eh     change       -0.6394885E-13 Eh
   *** GEOMETRY OPTIMIZATION CONVERGED AFTER 1 ITERATIONS ***

 final structure:
================
25
 xtb: 6.6.1 (8d0f1dd)
C            3.05767210218094        1.09159941916147       -0.15458262442385
N            2.20125493574374        0.07708440868526       -0.11117373667296
C            2.47489577613427       -1.25015600822434       -0.11241170599857
N            1.31259000296067       -1.96466443082438       -0.07121843681100
C            0.27641107883353       -1.08676443653784       -0.04249006599287
C            0.81368043449176        0.19456635813995       -0.06590695247152
C           -0.01581672540288        1.37021613109657       -0.05506012981066
O            0.37025926956665        2.51891989896865       -0.07389367231501
N           -1.37699242026302        1.03605754751106       -0.01852427392305
C           -2.33083111061140        2.13228438090249       -0.02140611495932
C           -1.93435172927306       -0.22922724978681        0.00228634080023
O           -3.12400282390676       -0.40336094683110        0.02430894541972
N           -1.04907859669435       -1.32494915710360       -0.00127809429788
C           -1.59381699653100       -2.66678649105694        0.01952063597952
H            5.53123507923410        1.76072763099503        1.24342532934741
H            4.11844594961636        0.90393853767349       -0.16876005863897
H            2.66575921262060        2.09398967029120       -0.16069281824201
H            3.45290107074275       -1.68108559910654       -0.15068459031332
H           -1.77182226858522        3.06665233074221       -0.00003597788938
H           -2.95165231597830        2.08601514566691       -0.91712113095309
H           -2.98393504380855        2.06017566626408        0.84946302140235
H           -1.27304115296934       -3.19526146983248        0.91809300937775
H           -1.28686547849336       -3.21935842466105       -0.86929667488796
H           -2.68007012800369       -2.58033809671915        0.02682763981516
H            1.25760339249586       -2.97203627381412       -0.05821624564060

          :  Hamiltonian                  GFN2-xTB          :
         :: total energy             -42.141164029073 Eh    ::
         :: gradient norm              0.002671016206 Eh/a0 ::
         :: HOMO-LUMO gap              0.430501849295 eV    ::
         :: SCC energy               -42.659468948509 Eh    ::
         :: -> dispersion             -0.022738548302 Eh    ::
         :: repulsion energy           0.518220475063 Eh    ::

    * Orbital Energies and Occupations

         #    Occupation            Energy/Eh            Energy/eV
      -------------------------------------------------------------
         1        2.0000           -0.9092714             -24.7425
       ...           ...                  ...                  ...
        25        1.9989           -0.6741313             -18.3440
        26        1.9987           -0.6705730             -18.2472
        27        1.9983           -0.6638712             -18.0649
        28        1.9952           -0.6388413             -17.3838
        29        1.9943           -0.6345879             -17.2680
        30        1.9934           -0.6311256             -17.1738
        31        1.9902           -0.6217029             -16.9174
        32        1.9826           -0.6079483             -16.5431
        33        1.9605           -0.5881663             -16.0048
        34        1.9172           -0.5700234             -15.5111
        35        1.9140           -0.5690942             -15.4858
        36        1.8952           -0.5641568             -15.3515
        37        1.2875           -0.5094603             -13.8631 (HOMO)
        38        0.9628           -0.4936396             -13.4326 (LUMO)
        39        0.0636           -0.4142672             -11.2728
        40        0.0396           -0.4027235             -10.9587
        41        0.0109           -0.3716609             -10.1134
        42        0.0004           -0.2910299              -7.9193
        43        0.0000           -0.2110991              -5.7443
        44        0.0000           -0.1864984              -5.0749
        45        0.0000           -0.1468153              -3.9950
        46        0.0000           -0.1204520              -3.2777
        47                         -0.0829904              -2.2583
        48                         -0.0515976              -1.4040
       ...                                ...                  ...
        67                          0.5387778              14.6609
      -------------------------------------------------------------
                  HL-Gap            0.0158207 Eh            0.4305 eV

     #   Z          covCN         q      C6AA      α(0)
     1   6 C        2.789    -0.072    29.784     8.940
     2   7 N        2.805     0.127    19.071     6.486
     3   6 C        3.035     0.021    27.496     8.601
     4   7 N        2.776    -0.060    22.406     7.030
     5   6 C        3.018     0.115    25.452     8.275
     6   6 C        3.106    -0.032    28.660     8.772
     7   6 C        2.764     0.270    22.448     7.759
     8   8 O        0.858    -0.347    20.642     6.091
     9   7 N        2.745    -0.075    22.704     7.077
    10   6 C        3.709    -0.062    21.831     6.678
    11   6 C        2.727     0.316    21.636     7.615
    12   8 O        0.860    -0.344    20.584     6.083
    13   7 N        2.738    -0.048    22.171     6.993
    14   6 C        3.696    -0.073    22.073     6.720
    15   1 H        0.000     0.011     7.143     4.887
    16   1 H        0.926     0.112     1.682     2.028
    17   1 H        0.926     0.137     1.479     1.902
    18   1 H        0.927     0.120     1.610     1.984
    19   1 H        0.925     0.124     1.584     1.968
    20   1 H        0.924     0.110     1.697     2.037
    21   1 H        0.924     0.111     1.686     2.031
    22   1 H        0.924     0.091     1.872     2.140
    23   1 H        0.924     0.090     1.881     2.145
    24   1 H        0.925     0.131     1.524     1.930
    25   1 H        0.860     0.227     0.980     1.551

Wiberg/Mayer (AO) data.
largest (>0.10) Wiberg bond orders for each atom

     #   Z sym  total        # sym  WBO       # sym  WBO       # sym  WBO
 ---------------------------------------------------------------------------
     1   6 C    3.379 --     2 N    1.325    17 H    0.953    16 H    0.950
     2   7 N    3.742 --     1 C    1.325     3 C    1.236     6 C    1.087
     3   6 C    3.607 --     2 N    1.236     4 N    1.223    18 H    0.955
     4   7 N    3.513 --     3 C    1.223     5 C    1.200    25 H    0.920
     5   6 C    3.894 --     6 C    1.323    13 N    1.202     4 N    1.200
     6   6 C    3.804 --     5 C    1.323     7 C    1.099     2 N    1.087
     7   6 C    3.923 --     8 O    1.658     6 C    1.099     9 N    1.077
     8   8 O    1.957 --     7 C    1.658     9 N    0.123
     9   7 N    3.490 --    11 C    1.124     7 C    1.077    10 C    0.977
                            12 O    0.124     8 O    0.123
    10   6 C    3.871 --     9 N    0.977    19 H    0.955    21 H    0.949
                            20 H    0.947
    11   6 C    3.939 --    12 O    1.682     9 N    1.124    13 N    1.045
    12   8 O    1.998 --    11 C    1.682     9 N    0.124    13 N    0.112
    13   7 N    3.501 --     5 C    1.202    11 C    1.045    14 C    0.977
                            12 O    0.112
    14   6 C    3.907 --    13 N    0.977    23 H    0.964    22 H    0.963
                            24 H    0.959
    15   1 H    0.024
    16   1 H    0.984 --     1 C    0.950
    17   1 H    0.977 --     1 C    0.953
    18   1 H    0.984 --     3 C    0.955
    19   1 H    0.974 --    10 C    0.955
    20   1 H    0.965 --    10 C    0.947
    21   1 H    0.966 --    10 C    0.949
    22   1 H    0.980 --    14 C    0.963
    23   1 H    0.981 --    14 C    0.964
    24   1 H    0.978 --    14 C    0.959
    25   1 H    0.948 --     4 N    0.920
 ---------------------------------------------------------------------------

molecular dipole:
                 x           y           z       tot (Debye)
 q only:        1.728      -1.974      -0.104
   full:        1.986      -2.419      -0.103       7.959

           -------------------------------------------------
          | TOTAL ENERGY              -42.141164029073 Eh   |
          | GRADIENT NORM               0.002671016206 Eh/α |
          | HOMO-LUMO GAP               0.430501849295 eV   |
           -------------------------------------------------

 * finished run on 2024/06/05 at 19:58:48.590
