   * xtb version 6.6.1 (8d0f1dd) compiled by 'conda@1efc2f54142f' on 2023-08-01
          program call               : xtb xtbopt.xyz --opt crude --input .xc2 --gfn2

   ID    Z sym.   atoms
    1    7 N      1, 17
    2    6 C      2-6, 8, 9, 11-16, 18-23, 25, 26, 28-33
    3    8 O      7, 10, 24, 27
    4    1 H      34-72

          :  Hamiltonian                  GFN2-xTB          :
 * total energy  :   -99.2751968 Eh     change       -0.1392664E-10 Eh
   *** GEOMETRY OPTIMIZATION CONVERGED AFTER 1 ITERATIONS ***

 final structure:
================
72
 xtb: 6.6.1 (8d0f1dd)
N           -1.60146803654480        2.60542324669674        2.08517994585048
C           -1.68580506802381        2.07080464183936        0.97126507271947
C           -2.92201547009057        1.88180131300274        0.14885534978062
C           -3.43245423872186        0.45396552080613        0.29747649208823
C           -4.44661362939235       -0.00313546267617       -0.54576882707187
C           -4.93519662292826       -1.29644441735996       -0.45325526972600
O           -5.90496588414764       -1.82138878927651       -1.22560992472618
C           -6.52610457880794       -1.01922694156585       -2.20279958724744
C           -4.39457987487189       -2.18101549499378        0.52189125223664
O           -4.92873195391670       -3.41582674108730        0.53906063687065
C           -4.50272850212537       -4.33865705042099        1.51455115352213
C           -3.38769681089059       -1.71771298809056        1.35526653371204
C           -2.91269694752961       -0.41827813083826        1.24219640113389
C           -2.45719643854676        2.09304165459090       -1.30991456945674
C           -1.51817073679165        0.97844907117296       -1.77069354460170
C           -0.27732806721889        0.94055904606805       -0.96557300487290
N            0.38756207528809       -0.14695404272831       -0.72770277560978
C            1.72249955447353       -0.04704250129168       -0.16007257260164
C            2.77825191003471       -0.32663022878496       -1.24428298631073
C            4.17676629015788       -0.09857449459583       -0.74593811671157
C            4.79289195298630        1.13367408489820       -0.91327352284215
C            6.10131594773085        1.33605383013694       -0.50625828884160
C            6.82374227671891        0.30832386043479        0.08632154949461
O            8.10258891764075        0.37873008124415        0.49050223921722
C            8.83969485793237        1.55601781967672        0.25131882120035
C            6.19016974461908       -0.95124112818873        0.29157039889224
O            6.95849042572588       -1.88528663092049        0.88059439328730
C            6.43917582701985       -3.17542994335391        1.10049141475379
C            4.88014367573360       -1.12961737568263       -0.12873970026657
C           -0.03311574462475       -1.49310259135252       -1.09741825740733
C           -4.06528392357071        2.86877358709552        0.53417255692971
C           -4.64649432922219        2.53604654646150        1.90554436577650
C           -3.63140863129144        4.33023463915561        0.50211841828008
H           -4.86754566596029        0.66513278766561       -1.27845303069788
H           -7.02612583119094       -0.15549874550435       -1.75465262404351
H           -7.26852373298479       -1.65906824061241       -2.67572437362059
H           -5.81013433842244       -0.67897802560517       -2.95771856151919
H           -4.68795024348597       -3.96576911960600        2.52612201199998
H           -5.09560280219681       -5.23550446123292        1.34581465957255
H           -3.44107430481898       -4.58020225189367        1.40233534743695
H           -2.96673131483354       -2.36258491495086        2.10941537445356
H           -2.13941982577476       -0.08951296793064        1.91858805160304
H           -3.30856713710492        2.17804741332792       -1.98275087689916
H           -1.88000983037075        3.05622110240548       -1.36764768401861
H           -2.06016034608876        0.02364265024675       -1.79270355337794
H           -1.19764486044191        1.19580019594430       -2.79532721696174
H           -0.77614760466499        1.68608349022000        0.35635517415459
H           -0.88086265637895        4.21447442558600       -1.38113144481962
H            1.82806208332056       -0.75789613707576        0.66341182904168
H            1.85903655985684        0.96490887708999        0.22397239648049
H            2.58137931345623        0.33969168051417       -2.08610255693477
H            2.67980206284772       -1.35735711198321       -1.58830685036936
H            4.25599077324837        1.94282275832092       -1.38392143481130
H            6.55752112502367        2.29933433933410       -0.66473623210013
H            8.42381080285469        2.40791730692913        0.79714705352972
H            8.88053007256749        1.79045061434944       -0.81640816269914
H            9.84434885941740        1.35002486328545        0.61518298078900
H            7.24711714223070       -3.74042515313408        1.56107634021177
H            5.58149715585948       -3.15138976506152        1.77990541941950
H            6.15061934101183       -3.65727414381095        0.16135569816348
H            4.40055918473273       -2.08706362828271        0.00273811655129
H            0.10244734343148       -1.66526570788354       -2.16476756117738
H           -1.08432207908763       -1.63189164763767       -0.84919455895546
H            0.55482603902089       -2.21981675657706       -0.54236785046626
H           -4.85296268508445        2.73114879208780       -0.21505052830089
H           -3.87912458342730        2.63074456169899        2.66806352095938
H           -5.04642741646896        1.52536260811430        1.93282222366206
H           -5.45052562058407        3.22917523003106        2.13815869710154
H           -2.88771546032465        4.52279479718984        1.26997845456836
H           -3.22052062271318        4.61345332305964       -0.46239330997518
H           -4.49270091357438        4.96324997238599        0.69944835152582
H           -0.70347035271171        2.72282252138009        2.53765550565047

          :  Hamiltonian                  GFN2-xTB          :
         :: total energy             -99.275196817687 Eh    ::
         :: gradient norm              0.002041441705 Eh/a0 ::
         :: HOMO-LUMO gap              0.347797832901 eV    ::
         :: SCC energy              -100.639400155018 Eh    ::
         :: -> dispersion             -0.076251316319 Eh    ::
         :: repulsion energy           1.362867626073 Eh    ::

    * Orbital Energies and Occupations

         #    Occupation            Energy/Eh            Energy/eV
      -------------------------------------------------------------
         1        2.0000           -0.8168841             -22.2285
       ...           ...                  ...                  ...
        78        1.9973           -0.5341538             -14.5351
        79        1.9970           -0.5319854             -14.4761
        80        1.9961           -0.5280384             -14.3687
        81        1.9950           -0.5240670             -14.2606
        82        1.9937           -0.5204147             -14.1612
        83        1.9925           -0.5175646             -14.0836
        84        1.9903           -0.5135088             -13.9733
        85        1.9741           -0.4978797             -13.5480
        86        1.9692           -0.4951345             -13.4733
        87        1.9664           -0.4937251             -13.4349
        88        1.8221           -0.4661181             -12.6837
        89        1.7672           -0.4613732             -12.5546
        90        1.4459           -0.4444659             -12.0945 (HOMO)
        91        1.0758           -0.4316846             -11.7467 (LUMO)
        92        0.0151           -0.3520466              -9.5797
        93        0.0118           -0.3481315              -9.4731
        94        0.0024           -0.3230363              -8.7903
        95        0.0020           -0.3199419              -8.7061
        96        0.0017           -0.3175579              -8.6412
        97        0.0015           -0.3153028              -8.5798
        98        0.0000           -0.1973747              -5.3708
        99        0.0000           -0.1931406              -5.2556
       100                         -0.1228732              -3.3435
       101                         -0.0709914              -1.9318
       ...                                ...                  ...
       171                          0.5690942              15.4858
      -------------------------------------------------------------
                  HL-Gap            0.0127813 Eh            0.3478 eV

     #   Z          covCN         q      C6AA      α(0)
     1   7 N        1.773    -0.232    26.903     7.681
     2   6 C        2.817     0.098    25.807     8.324
     3   6 C        3.909     0.013    20.304     6.405
     4   6 C        2.975     0.009    27.802     8.649
     5   6 C        2.920    -0.076    29.910     8.968
     6   6 C        2.862     0.132    25.108     8.213
     7   8 O        1.706    -0.223    17.699     5.680
     8   6 C        3.644     0.026    20.479     6.505
     9   6 C        2.864     0.131    25.128     8.217
    10   8 O        1.706    -0.222    17.678     5.677
    11   6 C        3.645     0.025    20.484     6.505
    12   6 C        2.913    -0.071    29.775     8.948
    13   6 C        2.921    -0.049    29.221     8.865
    14   6 C        3.816    -0.069    21.799     6.645
    15   6 C        3.805    -0.055    21.550     6.609
    16   6 C        2.020    -0.073    33.005     9.278
    17   7 N        2.730     0.015    21.000     6.806
    18   6 C        3.763    -0.014    20.863     6.511
    19   6 C        3.809    -0.071    21.851     6.654
    20   6 C        2.967     0.007    27.871     8.660
    21   6 C        2.922    -0.044    29.098     8.846
    22   6 C        2.913    -0.065    29.611     8.923
    23   6 C        2.864     0.136    25.025     8.200
    24   8 O        1.706    -0.214    17.550     5.656
    25   6 C        3.645     0.023    20.529     6.512
    26   6 C        2.862     0.136    25.035     8.201
    27   8 O        1.706    -0.217    17.607     5.665
    28   6 C        3.644     0.025    20.490     6.506
    29   6 C        2.919    -0.077    29.920     8.970
    30   6 C        3.697    -0.065    21.931     6.699
    31   6 C        3.852    -0.006    20.650     6.463
    32   6 C        3.756    -0.119    22.830     6.813
    33   6 C        3.755    -0.118    22.824     6.812
    34   1 H        0.926     0.056     2.240     2.341
    35   1 H        0.924     0.057     2.237     2.339
    36   1 H        0.925     0.084     1.938     2.177
    37   1 H        0.924     0.051     2.302     2.373
    38   1 H        0.924     0.058     2.225     2.333
    39   1 H        0.925     0.084     1.938     2.177
    40   1 H        0.924     0.051     2.305     2.374
    41   1 H        0.926     0.055     2.254     2.348
    42   1 H        0.926     0.041     2.436     2.441
    43   1 H        0.925     0.056     2.245     2.343
    44   1 H        0.919     0.099     1.791     2.093
    45   1 H        0.923     0.046     2.367     2.406
    46   1 H        0.924     0.080     1.975     2.198
    47   1 H        1.002     0.078     1.992     2.205
    48   1 H        0.000    -0.146    18.608     7.888
    49   1 H        0.924     0.056     2.241     2.341
    50   1 H        0.924     0.073     2.055     2.242
    51   1 H        0.924     0.060     2.195     2.317
    52   1 H        0.924     0.056     2.248     2.345
    53   1 H        0.926     0.056     2.248     2.345
    54   1 H        0.926     0.063     2.162     2.299
    55   1 H        0.924     0.059     2.208     2.324
    56   1 H        0.924     0.059     2.205     2.322
    57   1 H        0.925     0.085     1.923     2.169
    58   1 H        0.925     0.085     1.931     2.173
    59   1 H        0.924     0.053     2.283     2.363
    60   1 H        0.924     0.056     2.251     2.346
    61   1 H        0.926     0.051     2.307     2.375
    62   1 H        0.925     0.068     2.105     2.269
    63   1 H        0.925     0.063     2.163     2.300
    64   1 H        0.925     0.068     2.112     2.273
    65   1 H        0.924     0.044     2.398     2.422
    66   1 H        0.925     0.067     2.116     2.275
    67   1 H        0.925     0.037     2.485     2.465
    68   1 H        0.925     0.056     2.250     2.346
    69   1 H        0.925     0.058     2.227     2.334
    70   1 H        0.925     0.047     2.356     2.400
    71   1 H        0.925     0.056     2.241     2.341
    72   1 H        0.860     0.175     1.243     1.747

Wiberg/Mayer (AO) data.
largest (>0.10) Wiberg bond orders for each atom

     #   Z sym  total        # sym  WBO       # sym  WBO       # sym  WBO
 ---------------------------------------------------------------------------
     1   7 N    3.090 --     2 C    1.987    72 H    0.930
     2   6 C    3.854 --     1 N    1.987     3 C    0.994    47 H    0.721
     3   6 C    3.959 --     2 C    0.994     4 C    0.959    14 C    0.958
                            31 C    0.930
     4   6 C    3.931 --    13 C    1.406     5 C    1.370     3 C    0.959
     5   6 C    3.954 --     6 C    1.396     4 C    1.370    34 H    0.957
     6   6 C    3.895 --     5 C    1.396     9 C    1.213     7 O    1.108
     7   8 O    2.254 --     6 C    1.108     8 C    0.976
     8   6 C    3.928 --    36 H    0.976     7 O    0.976    37 H    0.972
                            35 H    0.972
     9   6 C    3.888 --    12 C    1.385     6 C    1.213    10 O    1.110
    10   8 O    2.252 --     9 C    1.110    11 C    0.976
    11   6 C    3.928 --    39 H    0.976    10 O    0.976    40 H    0.972
                            38 H    0.972
    12   6 C    3.955 --    13 C    1.410     9 C    1.385    41 H    0.963
    13   6 C    3.941 --    12 C    1.410     4 C    1.406    42 H    0.963
    14   6 C    3.853 --    15 C    0.997    43 H    0.966     3 C    0.958
                            44 H    0.838
    15   6 C    3.970 --    16 C    1.052    14 C    0.997    45 H    0.930
                            46 H    0.927
    16   6 C    3.060 --    17 N    1.541    15 C    1.052    47 H    0.211
    17   7 N    3.605 --    16 C    1.541    18 C    0.978    30 C    0.970
    18   6 C    3.952 --    17 N    0.978    19 C    0.973    50 H    0.970
                            49 H    0.967
    19   6 C    3.984 --    20 C    1.010    18 C    0.973    51 H    0.971
                            52 H    0.969
    20   6 C    3.927 --    21 C    1.394    29 C    1.385    19 C    1.010
    21   6 C    3.932 --    22 C    1.425    20 C    1.394    53 H    0.967
    22   6 C    3.949 --    21 C    1.425    23 C    1.373    54 H    0.962
    23   6 C    3.876 --    22 C    1.373    26 C    1.209    24 O    1.120
    24   8 O    2.251 --    23 C    1.120    25 C    0.974
    25   6 C    3.923 --    57 H    0.976    24 O    0.974    56 H    0.971
                            55 H    0.970
    26   6 C    3.881 --    29 C    1.387    23 C    1.209    27 O    1.113
    27   8 O    2.251 --    26 C    1.113    28 C    0.977
    28   6 C    3.928 --    27 O    0.977    58 H    0.976    59 H    0.972
                            60 H    0.972
    29   6 C    3.951 --    26 C    1.387    20 C    1.385    61 H    0.962
    30   6 C    3.941 --    64 H    0.978    62 H    0.971    63 H    0.970
                            17 N    0.970
    31   6 C    3.959 --    33 C    1.010    32 C    1.009    65 H    0.955
                             3 C    0.930
    32   6 C    3.974 --    31 C    1.009    67 H    0.981    68 H    0.979
                            66 H    0.973
    33   6 C    3.976 --    31 C    1.010    71 H    0.978    70 H    0.978
                            69 H    0.977
    34   1 H    0.995 --     5 C    0.957
    35   1 H    0.991 --     8 C    0.972
    36   1 H    0.992 --     8 C    0.976
    37   1 H    0.992 --     8 C    0.972
    38   1 H    0.991 --    11 C    0.972
    39   1 H    0.992 --    11 C    0.976
    40   1 H    0.991 --    11 C    0.972
    41   1 H    0.995 --    12 C    0.963
    42   1 H    0.997 --    13 C    0.963
    43   1 H    0.993 --    14 C    0.966
    44   1 H    0.987 --    14 C    0.838    48 H    0.129
    45   1 H    0.964 --    15 C    0.930
    46   1 H    0.990 --    15 C    0.927
    47   1 H    0.967 --     2 C    0.721    16 C    0.211
    48   1 H    0.155 --    44 H    0.129
    49   1 H    0.995 --    18 C    0.967
    50   1 H    0.994 --    18 C    0.970
    51   1 H    0.994 --    19 C    0.971
    52   1 H    0.995 --    19 C    0.969
    53   1 H    0.996 --    21 C    0.967
    54   1 H    0.994 --    22 C    0.962
    55   1 H    0.989 --    25 C    0.970
    56   1 H    0.989 --    25 C    0.971
    57   1 H    0.992 --    25 C    0.976
    58   1 H    0.992 --    28 C    0.976
    59   1 H    0.991 --    28 C    0.972
    60   1 H    0.991 --    28 C    0.972
    61   1 H    0.996 --    29 C    0.962
    62   1 H    0.993 --    30 C    0.971
    63   1 H    0.995 --    30 C    0.970
    64   1 H    0.993 --    30 C    0.978
    65   1 H    0.988 --    31 C    0.955
    66   1 H    0.990 --    32 C    0.973
    67   1 H    0.996 --    32 C    0.981
    68   1 H    0.992 --    32 C    0.979
    69   1 H    0.992 --    33 C    0.977
    70   1 H    0.995 --    33 C    0.978
    71   1 H    0.992 --    33 C    0.978
    72   1 H    0.959 --     1 N    0.930
 ---------------------------------------------------------------------------

molecular dipole:
                 x           y           z       tot (Debye)
 q only:        0.768      -0.824      -0.103
   full:        0.841      -1.141      -0.356       3.715

           -------------------------------------------------
          | TOTAL ENERGY              -99.275196817687 Eh   |
          | GRADIENT NORM               0.002041441705 Eh/α |
          | HOMO-LUMO GAP               0.347797832901 eV   |
           -------------------------------------------------

 * finished run on 2024/04/06 at 11:13:43.756
