   * xtb version 6.6.1 (8d0f1dd) compiled by 'conda@1efc2f54142f' on 2023-08-01
          program call               : xtb xtbopt.xyz --opt crude --input .xc2 --gfn2

   ID    Z sym.   atoms
    1    6 C      1, 3, 5-7, 10, 11, 14
    2    7 N      2, 4, 9, 13
    3    8 O      8, 12
    4    1 H      15-25
########################################################################
[WARNING] Please study the warnings concerning your input carefully
-1- readin_getIntValue: could not parse ''
########################################################################

          :  Hamiltonian                  GFN2-xTB          :
 * total energy  :   -42.1498507 Eh     change       -0.1278977E-12 Eh
   *** GEOMETRY OPTIMIZATION CONVERGED AFTER 1 ITERATIONS ***

 final structure:
================
25
 xtb: 6.6.1 (8d0f1dd)
C            3.09766091818492        1.15007111731268        0.19476332120833
N            2.14796556652693        0.08319462868980        0.04230483147514
C            2.41820138475771       -1.16595827128032       -0.23951194696629
N            1.30334077417112       -1.89210929451836       -0.33460582156432
C            0.17045589629891       -1.06667433229425       -0.10296567367788
C            0.75597470814886        0.22976837228856        0.16691240497520
C            0.18247129968755        1.44338355761825        0.46823150305838
O            0.56325645652413        2.55865491962447        0.64618740501258
N           -1.43357433913587        1.27571048556435        0.58089076528325
C           -2.14987976559045        1.65656962023591       -0.61851840052480
C           -1.85859391771945        0.93680887798856        1.68287926530981
O           -2.12624726975724        0.60257215304156        2.73834277937015
N           -1.05556943434845       -1.36041804057611       -0.15339837274946
C           -1.53429943939657       -2.67757811594324       -0.46770290542019
H            2.89653920932791        1.70155842676232        1.11258135960378
H            4.10555642471274        0.74244304411735        0.22517391281867
H            3.01367568400856        1.84891645352992       -0.63970263791989
H            3.41127272663527       -1.55687858763146       -0.37279384590794
H           -1.80026827534742        2.63960371344209       -0.93241017375507
H           -1.93835321642074        0.91959702647992       -1.39309948943929
H           -3.22021919155196        1.68991888337129       -0.42933789224101
H           -1.53675465454822       -3.29779888305940        0.43186057194433
H           -0.95494124603987       -3.18988814735935       -1.24393003114645
H           -2.56329140715945       -2.57225811436846       -0.80665317250836
H            1.26605262213780       -2.88097095143974       -0.52432613833693

          :  Hamiltonian                  GFN2-xTB          :
         :: total energy             -42.149850736515 Eh    ::
         :: gradient norm              0.003245703700 Eh/a0 ::
         :: HOMO-LUMO gap              1.901896680643 eV    ::
         :: SCC energy               -42.734908554619 Eh    ::
         :: -> dispersion             -0.022263509563 Eh    ::
         :: repulsion energy           0.584809676353 Eh    ::

    * Orbital Energies and Occupations

         #    Occupation            Energy/Eh            Energy/eV
      -------------------------------------------------------------
         1        2.0000           -0.9418540             -25.6292
       ...           ...                  ...                  ...
        25        2.0000           -0.6695232             -18.2187
        26        2.0000           -0.6684708             -18.1900
        27        2.0000           -0.6456875             -17.5701
        28        2.0000           -0.6372334             -17.3400
        29        2.0000           -0.6340436             -17.2532
        30        2.0000           -0.6305601             -17.1584
        31        2.0000           -0.6014805             -16.3671
        32        2.0000           -0.6007310             -16.3467
        33        2.0000           -0.5974967             -16.2587
        34        2.0000           -0.5870537             -15.9745
        35        2.0000           -0.5865783             -15.9616
        36        1.9909           -0.5172856             -14.0761
        37        1.9792           -0.5107189             -13.8974 (HOMO)
        38        0.0275           -0.4408255             -11.9955 (LUMO)
        39        0.0024           -0.4213971             -11.4668
        40        0.0000           -0.3708484             -10.0913
        41        0.0000           -0.3668743              -9.9832
        42                         -0.2890090              -7.8643
        43                         -0.2694208              -7.3313
        44                         -0.1732185              -4.7135
        45                         -0.1278588              -3.4792
        46                         -0.0983060              -2.6750
        47                         -0.0798451              -2.1727
        48                         -0.0351715              -0.9571
       ...                                ...                  ...
        67                          1.0743879              29.2356
      -------------------------------------------------------------
                  HL-Gap            0.0698934 Eh            1.9019 eV

     #   Z          covCN         q      C6AA      α(0)
     1   6 C        3.693    -0.085    22.307     6.758
     2   7 N        2.811     0.065    20.112     6.661
     3   6 C        2.974     0.085    26.108     8.381
     4   7 N        2.779    -0.102    23.243     7.160
     5   6 C        2.937     0.143    24.885     8.181
     6   6 C        3.056    -0.051    29.208     8.863
     7   6 C        2.726     0.258    22.654     7.792
     8   8 O        0.856    -0.309    19.941     5.987
     9   7 N        2.693    -0.024    21.714     6.921
    10   6 C        3.694    -0.065    21.932     6.700
    11   6 C        1.789     0.348    23.523     7.839
    12   8 O        0.856    -0.093    16.419     5.433
    13   7 N        1.824    -0.283    28.189     7.867
    14   6 C        3.704    -0.030    21.258     6.592
    15   1 H        0.925     0.112     1.676     2.024
    16   1 H        0.925     0.097     1.816     2.107
    17   1 H        0.924     0.109     1.706     2.043
    18   1 H        0.926     0.109     1.702     2.040
    19   1 H        0.925     0.118     1.628     1.996
    20   1 H        0.925     0.114     1.661     2.015
    21   1 H        0.925     0.105     1.738     2.062
    22   1 H        0.924     0.061     2.192     2.315
    23   1 H        0.924     0.034     2.536     2.491
    24   1 H        0.925     0.071     2.078     2.254
    25   1 H        0.860     0.214     1.036     1.595

Wiberg/Mayer (AO) data.
largest (>0.10) Wiberg bond orders for each atom

     #   Z sym  total        # sym  WBO       # sym  WBO       # sym  WBO
 ---------------------------------------------------------------------------
     1   6 C    3.932 --     2 N    0.992    16 H    0.974    15 H    0.962
                            17 H    0.958
     2   7 N    3.701 --     3 C    1.451     6 C    1.063     1 C    0.992
                             4 N    0.126
     3   6 C    3.951 --     2 N    1.451     4 N    1.330    18 H    0.950
     4   7 N    3.567 --     3 C    1.330     5 C    1.019    25 H    0.926
                             2 N    0.126    13 N    0.107
     5   6 C    3.956 --    13 N    1.695     6 C    1.116     4 N    1.019
     6   6 C    3.886 --     7 C    1.341     5 C    1.116     2 N    1.063
                             8 O    0.143
     7   6 C    3.922 --     8 O    1.773     6 C    1.341     9 N    0.613
     8   8 O    2.228 --     7 C    1.773     6 C    0.143
     9   7 N    3.586 --    11 C    1.665    10 C    0.938     7 C    0.613
                            12 O    0.267
    10   6 C    3.902 --    21 H    0.973    19 H    0.964    20 H    0.962
                             9 N    0.938
    11   6 C    3.916 --    12 O    2.116     9 N    1.665
    12   8 O    2.504 --    11 C    2.116     9 N    0.267
    13   7 N    3.058 --     5 C    1.695    14 C    1.026     4 N    0.107
    14   6 C    3.973 --    13 N    1.026    24 H    0.976    23 H    0.971
                            22 H    0.958
    15   1 H    0.987 --     1 C    0.962
    16   1 H    0.990 --     1 C    0.974
    17   1 H    0.988 --     1 C    0.958
    18   1 H    0.987 --     3 C    0.950
    19   1 H    0.986 --    10 C    0.964
    20   1 H    0.987 --    10 C    0.962
    21   1 H    0.988 --    10 C    0.973
    22   1 H    0.990 --    14 C    0.958
    23   1 H    0.996 --    14 C    0.971
    24   1 H    0.993 --    14 C    0.976
    25   1 H    0.954 --     4 N    0.926
 ---------------------------------------------------------------------------

molecular dipole:
                 x           y           z       tot (Debye)
 q only:        0.933      -0.379      -0.287
   full:        1.241      -0.968      -0.381       4.116

           -------------------------------------------------
          | TOTAL ENERGY              -42.149850736515 Eh   |
          | GRADIENT NORM               0.003245703700 Eh/α |
          | HOMO-LUMO GAP               1.901896680643 eV   |
           -------------------------------------------------

 * finished run on 2024/06/05 at 19:58:06.952
