   * xtb version 6.6.1 (8d0f1dd) compiled by 'conda@1efc2f54142f' on 2023-08-01
          program call               : xtb struc.xyz --opt loose --input .xc1 --gfn2

   ID    Z sym.   atoms
    1    6 C      1, 3, 5-7, 10, 11, 14
    2    7 N      2, 4, 9, 13
    3    8 O      8, 12
    4    1 H      15-25
constraining bond 8 15 to    5.6333300 Å, actual value:    3.6386098 Å

          :  Hamiltonian                  GFN2-xTB          :
 * total energy  :   -49.3645197 Eh     change       -0.2401990E-09 Eh
 * total energy  :   -55.6189684 Eh     change       -0.6254449E+01 Eh
 * total energy  :   -63.8012268 Eh     change       -0.8182258E+01 Eh
 * total energy  :   -73.9529499 Eh     change       -0.1015172E+02 Eh
 * total energy  :   -85.9141956 Eh     change       -0.1196125E+02 Eh
 * total energy  :   -66.5793053 Eh     change        0.1933489E+02 Eh
 * total energy  :   -82.7170635 Eh     change       -0.1613776E+02 Eh
 * total energy  :   -83.2832873 Eh     change       -0.5662238E+00 Eh
 * total energy  :   -86.1682868 Eh     change       -0.2885000E+01 Eh
 * total energy  :   -72.7324948 Eh     change        0.1343579E+02 Eh
 * total energy  :   -89.1953753 Eh     change       -0.5261766E-04 Eh
 * total energy  :   -89.1954160 Eh     change       -0.4067625E-04 Eh
 * total energy  :   -89.1954678 Eh     change       -0.5186350E-04 Eh
 * total energy  :   -89.1955182 Eh     change       -0.5041476E-04 Eh
 * total energy  :   -89.1955649 Eh     change       -0.4667630E-04 Eh
 * total energy  :   -89.1955527 Eh     change        0.1220848E-04 Eh
 * total energy  :   -89.1955848 Eh     change       -0.3213246E-04 Eh
 * total energy  :   -89.1956144 Eh     change       -0.2957033E-04 Eh
 * total energy  :   -89.1956247 Eh     change       -0.1032635E-04 Eh
   *** GEOMETRY OPTIMIZATION CONVERGED AFTER 146 ITERATIONS ***

 final structure:
================
25
 xtb: 6.6.1 (8d0f1dd)
C            3.23442130524928        0.96547785096266        0.13164079565593
N            2.30506350393133       -0.00437058882916        0.06762439685610
C            2.55154791562022       -1.34759054605243        0.01829310584834
N            1.36571336537779       -2.02943130749324       -0.04943809548169
C            0.35655754085660       -1.13035293435646       -0.04000999660957
C            0.91808227950547        0.15903333300024        0.03268780956674
C            0.08289097524765        1.26033992478934        0.05462278421127
O            2.87479998936528        2.26550744485616        0.19950617465712
N           -1.26740962669964        1.02848299213358        0.00139963838973
C           -2.15739580625004        2.17240014496203        0.02678728653457
C           -1.85567595475225       -0.22764862957542       -0.05981550020693
O           -3.05018528577718       -0.38524986728893       -0.09174912349541
N           -0.98408607157110       -1.33128610389596       -0.08827882044961
C           -1.54314657300006       -2.66381817555563       -0.15937863521171
H            3.09371492456304        2.57230547716137        0.23599753204481
H            4.27304965752278        0.67322408802531        0.14737494949593
H            0.41204451298998        2.28050800687753        0.10802058540669
H            3.51875512734249       -1.79713007401932        0.01987727121035
H           -1.89712026138629        2.86624565773632       -0.77216828994670
H           -3.17791894509730        1.82069213509100       -0.11570337104198
H           -2.08797541042489        2.68511268836123        0.98746656815400
H           -1.26315406524804       -3.24360345966165        0.72136551926164
H           -1.20358494413567       -3.17186456486050       -1.06301662784028
H           -2.62748749037152       -2.56566177706838       -0.19105473618235
H            1.28893085124189       -3.03308317369764       -0.09087960292665

          :  Hamiltonian                  GFN2-xTB          :
         :: total energy             -89.195624738732 Eh    ::
         :: gradient norm              0.001681073422 Eh/a0 ::
         :: HOMO-LUMO gap              1.187314378142 eV    ::
         :: SCC energy               -42.767615575491 Eh    ::
         :: -> dispersion             -0.022565539833 Eh    ::
         :: repulsion energy           2.873284577554 Eh    ::

    * Orbital Energies and Occupations

         #    Occupation            Energy/Eh            Energy/eV
      -------------------------------------------------------------
         1        2.0000           -0.9039805             -24.5986
       ...           ...                  ...                  ...
        25        1.9997           -0.6644575             -18.0808
        26        1.9996           -0.6564563             -17.8631
        27        1.9992           -0.6407258             -17.4350
        28        1.9992           -0.6383777             -17.3711
        29        1.9990           -0.6348209             -17.2744
        30        1.9980           -0.6178744             -16.8132
        31        1.9975           -0.6122634             -16.6605
        32        1.9973           -0.6109599             -16.6251
        33        1.9961           -0.6021325             -16.3849
        34        1.9916           -0.5835465             -15.8791
        35        1.9788           -0.5615252             -15.2799
        36        1.9586           -0.5454036             -14.8412
        37        1.4169           -0.4748689             -12.9218 (HOMO)
        38        0.5581           -0.4312359             -11.7345 (LUMO)
        39        0.0827           -0.3791195             -10.3164
        40        0.0270           -0.3518306              -9.5738
        41        0.0015           -0.2825065              -7.6874
        42        0.0000           -0.1932270              -5.2580
        43        0.0000           -0.1718948              -4.6775
        44        0.0000           -0.1251008              -3.4042
        45        0.0000           -0.1128552              -3.0709
        46        0.0000           -0.0771729              -2.1000
        47                         -0.0544260              -1.4810
        48                         -0.0249590              -0.6792
       ...                                ...                  ...
        67                          6.1042021             166.1038
      -------------------------------------------------------------
                  HL-Gap            0.0436330 Eh            1.1873 eV

     #   Z          covCN         q      C6AA      α(0)
     1   6 C        2.785     0.091    25.967     8.347
     2   7 N        2.800     0.064    20.132     6.664
     3   6 C        3.011    -0.003    28.091     8.694
     4   7 N        2.761    -0.063    22.450     7.037
     5   6 C        3.020     0.097    25.825     8.336
     6   6 C        3.064     0.016    27.602     8.615
     7   6 C        2.853    -0.014    28.357     8.728
     8   8 O        1.664    -0.361    20.114     6.054
     9   7 N        2.744    -0.022    21.683     6.916
    10   6 C        3.707    -0.075    22.077     6.716
    11   6 C        2.722     0.308    21.775     7.639
    12   8 O        0.859    -0.377    21.229     6.177
    13   7 N        2.737    -0.053    22.262     7.008
    14   6 C        3.697    -0.070    22.018     6.712
    15   1 H        0.883     0.368     0.540     1.150
    16   1 H        0.926     0.083     1.944     2.181
    17   1 H        0.926     0.105     1.741     2.064
    18   1 H        0.927     0.102     1.763     2.076
    19   1 H        0.925     0.090     1.875     2.141
    20   1 H        0.925     0.119     1.621     1.991
    21   1 H        0.924     0.091     1.866     2.136
    22   1 H        0.924     0.081     1.969     2.194
    23   1 H        0.924     0.081     1.969     2.194
    24   1 H        0.925     0.124     1.580     1.966
    25   1 H        0.860     0.218     1.017     1.580

Wiberg/Mayer (AO) data.
largest (>0.10) Wiberg bond orders for each atom

     #   Z sym  total        # sym  WBO       # sym  WBO       # sym  WBO
 ---------------------------------------------------------------------------
     1   6 C    3.466 --     2 N    1.241     8 O    1.127    16 H    0.949
     2   7 N    3.665 --     1 C    1.241     3 C    1.192     6 C    1.068
     3   6 C    3.564 --     4 N    1.195     2 N    1.192    18 H    0.961
     4   7 N    3.503 --     5 C    1.217     3 C    1.195    25 H    0.924
     5   6 C    3.789 --     6 C    1.232     4 N    1.217    13 N    1.175
     6   6 C    3.878 --     7 C    1.363     5 C    1.232     2 N    1.068
     7   6 C    3.619 --     6 C    1.363     9 N    1.189    17 H    0.954
     8   8 O    2.096 --     1 C    1.127    15 H    0.858
     9   7 N    3.488 --     7 C    1.189    11 C    1.107    10 C    0.983
                            12 O    0.122
    10   6 C    3.919 --     9 N    0.983    19 H    0.966    20 H    0.964
                            21 H    0.963
    11   6 C    3.914 --    12 O    1.666     9 N    1.107    13 N    1.052
    12   8 O    1.996 --    11 C    1.666     9 N    0.122    13 N    0.119
    13   7 N    3.455 --     5 C    1.175    11 C    1.052    14 C    0.982
                            12 O    0.119
    14   6 C    3.925 --    13 N    0.982    23 H    0.968    22 H    0.968
                            24 H    0.963
    15   1 H    0.864 --     8 O    0.858
    16   1 H    0.991 --     1 C    0.949
    17   1 H    0.987 --     7 C    0.954
    18   1 H    0.988 --     3 C    0.961
    19   1 H    0.982 --    10 C    0.966
    20   1 H    0.983 --    10 C    0.964
    21   1 H    0.979 --    10 C    0.963
    22   1 H    0.985 --    14 C    0.968
    23   1 H    0.985 --    14 C    0.968
    24   1 H    0.983 --    14 C    0.963
    25   1 H    0.951 --     4 N    0.924
 ---------------------------------------------------------------------------

molecular dipole:
                 x           y           z       tot (Debye)
 q only:        2.264      -0.564       0.040
   full:        2.804      -0.571       0.069       7.275

           -------------------------------------------------
          | TOTAL ENERGY              -89.195624738732 Eh   |
          | GRADIENT NORM               0.001681073422 Eh/α |
          | HOMO-LUMO GAP               1.187314378142 eV   |
           -------------------------------------------------

 * finished run on 2024/06/05 at 19:59:03.573
