   * xtb version 6.6.1 (8d0f1dd) compiled by 'conda@1efc2f54142f' on 2023-08-01
          program call               : xtb xtbopt.xyz --opt crude --input .xc2 --gfn2

   ID    Z sym.   atoms
    1    6 C      1, 3, 5-7, 10, 11, 14
    2    7 N      2, 4, 9, 13
    3    8 O      8, 12
    4    1 H      15-25
########################################################################
[WARNING] Please study the warnings concerning your input carefully
-1- readin_getIntValue: could not parse ''
########################################################################

          :  Hamiltonian                  GFN2-xTB          :
 * total energy  :   -39.8942307 Eh     change       -0.3552714E-12 Eh
 * total energy  :   -42.1791862 Eh     change       -0.2284955E+01 Eh
 * total energy  :   -42.2099226 Eh     change       -0.3073640E-01 Eh
 * total energy  :   -42.2124518 Eh     change       -0.2529193E-02 Eh
 * total energy  :   -42.2134902 Eh     change       -0.1038431E-02 Eh
 * total energy  :   -42.2139268 Eh     change       -0.4366250E-03 Eh
 * total energy  :   -42.2147721 Eh     change       -0.8453215E-03 Eh
 * total energy  :   -42.2156401 Eh     change       -0.8679115E-03 Eh
 * total energy  :   -42.2165703 Eh     change       -0.9302288E-03 Eh
 * total energy  :   -42.2171069 Eh     change       -0.5365787E-03 Eh
 * total energy  :   -42.2173765 Eh     change       -0.2696384E-03 Eh
 * total energy  :   -42.2174998 Eh     change       -0.1233235E-03 Eh
 * total energy  :   -42.2176041 Eh     change       -0.1043171E-03 Eh
 * total energy  :   -42.2177452 Eh     change       -0.1410565E-03 Eh
 * total energy  :   -42.2178883 Eh     change       -0.1431413E-03 Eh
 * total energy  :   -42.2179848 Eh     change       -0.9647640E-04 Eh
   *** GEOMETRY OPTIMIZATION CONVERGED AFTER 16 ITERATIONS ***

 final structure:
================
25
 xtb: 6.6.1 (8d0f1dd)
C            3.20878922234033        0.95487968850299        0.13184945606163
N            2.28583666992408       -0.01221247367403        0.07046531908807
C            2.53553568870018       -1.35737790387068        0.02081993509441
N            1.34844866075085       -2.03914748538303       -0.04570902968526
C            0.33937599997775       -1.13975880978941       -0.03603523509926
C            0.89990008146716        0.14912612592142        0.03623763317604
C            0.06486599601283        1.25003153093442        0.05711439271016
O            2.80319838303198        2.23608258489812        0.19357937762817
N           -1.28523561450401        1.01572211801200        0.00352395820496
C           -2.17551494275999        2.15959127518930        0.02562945787779
C           -1.87337131050874       -0.24089295466149       -0.06469555048947
O           -3.06752181741032       -0.39944110349979       -0.10379195846871
N           -1.00095517169376       -1.34327983824599       -0.08870186626702
C           -1.55283560686588       -2.67801812625229       -0.16820435006464
H            3.54094463257048        2.84606749073975        0.28689556865861
H            4.25027039527126        0.68350403781615        0.13434819060358
H            0.39803980195429        2.26935635996137        0.11062593178098
H            3.50437307449470       -1.80230557312396        0.03079804115180
H           -1.96237806844963        2.81728407849395       -0.81713447721393
H           -3.20112648305257        1.80177056350604       -0.04570643358466
H           -2.05221474212331        2.71521861182667        0.95583382973363
H           -1.26680981183823       -3.26216163515553        0.70762764266098
H           -1.21246365915718       -3.17729293048555       -1.07659462825607
H           -2.63770672957559       -2.58622661856710       -0.19677115983977
H            1.26898686554318       -3.04228047149128       -0.09083242756171

          :  Hamiltonian                  GFN2-xTB          :
         :: total energy             -42.217984816985 Eh    ::
         :: gradient norm              0.007122552972 Eh/a0 ::
         :: HOMO-LUMO gap              1.204872669830 eV    ::
         :: SCC energy               -42.735264725211 Eh    ::
         :: -> dispersion             -0.022554094751 Eh    ::
         :: repulsion energy           0.517187147749 Eh    ::

    * Orbital Energies and Occupations

         #    Occupation            Energy/Eh            Energy/eV
      -------------------------------------------------------------
         1        2.0000           -0.8784311             -23.9033
       ...           ...                  ...                  ...
        25        1.9998           -0.6641979             -18.0737
        26        1.9996           -0.6541539             -17.8004
        27        1.9993           -0.6395756             -17.4037
        28        1.9992           -0.6359772             -17.3058
        29        1.9992           -0.6354663             -17.2919
        30        1.9985           -0.6211029             -16.9011
        31        1.9976           -0.6095441             -16.5865
        32        1.9975           -0.6088782             -16.5684
        33        1.9963           -0.5992313             -16.3059
        34        1.9918           -0.5803913             -15.7933
        35        1.9794           -0.5584461             -15.1961
        36        1.9594           -0.5421266             -14.7520
        37        1.4202           -0.4713392             -12.8258 (HOMO)
        38        0.5504           -0.4270610             -11.6209 (LUMO)
        39        0.0845           -0.3759254             -10.2294
        40        0.0269           -0.3480283              -9.4703
        41        0.0015           -0.2786733              -7.5831
        42        0.0000           -0.1897965              -5.1646
        43        0.0000           -0.1705541              -4.6410
        44        0.0000           -0.1216653              -3.3107
        45        0.0000           -0.1121147              -3.0508
        46        0.0000           -0.0955302              -2.5995
        47        0.0000           -0.0525622              -1.4303
        48                         -0.0251954              -0.6856
       ...                                ...                  ...
        67                          0.5366956              14.6042
      -------------------------------------------------------------
                  HL-Gap            0.0442783 Eh            1.2049 eV

     #   Z          covCN         q      C6AA      α(0)
     1   6 C        2.713     0.100    25.762     8.308
     2   7 N        2.801     0.066    20.088     6.657
     3   6 C        3.009    -0.006    28.153     8.704
     4   7 N        2.760    -0.064    22.488     7.043
     5   6 C        3.020     0.096    25.845     8.339
     6   6 C        3.064     0.018    27.536     8.605
     7   6 C        2.853    -0.012    28.301     8.719
     8   8 O        1.660    -0.332    19.580     5.973
     9   7 N        2.744    -0.024    21.708     6.920
    10   6 C        3.707    -0.074    22.069     6.715
    11   6 C        2.722     0.308    21.773     7.639
    12   8 O        0.859    -0.379    21.264     6.183
    13   7 N        2.737    -0.054    22.288     7.012
    14   6 C        3.698    -0.069    21.999     6.709
    15   1 H        0.805     0.346     0.598     1.214
    16   1 H        0.926     0.073     2.048     2.238
    17   1 H        0.926     0.109     1.706     2.042
    18   1 H        0.927     0.099     1.793     2.094
    19   1 H        0.925     0.090     1.877     2.143
    20   1 H        0.925     0.118     1.626     1.994
    21   1 H        0.924     0.090     1.876     2.142
    22   1 H        0.924     0.080     1.979     2.200
    23   1 H        0.924     0.080     1.979     2.200
    24   1 H        0.925     0.123     1.588     1.971
    25   1 H        0.860     0.217     1.024     1.585

Wiberg/Mayer (AO) data.
largest (>0.10) Wiberg bond orders for each atom

     #   Z sym  total        # sym  WBO       # sym  WBO       # sym  WBO
 ---------------------------------------------------------------------------
     1   6 C    3.487 --     2 N    1.253     8 O    1.128    16 H    0.957
     2   7 N    3.666 --     1 C    1.253     3 C    1.185     6 C    1.068
     3   6 C    3.556 --     4 N    1.192     2 N    1.185    18 H    0.961
     4   7 N    3.500 --     5 C    1.217     3 C    1.192    25 H    0.925
     5   6 C    3.788 --     6 C    1.232     4 N    1.217    13 N    1.173
     6   6 C    3.878 --     7 C    1.364     5 C    1.232     2 N    1.068
     7   6 C    3.620 --     6 C    1.364     9 N    1.189    17 H    0.953
     8   8 O    2.090 --     1 C    1.128    15 H    0.864
     9   7 N    3.488 --     7 C    1.189    11 C    1.106    10 C    0.983
                            12 O    0.122
    10   6 C    3.920 --     9 N    0.983    19 H    0.965    20 H    0.965
                            21 H    0.965
    11   6 C    3.913 --    12 O    1.665     9 N    1.106    13 N    1.053
    12   8 O    1.995 --    11 C    1.665     9 N    0.122    13 N    0.119
    13   7 N    3.455 --     5 C    1.173    11 C    1.053    14 C    0.982
                            12 O    0.119
    14   6 C    3.926 --    13 N    0.982    22 H    0.968    23 H    0.968
                            24 H    0.964
    15   1 H    0.880 --     8 O    0.864
    16   1 H    0.993 --     1 C    0.957
    17   1 H    0.986 --     7 C    0.953
    18   1 H    0.989 --     3 C    0.961
    19   1 H    0.981 --    10 C    0.965
    20   1 H    0.983 --    10 C    0.965
    21   1 H    0.980 --    10 C    0.965
    22   1 H    0.985 --    14 C    0.968
    23   1 H    0.985 --    14 C    0.968
    24   1 H    0.983 --    14 C    0.964
    25   1 H    0.952 --     4 N    0.925
 ---------------------------------------------------------------------------

molecular dipole:
                 x           y           z       tot (Debye)
 q only:        2.578      -0.296       0.084
   full:        3.186      -0.422       0.104       8.174

           -------------------------------------------------
          | TOTAL ENERGY              -42.217984816985 Eh   |
          | GRADIENT NORM               0.007122552972 Eh/α |
          | HOMO-LUMO GAP               1.204872669830 eV   |
           -------------------------------------------------

 * finished run on 2024/06/05 at 19:59:04.146
