   * xtb version 6.6.1 (8d0f1dd) compiled by 'conda@1efc2f54142f' on 2023-08-01
          program call               : xtb xtbopt.xyz --opt crude --input .xc2 --gfn2

   ID    Z sym.   atoms
    1    7 N      1, 17
    2    6 C      2-6, 8, 9, 11-16, 18-23, 25, 26, 28-33
    3    8 O      7, 10, 24, 27
    4    1 H      34-72

          :  Hamiltonian                  GFN2-xTB          :
 * total energy  :   -99.2722134 Eh     change       -0.3215916E-10 Eh
   *** GEOMETRY OPTIMIZATION CONVERGED AFTER 1 ITERATIONS ***

 final structure:
================
72
 xtb: 6.6.1 (8d0f1dd)
N           -1.82004668603504        2.78241704796393        2.16658915529170
C           -1.80149478080933        1.95541900461180        1.23150651342098
C           -2.95987853503990        1.69281020789039        0.30736510719141
C           -3.36377485804987        0.22935746198450        0.41289334491686
C           -4.24713540161427       -0.32230936949524       -0.51650164754485
C           -4.68708562051042       -1.63213542726001       -0.40882423285944
O           -5.54972731340917       -2.23615171438458       -1.24868621913521
C           -6.13338770387991       -1.49669472658992       -2.29531895337018
C           -4.22283983371175       -2.44166035441480        0.66541939419883
O           -4.70682392059485       -3.69580038313018        0.69637353770041
C           -4.37578185693077       -4.53567244047158        1.77866747628606
C           -3.33985453866279       -1.88815197913699        1.58062671899351
C           -2.92254096301182       -0.57098994587485        1.45767963249055
C           -2.44859773057151        2.01389842219944       -1.12126986096196
C           -1.39947140490735        1.02568643972483       -1.64800494074003
C           -0.04457150967713        1.26384434244466       -1.10156084278862
N            0.86160076708486        0.34324516435451       -0.89263608251062
C            2.21220092835587        0.69451579304391       -0.51990611876272
C            3.13077835373254        0.77457340570787       -1.75800889222534
C            4.55962884585390        0.61963900403126       -1.33187773825273
C            5.44434764018405        1.67820871118993       -1.20286141513659
C            6.73618556436508        1.50096274693951       -0.73891956879014
C            7.20207078651548        0.22850319490359       -0.35947707258014
O            8.42046919309524       -0.04902098026860        0.12247514626417
C            9.37395803070835        0.98085528167654        0.25053695057828
C            6.27791861303448       -0.77712614865856       -0.52381726178854
O            3.05456572848959       -1.97281777901441        0.51553158178754
C            3.64849171336937       -2.72631659599111        1.44763272623491
C            5.02447430605899       -0.66322791791308       -0.98716823011135
C            0.59723294111039       -1.06431754463796       -1.07878010692712
C           -4.21669380297113        2.55867537725891        0.62164832754650
C           -4.78219437072909        2.24088921043190        2.00376380610138
C           -3.96586117706164        4.05958459145617        0.50214188263637
H           -4.61344419402024        0.28626893131074       -1.32662222675255
H           -6.68839668713827       -0.63348210843418       -1.91591394087139
H           -6.82363826390987       -2.18040396365264       -2.78554936694628
H           -5.38267554256830       -1.16247574051496       -3.01870767964136
H           -4.68927983157332       -4.10037833842380        2.73205277289932
H           -4.92162323193641       -5.46137941802728        1.60725243298639
H           -3.30278217324881       -4.74824346106013        1.80866929150440
H           -2.97858782133845       -2.47367433634803        2.41009951919568
H           -2.26413781384065       -0.16862329825934        2.21151839244970
H           -3.29983752889668        2.01283143614081       -1.80104117469997
H           -2.02847347841664        3.01992348489664       -1.12554005931775
H           -1.73163359576053        0.00241791870599       -1.46859306173510
H           -1.33525267233448        1.15734883040613       -2.73615970572187
H           -0.91088974549244        1.35978587970427        0.95967408207211
H            0.26034372963518        2.29189142873482       -0.95895926546612
H            2.59658681481963       -0.09222335653607        0.14097727643387
H            2.21856574758394        1.65063946066155        0.00676876089072
H            2.98362902933574        1.72210547874704       -2.27873701464288
H            2.87380249043538       -0.03969646116501       -2.43663613088127
H            5.12417981862982        2.67493444682990       -1.47146134073428
H            7.39606701206374        2.35100182946044       -0.66015561836864
H            9.02913497064067        1.76810686185981        0.92803799226997
H            9.62379207266560        1.41668747150262       -0.72227781182487
H           10.25920061479455        0.50718444339141        0.67013567204470
H            4.60504803045216       -2.28081821350616        1.78139012557453
H            3.01000614203802       -2.84561369309787        2.34362680289547
H            3.87375612392888       -3.74061238569831        1.06833406175167
H            4.35076050706773       -1.50797533649403       -1.03521428331851
H            0.51586943455191       -1.30964606019193       -2.13888322523613
H           -0.33410832421740       -1.34527629833516       -0.58618401595482
H            1.41365319730306       -1.63710770794746       -0.63385448946382
H           -4.97328938540422        2.28138859415680       -0.12179715675148
H           -4.06772721004929        2.51894433441754        2.77224827488349
H           -5.01409192182885        1.18303359095766        2.10142028254897
H           -5.69650673285911        2.80659452588487        2.16210533993637
H           -3.17276961528022        4.36343685260851        1.17820089163001
H           -3.70795459496965        4.35086348062423       -0.51256175765475
H           -4.87099496475629        4.59361403185390        0.77900522455312
H           -0.97594621296961        2.90207428668190        2.71736485496011

          :  Hamiltonian                  GFN2-xTB          :
         :: total energy             -99.272213368802 Eh    ::
         :: gradient norm              0.004737700433 Eh/a0 ::
         :: HOMO-LUMO gap              0.861591301851 eV    ::
         :: SCC energy              -100.658028336237 Eh    ::
         :: -> dispersion             -0.073693597429 Eh    ::
         :: repulsion energy           1.384471495855 Eh    ::

    * Orbital Energies and Occupations

         #    Occupation            Energy/Eh            Energy/eV
      -------------------------------------------------------------
         1        2.0000           -0.8145016             -22.1637
       ...           ...                  ...                  ...
        78        1.9975           -0.5329051             -14.5011
        79        1.9973           -0.5319775             -14.4758
        80        1.9961           -0.5261357             -14.3169
        81        1.9943           -0.5199074             -14.1474
        82        1.9934           -0.5175747             -14.0839
        83        1.9921           -0.5147884             -14.0081
        84        1.9851           -0.5047292             -13.7344
        85        1.9730           -0.4951690             -13.4742
        86        1.9167           -0.4768755             -12.9764
        87        1.8953           -0.4730762             -12.8731
        88        1.8161           -0.4634878             -12.6121
        89        1.6854           -0.4537976             -12.3485
        90        1.6745           -0.4531570             -12.3310 (HOMO)
        91        0.8210           -0.4214941             -11.4694 (LUMO)
        92        0.2584           -0.3970097             -10.8032
        93        0.0107           -0.3445243              -9.3750
        94        0.0024           -0.3209264              -8.7329
        95        0.0022           -0.3196570              -8.6983
        96        0.0020           -0.3180600              -8.6549
        97        0.0014           -0.3126878              -8.5087
        98        0.0000           -0.1955883              -5.3222
        99        0.0000           -0.1869686              -5.0877
       100                         -0.1295306              -3.5247
       101                         -0.0732641              -1.9936
       ...                                ...                  ...
       171                          0.5881621              16.0047
      -------------------------------------------------------------
                  HL-Gap            0.0316629 Eh            0.8616 eV

     #   Z          covCN         q      C6AA      α(0)
     1   7 N        1.774    -0.265    27.695     7.793
     2   6 C        2.827     0.102    25.736     8.313
     3   6 C        3.907     0.007    20.408     6.421
     4   6 C        2.974     0.002    27.977     8.676
     5   6 C        2.920    -0.079    29.980     8.979
     6   6 C        2.862     0.132    25.113     8.214
     7   8 O        1.706    -0.224    17.709     5.682
     8   6 C        3.644     0.026    20.474     6.504
     9   6 C        2.864     0.133    25.097     8.212
    10   8 O        1.706    -0.220    17.654     5.673
    11   6 C        3.645     0.024    20.499     6.507
    12   6 C        2.913    -0.070    29.739     8.942
    13   6 C        2.921    -0.048    29.202     8.862
    14   6 C        3.813    -0.067    21.766     6.641
    15   6 C        3.803    -0.070    21.845     6.654
    16   6 C        2.847     0.018    27.590     8.609
    17   7 N        2.729     0.051    20.354     6.701
    18   6 C        3.759    -0.040    21.342     6.586
    19   6 C        3.807    -0.068    21.795     6.646
    20   6 C        2.983     0.014    27.697     8.633
    21   6 C        2.919    -0.041    29.011     8.833
    22   6 C        2.936    -0.061    29.522     8.911
    23   6 C        2.858     0.169    24.359     8.090
    24   8 O        1.706    -0.220    17.644     5.671
    25   6 C        3.645     0.025    20.492     6.506
    26   6 C        2.029    -0.037    32.003     9.137
    27   8 O        0.854    -0.514    24.099     6.582
    28   6 C        3.621     0.087    19.564     6.377
    29   6 C        2.920    -0.023    28.578     8.766
    30   6 C        3.702    -0.092    22.420     6.770
    31   6 C        3.853    -0.008    20.676     6.467
    32   6 C        3.756    -0.118    22.815     6.811
    33   6 C        3.755    -0.121    22.866     6.818
    34   1 H        0.926     0.053     2.286     2.364
    35   1 H        0.924     0.055     2.254     2.348
    36   1 H        0.925     0.084     1.941     2.179
    37   1 H        0.924     0.050     2.321     2.383
    38   1 H        0.924     0.058     2.225     2.333
    39   1 H        0.925     0.084     1.938     2.177
    40   1 H        0.924     0.055     2.259     2.351
    41   1 H        0.926     0.058     2.217     2.328
    42   1 H        0.926     0.045     2.382     2.413
    43   1 H        0.925     0.062     2.178     2.308
    44   1 H        0.924     0.057     2.236     2.338
    45   1 H        0.924     0.074     2.047     2.238
    46   1 H        0.923     0.086     1.916     2.165
    47   1 H        0.922     0.009     2.901     2.663
    48   1 H        0.925     0.077     2.012     2.218
    49   1 H        0.924     0.134     1.508     1.920
    50   1 H        0.924     0.062     2.171     2.304
    51   1 H        0.924     0.055     2.263     2.352
    52   1 H        0.924     0.068     2.102     2.268
    53   1 H        0.926     0.058     2.226     2.333
    54   1 H        0.926     0.067     2.115     2.274
    55   1 H        0.924     0.056     2.250     2.346
    56   1 H        0.924     0.058     2.227     2.334
    57   1 H        0.925     0.084     1.938     2.177
    58   1 H        0.922     0.040     2.450     2.448
    59   1 H        0.922     0.038     2.480     2.463
    60   1 H        0.922     0.043     2.409     2.427
    61   1 H        0.925     0.120     1.616     1.988
    62   1 H        0.924     0.078     1.995     2.209
    63   1 H        0.924     0.076     2.018     2.222
    64   1 H        0.924     0.138     1.479     1.902
    65   1 H        0.924     0.039     2.463     2.454
    66   1 H        0.925     0.067     2.115     2.274
    67   1 H        0.925     0.036     2.501     2.473
    68   1 H        0.925     0.053     2.280     2.361
    69   1 H        0.925     0.065     2.137     2.286
    70   1 H        0.925     0.036     2.502     2.473
    71   1 H        0.925     0.057     2.238     2.339
    72   1 H        0.860     0.160     1.335     1.810

Wiberg/Mayer (AO) data.
largest (>0.10) Wiberg bond orders for each atom

     #   Z sym  total        # sym  WBO       # sym  WBO       # sym  WBO
 ---------------------------------------------------------------------------
     1   7 N    3.033 --     2 C    1.958    72 H    0.940
     2   6 C    3.936 --     1 N    1.958     3 C    0.993    47 H    0.908
     3   6 C    3.973 --     2 C    0.993     4 C    0.972    14 C    0.955
                            31 C    0.942
     4   6 C    3.936 --    13 C    1.404     5 C    1.373     3 C    0.972
     5   6 C    3.956 --     6 C    1.395     4 C    1.373    34 H    0.957
     6   6 C    3.893 --     5 C    1.395     9 C    1.214     7 O    1.106
     7   8 O    2.252 --     6 C    1.106     8 C    0.977
     8   6 C    3.929 --     7 O    0.977    36 H    0.976    35 H    0.973
                            37 H    0.973
     9   6 C    3.889 --    12 C    1.382     6 C    1.214    10 O    1.113
    10   8 O    2.253 --     9 C    1.113    11 C    0.975
    11   6 C    3.926 --    39 H    0.976    10 O    0.975    38 H    0.972
                            40 H    0.972
    12   6 C    3.955 --    13 C    1.414     9 C    1.382    41 H    0.963
    13   6 C    3.943 --    12 C    1.414     4 C    1.404    42 H    0.961
    14   6 C    3.980 --    15 C    0.992    44 H    0.970    43 H    0.968
                             3 C    0.955
    15   6 C    3.986 --    16 C    1.059    14 C    0.992    45 H    0.952
                            46 H    0.921
    16   6 C    3.706 --    17 N    1.507    15 C    1.059    48 H    0.954
    17   7 N    3.574 --    16 C    1.507    30 C    0.993    18 C    0.983
    18   6 C    3.927 --    17 N    0.983    50 H    0.969    19 C    0.961
                            49 H    0.926
    19   6 C    3.970 --    20 C    1.008    51 H    0.971    52 H    0.965
                            18 C    0.961
    20   6 C    3.873 --    21 C    1.420    29 C    1.282    19 C    1.008
    21   6 C    3.968 --    22 C    1.448    20 C    1.420    53 H    0.958
    22   6 C    3.894 --    21 C    1.448    23 C    1.286    54 H    0.949
    23   6 C    3.880 --    26 C    1.337    22 C    1.286    24 O    1.116
    24   8 O    2.261 --    23 C    1.116    25 C    0.973
    25   6 C    3.926 --    57 H    0.976    24 O    0.973    55 H    0.972
                            56 H    0.972
    26   6 C    3.153 --    29 C    1.570    23 C    1.337
    27   8 O    1.261 --    28 C    1.142
    28   6 C    3.901 --    27 O    1.142    59 H    0.918    60 H    0.917
                            58 H    0.916
    29   6 C    3.923 --    26 C    1.570    20 C    1.282    61 H    0.910
    30   6 C    3.932 --    17 N    0.993    63 H    0.963    62 H    0.962
                            64 H    0.947
    31   6 C    3.970 --    32 C    1.008    33 C    1.008    65 H    0.959
                             3 C    0.942
    32   6 C    3.976 --    31 C    1.008    67 H    0.981    68 H    0.981
                            66 H    0.974
    33   6 C    3.977 --    31 C    1.008    70 H    0.982    71 H    0.979
                            69 H    0.973
    34   1 H    0.996 --     5 C    0.957
    35   1 H    0.992 --     8 C    0.973
    36   1 H    0.992 --     8 C    0.976
    37   1 H    0.992 --     8 C    0.973
    38   1 H    0.991 --    11 C    0.972
    39   1 H    0.992 --    11 C    0.976
    40   1 H    0.991 --    11 C    0.972
    41   1 H    0.994 --    12 C    0.963
    42   1 H    0.997 --    13 C    0.961
    43   1 H    0.995 --    14 C    0.968
    44   1 H    0.996 --    14 C    0.970
    45   1 H    0.992 --    15 C    0.952
    46   1 H    0.975 --    15 C    0.921
    47   1 H    0.983 --     2 C    0.908
    48   1 H    0.994 --    16 C    0.954
    49   1 H    0.978 --    18 C    0.926
    50   1 H    0.994 --    18 C    0.969
    51   1 H    0.992 --    19 C    0.971
    52   1 H    0.992 --    19 C    0.965
    53   1 H    0.987 --    21 C    0.958
    54   1 H    0.980 --    22 C    0.949
    55   1 H    0.992 --    25 C    0.972
    56   1 H    0.991 --    25 C    0.972
    57   1 H    0.992 --    25 C    0.976
    58   1 H    0.924 --    28 C    0.916
    59   1 H    0.926 --    28 C    0.918
    60   1 H    0.923 --    28 C    0.917
    61   1 H    0.961 --    29 C    0.910
    62   1 H    0.986 --    30 C    0.962
    63   1 H    0.989 --    30 C    0.963
    64   1 H    0.981 --    30 C    0.947
    65   1 H    0.990 --    31 C    0.959
    66   1 H    0.990 --    32 C    0.974
    67   1 H    0.996 --    32 C    0.981
    68   1 H    0.993 --    32 C    0.981
    69   1 H    0.991 --    33 C    0.973
    70   1 H    0.996 --    33 C    0.982
    71   1 H    0.993 --    33 C    0.979
    72   1 H    0.968 --     1 N    0.940
 ---------------------------------------------------------------------------

molecular dipole:
                 x           y           z       tot (Debye)
 q only:        0.279       1.298      -1.200
   full:        0.750       1.268      -1.113       4.693

           -------------------------------------------------
          | TOTAL ENERGY              -99.272213368802 Eh   |
          | GRADIENT NORM               0.004737700433 Eh/α |
          | HOMO-LUMO GAP               0.861591301851 eV   |
           -------------------------------------------------

 * finished run on 2024/04/06 at 11:14:28.793
