   * xtb version 6.6.1 (8d0f1dd) compiled by 'conda@1efc2f54142f' on 2023-08-01
          program call               : xtb struc.xyz --opt loose --input .xc1 --gfn2

   ID    Z sym.   atoms
    1    6 C      1, 3, 5-7, 10, 11, 14
    2    7 N      2, 4, 9, 13
    3    8 O      8, 12
    4    1 H      15-25
constraining bond 7 19 to    3.7133300 Å, actual value:    2.4428892 Å

          :  Hamiltonian                  GFN2-xTB          :
 * total energy  :   -45.1271677 Eh     change       -0.6633627E-10 Eh
 * total energy  :   -49.3309986 Eh     change       -0.4203831E+01 Eh
 * total energy  :   -55.3447593 Eh     change       -0.6013761E+01 Eh
 * total energy  :   -56.9503990 Eh     change       -0.1605640E+01 Eh
 * total energy  :   -58.3348968 Eh     change       -0.1384498E+01 Eh
 * total energy  :   -58.9004691 Eh     change       -0.5655723E+00 Eh
 * total energy  :   -58.3698898 Eh     change        0.5305793E+00 Eh
 * total energy  :   -59.3770811 Eh     change       -0.1007191E+01 Eh
 * total energy  :   -59.4681726 Eh     change       -0.9109153E-01 Eh
 * total energy  :   -59.4986472 Eh     change       -0.3047461E-01 Eh
 * total energy  :   -59.7358302 Eh     change       -0.6148707E-04 Eh
 * total energy  :   -59.7358882 Eh     change       -0.5799023E-04 Eh
 * total energy  :   -59.7359333 Eh     change       -0.4515872E-04 Eh
 * total energy  :   -59.7359843 Eh     change       -0.5095661E-04 Eh
 * total energy  :   -59.7360366 Eh     change       -0.5233198E-04 Eh
 * total energy  :   -59.7360883 Eh     change       -0.5166562E-04 Eh
 * total energy  :   -59.7361211 Eh     change       -0.3281593E-04 Eh
 * total energy  :   -59.7361411 Eh     change       -0.1996355E-04 Eh
 * total energy  :   -59.7361581 Eh     change       -0.1705864E-04 Eh
   *** GEOMETRY OPTIMIZATION CONVERGED AFTER 61 ITERATIONS ***

 final structure:
================
25
 xtb: 6.6.1 (8d0f1dd)
C            3.47950492287329        1.05898005848608        0.01139502033729
N            2.43317543857649        0.07317782432882       -0.01105613526374
C            2.58455585745249       -1.24875935364176       -0.02485684319490
N            1.37785443283710       -1.83013183979742       -0.02402589251224
C            0.40223664476843       -0.85457576694731       -0.01175360752270
C            1.07932085198265        0.37804338420512        0.00642375060830
C           -0.55986381017217        2.20701865907858        0.06161580498450
O            0.73920905760322        1.64483598446256        0.03536216555950
N           -1.58091971506977        1.26342407748352        0.04228058375138
C           -3.03306842414188        1.40524477787831        0.00581825427786
C           -1.77851364394634       -0.05234881784590        0.07292137070765
O           -3.15854079978491       -0.01837564907793        0.00858990680615
N           -0.93718442542862       -1.10694637939352       -0.00223258662447
C           -1.47464765743449       -2.45236942730511       -0.03479478868858
H            3.76534409743524        1.28812388397234        1.04040424652899
H            4.34882533778382        0.68849730765582       -0.52886852828841
H            3.11391075388467        1.97232558656043       -0.45736582938788
H            3.52163952369815       -1.76566035609940       -0.04277285775699
H           -0.60403574442472        2.62866119680798        0.06669730950896
H           -3.41899442935049        1.85512260684093       -0.91048672987852
H           -3.46663171412001        1.86629760387717        0.89518171497813
H           -1.21620490297371       -2.99649977877816        0.87470945577985
H           -1.10312401362147       -2.98749773168436       -0.90896547743990
H           -2.55680587043480       -2.37623590819978       -0.10342584381642
H            1.20338974610688       -2.82211340126718       -0.02962284555159

          :  Hamiltonian                  GFN2-xTB          :
         :: total energy             -59.736158115077 Eh    ::
         :: gradient norm              0.003086407080 Eh/a0 ::
         :: HOMO-LUMO gap              1.581238607819 eV    ::
         :: SCC energy               -42.647173993681 Eh    ::
         :: -> dispersion             -0.022196035727 Eh    ::
         :: repulsion energy           2.230056935505 Eh    ::

    * Orbital Energies and Occupations

         #    Occupation            Energy/Eh            Energy/eV
      -------------------------------------------------------------
         1        2.0000           -0.8860863             -24.1116
       ...           ...                  ...                  ...
        25        2.0000           -0.6721938             -18.2913
        26        2.0000           -0.6598945             -17.9566
        27        2.0000           -0.6572553             -17.8848
        28        2.0000           -0.6346885             -17.2708
        29        2.0000           -0.6226272             -16.9425
        30        2.0000           -0.6214116             -16.9095
        31        2.0000           -0.6197231             -16.8635
        32        2.0000           -0.6178103             -16.8115
        33        2.0000           -0.6155838             -16.7509
        34        2.0000           -0.5964742             -16.2309
        35        2.0000           -0.5863392             -15.9551
        36        2.0000           -0.5158523             -14.0371
        37        1.9503           -0.4495304             -12.2323 (HOMO)
        38        0.0497           -0.3914210             -10.6511 (LUMO)
        39        0.0000           -0.3363197              -9.1517
        40        0.0000           -0.3104003              -8.4464
        41                         -0.2136928              -5.8149
        42                         -0.1906650              -5.1883
        43                         -0.1738701              -4.7312
        44                         -0.1393614              -3.7922
        45                         -0.1111910              -3.0257
        46                         -0.1065953              -2.9006
        47                         -0.0833073              -2.2669
        48                         -0.0308828              -0.8404
       ...                                ...                  ...
        67                         10.2944531             280.1263
      -------------------------------------------------------------
                  HL-Gap            0.0581094 Eh            1.5812 eV

     #   Z          covCN         q      C6AA      α(0)
     1   6 C        3.691    -0.081    22.234     6.747
     2   7 N        2.838     0.033    20.674     6.753
     3   6 C        2.997     0.039    27.104     8.540
     4   7 N        2.794    -0.071    22.620     7.064
     5   6 C        3.024     0.037    27.156     8.548
     6   6 C        2.937     0.136    25.041     8.207
     7   6 C        2.699    -0.036    28.870     8.794
     8   8 O        1.706    -0.219    17.628     5.669
     9   7 N        2.802    -0.074    22.668     7.071
    10   6 C        4.248     0.139    18.262     6.069
    11   6 C        3.371     0.193    21.132     7.187
    12   8 O        1.766    -0.270    18.455     5.801
    13   7 N        2.731    -0.036    21.938     6.956
    14   6 C        3.700    -0.068    21.974     6.704
    15   1 H        0.924     0.101     1.772     2.082
    16   1 H        0.925     0.097     1.812     2.105
    17   1 H        0.925     0.112     1.676     2.025
    18   1 H        0.926     0.113     1.669     2.020
    19   1 H        0.938     0.160     1.327     1.801
    20   1 H        0.924     0.101     1.774     2.083
    21   1 H        0.924     0.101     1.780     2.086
    22   1 H        0.924     0.080     1.980     2.200
    23   1 H        0.924     0.080     1.977     2.199
    24   1 H        0.925     0.110     1.696     2.037
    25   1 H        0.860     0.222     1.001     1.567

Wiberg/Mayer (AO) data.
largest (>0.10) Wiberg bond orders for each atom

     #   Z sym  total        # sym  WBO       # sym  WBO       # sym  WBO
 ---------------------------------------------------------------------------
     1   6 C    3.931 --     2 N    0.988    16 H    0.973    17 H    0.968
                            15 H    0.960
     2   7 N    3.654 --     3 C    1.345     6 C    1.119     1 C    0.988
     3   6 C    3.887 --     2 N    1.345     4 N    1.306    18 H    0.955
                             5 C    0.101
     4   7 N    3.572 --     3 C    1.306     5 C    1.134    25 H    0.922
     5   6 C    3.887 --     6 C    1.268    13 N    1.138     4 N    1.134
                             3 C    0.101
     6   6 C    3.890 --     5 C    1.268     8 O    1.153     2 N    1.119
                             7 C    0.114
     7   6 C    3.584 --     9 N    1.137     8 O    0.964    19 H    0.959
                            11 C    0.252     6 C    0.114
     8   8 O    2.380 --     6 C    1.153     7 C    0.964
     9   7 N    3.575 --    11 C    1.247     7 C    1.137    10 C    0.967
    10   6 C    3.909 --     9 N    0.967    12 O    0.965    21 H    0.958
                            20 H    0.958
    11   6 C    3.836 --     9 N    1.247    13 N    1.153    12 O    0.998
                             7 C    0.252
    12   8 O    2.138 --    11 C    0.998    10 C    0.965
    13   7 N    3.545 --    11 C    1.153     5 C    1.138    14 C    0.974
    14   6 C    3.938 --    13 N    0.974    23 H    0.974    22 H    0.973
                            24 H    0.972
    15   1 H    0.988 --     1 C    0.960
    16   1 H    0.990 --     1 C    0.973
    17   1 H    0.987 --     1 C    0.968
    18   1 H    0.986 --     3 C    0.955
    19   1 H    0.974 --     7 C    0.959
    20   1 H    0.988 --    10 C    0.958
    21   1 H    0.989 --    10 C    0.958
    22   1 H    0.992 --    14 C    0.973
    23   1 H    0.993 --    14 C    0.974
    24   1 H    0.988 --    14 C    0.972
    25   1 H    0.951 --     4 N    0.922
 ---------------------------------------------------------------------------

molecular dipole:
                 x           y           z       tot (Debye)
 q only:        1.363      -0.886      -0.024
   full:        1.345      -1.202      -0.028       4.585

           -------------------------------------------------
          | TOTAL ENERGY              -59.736158115077 Eh   |
          | GRADIENT NORM               0.003086407080 Eh/α |
          | HOMO-LUMO GAP               1.581238607819 eV   |
           -------------------------------------------------

 * finished run on 2024/06/05 at 19:58:14.572
