   * xtb version 6.6.1 (8d0f1dd) compiled by 'conda@1efc2f54142f' on 2023-08-01
          program call               : xtb xtbopt.xyz --opt crude --input .xc2 --gfn2

   ID    Z sym.   atoms
    1    6 C      1, 3, 5-7, 10, 11, 14
    2    7 N      2, 4, 9, 13
    3    8 O      8, 12
    4    1 H      15-25
########################################################################
[WARNING] Please study the warnings concerning your input carefully
-1- readin_getIntValue: could not parse ''
########################################################################

          :  Hamiltonian                  GFN2-xTB          :
 * total energy  :   -40.4170219 Eh     change       -0.2344791E-12 Eh
 * total energy  :   -42.1120006 Eh     change       -0.1694979E+01 Eh
 * total energy  :   -42.1312635 Eh     change       -0.1926289E-01 Eh
 * total energy  :   -42.1351276 Eh     change       -0.3864050E-02 Eh
 * total energy  :   -42.1360956 Eh     change       -0.9680074E-03 Eh
 * total energy  :   -42.1364227 Eh     change       -0.3270792E-03 Eh
 * total energy  :   -42.1367973 Eh     change       -0.3746728E-03 Eh
 * total energy  :   -42.1371697 Eh     change       -0.3723717E-03 Eh
 * total energy  :   -42.1376648 Eh     change       -0.4950698E-03 Eh
 * total energy  :   -42.1380325 Eh     change       -0.3677814E-03 Eh
 * total energy  :   -42.1382480 Eh     change       -0.2154731E-03 Eh
 * total energy  :   -42.1384124 Eh     change       -0.1643317E-03 Eh
 * total energy  :   -42.1385554 Eh     change       -0.1430893E-03 Eh
 * total energy  :   -42.1387085 Eh     change       -0.1530540E-03 Eh
 * total energy  :   -42.1387980 Eh     change       -0.8953360E-04 Eh
   *** GEOMETRY OPTIMIZATION CONVERGED AFTER 15 ITERATIONS ***

 final structure:
================
25
 xtb: 6.6.1 (8d0f1dd)
C            3.47784085085253        1.04532675009202        0.00469799846269
N            2.43436491942141        0.05653095242801       -0.03132612856661
C            2.57546089792877       -1.26346612514573       -0.08722791177543
N            1.36415090818360       -1.83815053962556       -0.07639947117828
C            0.38745256848172       -0.85818807148988       -0.03258828368809
C            1.08636941151504        0.36528984320483        0.01073846065186
C           -0.54470892598900        2.07412040535606        0.18157412457641
O            0.73260518803538        1.64287548516482        0.08120777807880
N           -1.57824288838780        1.23910249928926        0.14998822897517
C           -3.01152612355605        1.36390237915873       -0.07006521344641
C           -1.78949887977352       -0.08829195889836        0.37484032152454
O           -3.15470592721724       -0.04134733478837        0.03314007574553
N           -0.93786737918938       -1.11008404287765        0.01322492212728
C           -1.46367247644528       -2.46071805630819       -0.01746002866106
H            3.63974042158853        1.38621587729908        1.02927361714333
H            4.40138566143820        0.62137647219324       -0.38411843088268
H            3.18015801792984        1.90149756330737       -0.60051462912756
H            3.50738058829732       -1.78688337776718       -0.14812212586432
H           -0.66652476277892        3.13761294366749        0.17507929931212
H           -3.26740577394008        1.73535756991254       -1.06584241361732
H           -3.55638101111039        1.90890339314638        0.70627274578463
H           -1.15232711310858       -3.03310838803682        0.85921939635857
H           -1.13961360761294       -2.96372738465638       -0.92862426143028
H           -2.54891133737733       -2.38724597977647       -0.02355914885673
H            1.18490828691316       -2.82866233324933       -0.12223730374399

          :  Hamiltonian                  GFN2-xTB          :
         :: total energy             -42.138798032764 Eh    ::
         :: gradient norm              0.005826730919 Eh/a0 ::
         :: HOMO-LUMO gap              1.614457811791 eV    ::
         :: SCC energy               -42.618576460408 Eh    ::
         :: -> dispersion             -0.022305987072 Eh    ::
         :: repulsion energy           0.479682914917 Eh    ::

    * Orbital Energies and Occupations

         #    Occupation            Energy/Eh            Energy/eV
      -------------------------------------------------------------
         1        2.0000           -0.8914622             -24.2579
       ...           ...                  ...                  ...
        25        2.0000           -0.6645585             -18.0836
        26        2.0000           -0.6562757             -17.8582
        27        2.0000           -0.6494275             -17.6718
        28        2.0000           -0.6337227             -17.2445
        29        2.0000           -0.6248020             -17.0017
        30        2.0000           -0.6208885             -16.8952
        31        2.0000           -0.6129395             -16.6789
        32        2.0000           -0.6101189             -16.6022
        33        2.0000           -0.6055121             -16.4768
        34        2.0000           -0.5945661             -16.1790
        35        2.0000           -0.5815248             -15.8241
        36        2.0000           -0.5154827             -14.0270
        37        1.9539           -0.4530814             -12.3290 (HOMO)
        38        0.0460           -0.3937511             -10.7145 (LUMO)
        39        0.0001           -0.3460710              -9.4171
        40        0.0000           -0.3155973              -8.5878
        41                         -0.2033566              -5.5336
        42                         -0.1756522              -4.7797
        43                         -0.1698037              -4.6206
        44                         -0.1206385              -3.2827
        45                         -0.1068657              -2.9080
        46                         -0.0949512              -2.5838
        47                         -0.0536241              -1.4592
        48                         -0.0424181              -1.1543
       ...                                ...                  ...
        67                          0.4961748              13.5016
      -------------------------------------------------------------
                  HL-Gap            0.0593302 Eh            1.6145 eV

     #   Z          covCN         q      C6AA      α(0)
     1   6 C        3.692    -0.081    22.232     6.747
     2   7 N        2.832     0.038    20.577     6.737
     3   6 C        2.997     0.041    27.068     8.534
     4   7 N        2.797    -0.077    22.724     7.080
     5   6 C        3.003     0.049    26.896     8.507
     6   6 C        2.966     0.123    25.296     8.250
     7   6 C        2.720     0.055    26.740     8.465
     8   8 O        1.709    -0.174    16.931     5.556
     9   7 N        2.794    -0.048    22.170     6.993
    10   6 C        4.200     0.142    18.215     6.061
    11   6 C        3.312     0.137    23.219     7.689
    12   8 O        1.765    -0.283    18.688     5.837
    13   7 N        2.731    -0.039    21.988     6.964
    14   6 C        3.701    -0.067    21.953     6.700
    15   1 H        0.924     0.104     1.753     2.070
    16   1 H        0.925     0.099     1.798     2.097
    17   1 H        0.925     0.109     1.704     2.041
    18   1 H        0.926     0.113     1.667     2.019
    19   1 H        0.926     0.089     1.889     2.149
    20   1 H        0.924     0.094     1.843     2.123
    21   1 H        0.924     0.092     1.860     2.133
    22   1 H        0.924     0.073     2.057     2.243
    23   1 H        0.925     0.078     2.002     2.213
    24   1 H        0.925     0.111     1.690     2.033
    25   1 H        0.860     0.223     0.996     1.564

Wiberg/Mayer (AO) data.
largest (>0.10) Wiberg bond orders for each atom

     #   Z sym  total        # sym  WBO       # sym  WBO       # sym  WBO
 ---------------------------------------------------------------------------
     1   6 C    3.932 --     2 N    0.988    16 H    0.974    17 H    0.967
                            15 H    0.960
     2   7 N    3.660 --     3 C    1.353     6 C    1.128     1 C    0.988
     3   6 C    3.891 --     2 N    1.353     4 N    1.302    18 H    0.955
     4   7 N    3.570 --     3 C    1.302     5 C    1.126    25 H    0.921
     5   6 C    3.904 --     6 C    1.262    13 N    1.188     4 N    1.126
     6   6 C    3.871 --     5 C    1.262     2 N    1.128     8 O    1.113
     7   6 C    3.775 --     9 N    1.265     8 O    1.050    19 H    0.953
                            11 C    0.257
     8   8 O    2.424 --     6 C    1.113     7 C    1.050
     9   7 N    3.596 --     7 C    1.265    11 C    1.157    10 C    0.963
    10   6 C    3.918 --    12 O    0.981     9 N    0.963    21 H    0.957
                            20 H    0.954
    11   6 C    3.679 --     9 N    1.157    13 N    1.089    12 O    0.959
                             7 C    0.257
    12   8 O    2.103 --    10 C    0.981    11 C    0.959
    13   7 N    3.537 --     5 C    1.188    11 C    1.089    14 C    0.977
    14   6 C    3.942 --    13 N    0.977    23 H    0.974    22 H    0.973
                            24 H    0.972
    15   1 H    0.987 --     1 C    0.960
    16   1 H    0.990 --     1 C    0.974
    17   1 H    0.987 --     1 C    0.967
    18   1 H    0.986 --     3 C    0.955
    19   1 H    0.991 --     7 C    0.953
    20   1 H    0.990 --    10 C    0.954
    21   1 H    0.990 --    10 C    0.957
    22   1 H    0.994 --    14 C    0.973
    23   1 H    0.994 --    14 C    0.974
    24   1 H    0.987 --    14 C    0.972
    25   1 H    0.950 --     4 N    0.921
 ---------------------------------------------------------------------------

molecular dipole:
                 x           y           z       tot (Debye)
 q only:        1.723      -0.640      -0.096
   full:        1.759      -0.735      -0.199       4.872

           -------------------------------------------------
          | TOTAL ENERGY              -42.138798032764 Eh   |
          | GRADIENT NORM               0.005826730919 Eh/α |
          | HOMO-LUMO GAP               1.614457811791 eV   |
           -------------------------------------------------

 * finished run on 2024/06/05 at 19:58:15.133
