   * xtb version 6.6.1 (8d0f1dd) compiled by 'conda@1efc2f54142f' on 2023-08-01
          program call               : xtb struc.xyz --opt loose --input .xc1 --gfn2

   ID    Z sym.   atoms
    1    6 C      1, 3, 5-7, 10, 11, 14
    2    7 N      2, 4, 9, 13
    3    8 O      8, 12
    4    1 H      15-25
constraining bond 8 10 to    5.7600000 Å, actual value:    2.7438924 Å

          :  Hamiltonian                  GFN2-xTB          :
 * total energy  :   -26.0050426 Eh     change       -0.6650680E-10 Eh
 * total energy  :   -31.4943743 Eh     change       -0.5489332E+01 Eh
 * total energy  :   -36.0486021 Eh     change       -0.4554228E+01 Eh
 * total energy  :   -39.1502509 Eh     change       -0.3101649E+01 Eh
 * total energy  :   -40.9225833 Eh     change       -0.1772332E+01 Eh
 * total energy  :   -41.5773684 Eh     change       -0.6547851E+00 Eh
 * total energy  :   -41.6601182 Eh     change       -0.8274990E-01 Eh
 * total energy  :   -41.6706159 Eh     change       -0.1049768E-01 Eh
 * total energy  :   -41.6907560 Eh     change       -0.2014008E-01 Eh
 * total energy  :   -41.7051669 Eh     change       -0.1441089E-01 Eh
 * total energy  :   -42.1426680 Eh     change       -0.1263273E-02 Eh
 * total energy  :   -42.1438805 Eh     change       -0.1212439E-02 Eh
 * total energy  :   -42.1445725 Eh     change       -0.6920073E-03 Eh
 * total energy  :   -42.1453960 Eh     change       -0.8235293E-03 Eh
 * total energy  :   -42.1456458 Eh     change       -0.2497892E-03 Eh
 * total energy  :   -42.1458200 Eh     change       -0.1742212E-03 Eh
 * total energy  :   -42.1459436 Eh     change       -0.1235261E-03 Eh
 * total energy  :   -42.1460084 Eh     change       -0.6482326E-04 Eh
 * total energy  :   -42.1460400 Eh     change       -0.3162094E-04 Eh
   *** GEOMETRY OPTIMIZATION CONVERGED AFTER 52 ITERATIONS ***

 final structure:
================
25
 xtb: 6.6.1 (8d0f1dd)
C            3.91537589774396        0.45573717943159        0.16212429975601
N            2.77622647463760       -0.22967099071779        0.06210592851235
C            2.67081188040954       -1.57455719724134       -0.03078823694190
N            1.34941075567366       -1.94242244089607       -0.08911186262701
C            0.60277083718571       -0.82832180293562       -0.03809329729556
C            1.46675142183574        0.27510665764045        0.02534356860256
C            0.90733250353920        1.56828937874592       -0.04188217424862
O            1.71146979956013        2.64808932434519       -0.13207612459804
N           -0.45699160165529        1.65238760670855       -0.02511770437208
C           -3.84675723595893        1.22060838357336        0.09631978977621
C           -1.26402745645521        0.61741690101372       -0.00402618951714
O           -2.57738983600395        0.49016376309963        0.02864871891686
N           -0.74580471283845       -0.70207336108716       -0.04718134590581
C           -1.54628663864600       -1.91183028379064       -0.07126544218496
H            3.92910830328834        1.48083727558054        0.47389753057699
H            4.83249042378498       -0.09682603572019        0.15759155933997
H            2.60409530150663        2.39965455636246       -0.40492991986143
H            3.49243849149011       -2.25587770112985       -0.04232384226334
H           -3.69619771895909        2.29803116434774        0.06806193414899
H           -4.42038088420024        0.88777212896042       -0.76447044378511
H           -4.31981043266096        0.91653705633855        1.02854076910240
H           -1.28103088609541       -2.54412556995554        0.77754953035865
H           -1.37491595289527       -2.45335840591339       -1.00310038242884
H           -2.59820809204920       -1.65789306901704       -0.00215480176073
H            1.02995087186232       -2.89543597614296       -0.15249024339981

          :  Hamiltonian                  GFN2-xTB          :
         :: total energy             -42.146039999089 Eh    ::
         :: gradient norm              0.002922941681 Eh/a0 ::
         :: HOMO-LUMO gap              1.425301660275 eV    ::
         :: SCC energy               -42.647263573396 Eh    ::
         :: -> dispersion             -0.022156764130 Eh    ::
         :: repulsion energy           0.500690847458 Eh    ::

    * Orbital Energies and Occupations

         #    Occupation            Energy/Eh            Energy/eV
      -------------------------------------------------------------
         1        2.0000           -0.8847555             -24.0754
       ...           ...                  ...                  ...
        25        2.0000           -0.6632170             -18.0471
        26        2.0000           -0.6555947             -17.8396
        27        2.0000           -0.6505628             -17.7027
        28        2.0000           -0.6393176             -17.3967
        29        2.0000           -0.6314715             -17.1832
        30        2.0000           -0.6259695             -17.0335
        31        1.9999           -0.6059693             -16.4893
        32        1.9998           -0.5999548             -16.3256
        33        1.9998           -0.5935375             -16.1510
        34        1.9994           -0.5786383             -15.7455
        35        1.9973           -0.5550615             -15.1040
        36        1.9943           -0.5434395             -14.7877
        37        1.6659           -0.4761398             -12.9564 (HOMO)
        38        0.3086           -0.4237609             -11.5311 (LUMO)
        39        0.0298           -0.3843202             -10.4579
        40        0.0053           -0.3568379              -9.7101
        41        0.0000           -0.2799359              -7.6174
        42        0.0000           -0.2412683              -6.5652
        43                         -0.1656952              -4.5088
        44                         -0.1564028              -4.2559
        45                         -0.1399366              -3.8079
        46                         -0.1238532              -3.3702
        47                         -0.0516807              -1.4063
        48                         -0.0309086              -0.8411
       ...                                ...                  ...
        67                          0.4921321              13.3916
      -------------------------------------------------------------
                  HL-Gap            0.0523789 Eh            1.4253 eV

     #   Z          covCN         q      C6AA      α(0)
     1   6 C        2.789    -0.124    31.142     9.141
     2   7 N        2.798     0.100    19.521     6.562
     3   6 C        3.042    -0.004    28.089     8.693
     4   7 N        2.769    -0.071    22.610     7.062
     5   6 C        3.041     0.110    25.540     8.289
     6   6 C        3.084    -0.034    28.751     8.790
     7   6 C        2.781     0.230    23.174     7.885
     8   8 O        1.659    -0.323    19.421     5.949
     9   7 N        1.834    -0.251    27.377     7.754
    10   6 C        3.617     0.012    20.854     6.588
    11   6 C        2.727     0.296    21.978     7.675
    12   8 O        1.705    -0.224    17.714     5.683
    13   7 N        2.743    -0.051    22.226     7.002
    14   6 C        3.698    -0.074    22.088     6.722
    15   1 H        0.926     0.076     2.022     2.224
    16   1 H        0.926     0.079     1.984     2.203
    17   1 H        0.805     0.346     0.599     1.215
    18   1 H        0.927     0.101     1.778     2.085
    19   1 H        0.925     0.098     1.807     2.102
    20   1 H        0.925     0.108     1.717     2.049
    21   1 H        0.925     0.107     1.727     2.055
    22   1 H        0.924     0.083     1.944     2.180
    23   1 H        0.924     0.084     1.935     2.175
    24   1 H        0.925     0.113     1.669     2.020
    25   1 H        0.860     0.214     1.037     1.595

Wiberg/Mayer (AO) data.
largest (>0.10) Wiberg bond orders for each atom

     #   Z sym  total        # sym  WBO       # sym  WBO       # sym  WBO
 ---------------------------------------------------------------------------
     1   6 C    3.553 --     2 N    1.309    16 H    0.971    15 H    0.960
                             3 C    0.170
     2   7 N    3.728 --     1 C    1.309     3 C    1.247     6 C    1.073
     3   6 C    3.690 --     2 N    1.247     4 N    1.172    18 H    0.960
                             1 C    0.170
     4   7 N    3.551 --     5 C    1.254     3 C    1.172    25 H    0.925
     5   6 C    3.890 --     6 C    1.265     4 N    1.254    13 N    1.179
     6   6 C    3.892 --     5 C    1.265     7 C    1.255     2 N    1.073
     7   6 C    3.777 --     9 N    1.257     6 C    1.255     8 O    1.158
     8   8 O    2.177 --     7 C    1.158    17 H    0.842
     9   7 N    3.052 --    11 C    1.444     7 C    1.257    12 O    0.109
    10   6 C    3.864 --    19 H    0.979    20 H    0.968    21 H    0.968
                            12 O    0.901
    11   6 C    3.851 --     9 N    1.444    12 O    1.202    13 N    1.067
    12   8 O    2.336 --    11 C    1.202    10 C    0.901     9 N    0.109
    13   7 N    3.501 --     5 C    1.179    11 C    1.067    14 C    0.979
    14   6 C    3.935 --    13 N    0.979    22 H    0.969    24 H    0.969
                            23 H    0.968
    15   1 H    0.994 --     1 C    0.960
    16   1 H    0.992 --     1 C    0.971
    17   1 H    0.879 --     8 O    0.842
    18   1 H    0.989 --     3 C    0.960
    19   1 H    0.990 --    10 C    0.979
    20   1 H    0.985 --    10 C    0.968
    21   1 H    0.985 --    10 C    0.968
    22   1 H    0.988 --    14 C    0.969
    23   1 H    0.988 --    14 C    0.968
    24   1 H    0.987 --    14 C    0.969
    25   1 H    0.954 --     4 N    0.925
 ---------------------------------------------------------------------------

molecular dipole:
                 x           y           z       tot (Debye)
 q only:        0.229      -1.482      -0.163
   full:        0.492      -1.982      -0.167       5.209

           -------------------------------------------------
          | TOTAL ENERGY              -42.146039999089 Eh   |
          | GRADIENT NORM               0.002922941681 Eh/α |
          | HOMO-LUMO GAP               1.425301660275 eV   |
           -------------------------------------------------

 * finished run on 2024/06/05 at 19:58:03.404
