   * xtb version 6.6.1 (8d0f1dd) compiled by 'conda@1efc2f54142f' on 2023-08-01
          program call               : xtb xtbopt.xyz --opt crude --input .xc2 --gfn2

   ID    Z sym.   atoms
    1    6 C      1, 3, 5-7, 10, 11, 14
    2    7 N      2, 4, 9, 13
    3    8 O      8, 12
    4    1 H      15-25
########################################################################
[WARNING] Please study the warnings concerning your input carefully
-1- readin_getIntValue: could not parse ''
########################################################################

          :  Hamiltonian                  GFN2-xTB          :
 * total energy  :   -42.0794562 Eh     change       -0.2110312E-11 Eh
   *** GEOMETRY OPTIMIZATION CONVERGED AFTER 1 ITERATIONS ***

 final structure:
================
25
 xtb: 6.6.1 (8d0f1dd)
C            3.07838374550019        0.99499381173332        0.74838403281447
N            2.44759227531996        0.22152213918922       -0.29502693807337
C            3.06222990623304       -0.16566064820118       -1.32030620538386
N            1.23969321263242       -2.28100404319554        0.21563251274407
C            0.47407338958973       -1.26662588439401        0.05786614261131
C            1.03177178869258        0.02629498015423       -0.17305793129349
C            0.22128510646801        1.21279712862458       -0.28060490480557
O            0.68247675088322        2.32981404331800       -0.43165968455327
N           -1.14727984913300        0.99895216216752       -0.19854240882556
C           -2.03612649571154        2.13279114856442       -0.33523900554379
C           -1.75122094209970       -0.23354046607463       -0.01270446418751
O           -2.95019490715476       -0.33781683424956        0.02728118659366
N           -0.91374423485127       -1.32795634980623        0.13549901932334
C           -1.54799168126780       -2.61028701649958        0.37908996693535
H            2.82533096881184        0.57498059328057        1.72168435052621
H            4.15805498362373        0.99037521495469        0.60353695813769
H            2.70962620866199        2.02376370779060        0.69803589154666
H            2.68243648887358       -0.72740214697250       -2.15407088317204
H           -1.43606174686332        3.04028954708290       -0.37304881980761
H           -2.62770180302274        2.03695401758032       -1.24836084850075
H           -2.72949919368644        2.16157941770828        0.50698655347161
H           -1.27141095442676       -2.99490388591171        1.36342225542182
H           -1.26406998251329       -3.33035831576026       -0.39178121988074
H           -2.62719938701281       -2.46275230354260        0.34813848825230
H            0.84997786655020       -3.18856147593741        0.44001757355106

          :  Hamiltonian                  GFN2-xTB          :
         :: total energy             -42.079456246689 Eh    ::
         :: gradient norm              0.007176926947 Eh/a0 ::
         :: HOMO-LUMO gap              0.519976986310 eV    ::
         :: SCC energy               -42.595984588767 Eh    ::
         :: -> dispersion             -0.022569971007 Eh    ::
         :: repulsion energy           0.516327929559 Eh    ::

    * Orbital Energies and Occupations

         #    Occupation            Energy/Eh            Energy/eV
      -------------------------------------------------------------
         1        2.0000           -0.8969415             -24.4070
       ...           ...                  ...                  ...
        25        1.9992           -0.6663631             -18.1327
        26        1.9983           -0.6547249             -17.8160
        27        1.9981           -0.6528641             -17.7653
        28        1.9964           -0.6425862             -17.4857
        29        1.9939           -0.6344681             -17.2648
        30        1.9928           -0.6317079             -17.1896
        31        1.9878           -0.6234140             -16.9640
        32        1.9541           -0.6020947             -16.3838
        33        1.9040           -0.5900132             -16.0551
        34        1.8953           -0.5885646             -16.0157
        35        1.8407           -0.5814644             -15.8225
        36        1.7764           -0.5755312             -15.6610
        37        1.5871           -0.5640367             -15.3482 (HOMO)
        38        1.0698           -0.5449279             -14.8282 (LUMO)
        39        0.0064           -0.4519162             -12.2973
        40        0.0004           -0.4072092             -11.0807
        41        0.0002           -0.3970849             -10.8052
        42        0.0000           -0.3092803              -8.4159
        43                         -0.2192736              -5.9667
        44                         -0.1667449              -4.5374
        45                         -0.1405533              -3.8247
        46                         -0.1005363              -2.7357
        47                         -0.0908123              -2.4711
        48                         -0.0509556              -1.3866
       ...                                ...                  ...
        67                          0.5113399              13.9143
      -------------------------------------------------------------
                  HL-Gap            0.0191088 Eh            0.5200 eV

     #   Z          covCN         q      C6AA      α(0)
     1   6 C        3.714    -0.097    22.481     6.775
     2   7 N        2.731     0.171    18.389     6.369
     3   6 C        1.895    -0.012    31.427     9.054
     4   7 N        1.788    -0.277    28.014     7.839
     5   6 C        2.820     0.167    24.394     8.093
     6   6 C        2.940    -0.023    28.577     8.767
     7   6 C        2.768     0.267    22.502     7.769
     8   8 O        0.859    -0.350    20.714     6.102
     9   7 N        2.742    -0.062    22.434     7.035
    10   6 C        3.706    -0.062    21.835     6.680
    11   6 C        2.718     0.322    21.534     7.596
    12   8 O        0.860    -0.334    20.399     6.056
    13   7 N        2.744    -0.066    22.517     7.048
    14   6 C        3.702    -0.065    21.907     6.693
    15   1 H        0.925     0.114     1.666     2.019
    16   1 H        0.925     0.127     1.554     1.950
    17   1 H        0.924     0.142     1.449     1.882
    18   1 H        0.926     0.145     1.425     1.866
    19   1 H        0.925     0.125     1.575     1.962
    20   1 H        0.924     0.119     1.622     1.992
    21   1 H        0.924     0.120     1.613     1.986
    22   1 H        0.924     0.099     1.795     2.095
    23   1 H        0.924     0.098     1.806     2.102
    24   1 H        0.925     0.127     1.557     1.951
    25   1 H        0.860     0.205     1.079     1.627

Wiberg/Mayer (AO) data.
largest (>0.10) Wiberg bond orders for each atom

     #   Z sym  total        # sym  WBO       # sym  WBO       # sym  WBO
 ---------------------------------------------------------------------------
     1   6 C    3.877 --     2 N    0.965    16 H    0.962    15 H    0.956
                            17 H    0.930
     2   7 N    3.753 --     3 C    1.793     1 C    0.965     6 C    0.961
     3   6 C    2.920 --     2 N    1.793    18 H    0.920
     4   7 N    2.687 --     5 C    1.592    25 H    0.916
     5   6 C    3.957 --     4 N    1.592     6 C    1.181    13 N    1.090
     6   6 C    3.494 --     5 C    1.181     7 C    1.121     2 N    0.961
     7   6 C    3.939 --     8 O    1.623     6 C    1.121     9 N    1.096
     8   8 O    1.885 --     7 C    1.623     9 N    0.114
     9   7 N    3.461 --    11 C    1.098     7 C    1.096    10 C    0.984
                             8 O    0.114    12 O    0.106
    10   6 C    3.858 --     9 N    0.984    19 H    0.958    21 H    0.940
                            20 H    0.934
    11   6 C    3.954 --    12 O    1.671    13 N    1.101     9 N    1.098
    12   8 O    1.972 --    11 C    1.671    13 N    0.114     9 N    0.106
    13   7 N    3.446 --    11 C    1.101     5 C    1.090    14 C    0.983
                            12 O    0.114
    14   6 C    3.891 --    13 N    0.983    24 H    0.957    23 H    0.954
                            22 H    0.951
    15   1 H    0.983 --     1 C    0.956
    16   1 H    0.977 --     1 C    0.962
    17   1 H    0.973 --     1 C    0.930
    18   1 H    0.944 --     3 C    0.920
    19   1 H    0.976 --    10 C    0.958
    20   1 H    0.951 --    10 C    0.934
    21   1 H    0.956 --    10 C    0.940
    22   1 H    0.968 --    14 C    0.951
    23   1 H    0.971 --    14 C    0.954
    24   1 H    0.978 --    14 C    0.957
    25   1 H    0.946 --     4 N    0.916
 ---------------------------------------------------------------------------

molecular dipole:
                 x           y           z       tot (Debye)
 q only:        1.494      -0.686       0.123
   full:        1.161      -1.000       0.063       3.898

           -------------------------------------------------
          | TOTAL ENERGY              -42.079456246689 Eh   |
          | GRADIENT NORM               0.007176926947 Eh/α |
          | HOMO-LUMO GAP               0.519976986310 eV   |
           -------------------------------------------------

 * finished run on 2024/06/05 at 19:59:10.382
