   * xtb version 6.6.1 (8d0f1dd) compiled by 'conda@1efc2f54142f' on 2023-08-01
          program call               : xtb xtbopt.xyz --opt crude --input .xc2 --gfn2

   ID    Z sym.   atoms
    1    6 C      1, 3, 5-7, 10, 11, 14
    2    7 N      2, 4, 9, 13
    3    8 O      8, 12
    4    1 H      15-25
########################################################################
[WARNING] Please study the warnings concerning your input carefully
-1- readin_getIntValue: could not parse ''
########################################################################

          :  Hamiltonian                  GFN2-xTB          :
 * total energy  :   -40.4329253 Eh     change        0.1421085E-13 Eh
 * total energy  :   -42.1321553 Eh     change       -0.1699230E+01 Eh
 * total energy  :   -42.1579521 Eh     change       -0.2579689E-01 Eh
 * total energy  :   -42.1635819 Eh     change       -0.5629779E-02 Eh
 * total energy  :   -42.1670374 Eh     change       -0.3455480E-02 Eh
 * total energy  :   -42.1675336 Eh     change       -0.4962011E-03 Eh
 * total energy  :   -42.1681983 Eh     change       -0.6646500E-03 Eh
 * total energy  :   -42.1687296 Eh     change       -0.5313640E-03 Eh
 * total energy  :   -42.1691259 Eh     change       -0.3962593E-03 Eh
 * total energy  :   -42.1692480 Eh     change       -0.1221233E-03 Eh
   *** GEOMETRY OPTIMIZATION CONVERGED AFTER 10 ITERATIONS ***

 final structure:
================
25
 xtb: 6.6.1 (8d0f1dd)
C            2.83192579742552        1.18148818312179       -0.51735014696179
N            2.10682887176919       -0.01212941858488       -0.17591388908727
C            2.61661476136078       -1.23137888458283       -0.11758964309137
N            1.65283979332356       -2.09928302109094        0.21819497203323
C            0.47359422003998       -1.41183025429279        0.39465174113898
C            0.76915509567548       -0.07493517418579        0.12818559287778
C           -0.05664165668033        1.13671430696734        0.30699046166350
O            0.42188754144136        2.13835336864817        0.79101752748968
N           -1.39275547733392        1.06193004971821       -0.05686945764079
C           -2.27723675154439        2.11235680059825        0.42822418921448
C           -1.86653044510817        0.18408780126616       -0.99781443449972
O           -1.21362124376960       -0.64918294892457       -1.57086117415936
N           -0.66154402407372       -1.92095142951438        0.89365080094925
C           -1.23296430087807       -3.01368716552430        0.61584261838491
H            2.64751156561712        1.94949861412938        0.23486641569553
H            3.89496537794111        0.95993758529587       -0.57043578386641
H            2.49433845974314        1.56359832176490       -1.48180611086427
H            3.64155387336184       -1.48791493345325       -0.30482364420563
H           -1.74089956756728        2.69545735888660        1.17329851902156
H           -2.57838727128027        2.77301297327638       -0.38453597790282
H           -3.16107421365515        1.66481362223968        0.87998476937745
H           -2.10577371324603       -3.27763043402840        1.19312513106379
H           -0.94400597960415       -3.67093998671966       -0.20233681176661
H           -2.93565264161858        0.33996256943799       -1.20026774713588
H            1.77630344275952       -3.09310936284304        0.35374370017296

          :  Hamiltonian                  GFN2-xTB          :
         :: total energy             -42.169248002660 Eh    ::
         :: gradient norm              0.005430841205 Eh/a0 ::
         :: HOMO-LUMO gap              2.635014501835 eV    ::
         :: SCC energy               -42.711536060042 Eh    ::
         :: -> dispersion             -0.022920560273 Eh    ::
         :: repulsion energy           0.542075925762 Eh    ::

    * Orbital Energies and Occupations

         #    Occupation            Energy/Eh            Energy/eV
      -------------------------------------------------------------
         1        2.0000           -0.9015346             -24.5320
       ...           ...                  ...                  ...
        25        2.0000           -0.6694387             -18.2164
        26        2.0000           -0.6594938             -17.9457
        27        1.9999           -0.6489943             -17.6600
        28        1.9999           -0.6409421             -17.4409
        29        1.9998           -0.6345286             -17.2664
        30        1.9998           -0.6316254             -17.1874
        31        1.9991           -0.6099172             -16.5967
        32        1.9988           -0.6066352             -16.5074
        33        1.9975           -0.5948308             -16.1862
        34        1.9881           -0.5697292             -15.5031
        35        1.9787           -0.5604454             -15.2505
        36        1.9613           -0.5508382             -14.9891
        37        1.9262           -0.5403377             -14.7033 (HOMO)
        38        0.1090           -0.4435027             -12.0683 (LUMO)
        39        0.0353           -0.4250665             -11.5666
        40        0.0062           -0.3971682             -10.8075
        41        0.0005           -0.3570228              -9.7151
        42        0.0000           -0.3178038              -8.6479
        43                         -0.1789208              -4.8687
        44                         -0.1661035              -4.5199
        45                         -0.1199932              -3.2652
        46                         -0.0562958              -1.5319
        47                         -0.0446062              -1.2138
        48                         -0.0345642              -0.9405
       ...                                ...                  ...
        67                          0.4898553              13.3296
      -------------------------------------------------------------
                  HL-Gap            0.0968350 Eh            2.6350 eV

     #   Z          covCN         q      C6AA      α(0)
     1   6 C        3.693    -0.092    22.443     6.778
     2   7 N        2.846     0.090    19.682     6.589
     3   6 C        3.033     0.060    26.632     8.465
     4   7 N        2.808    -0.055    22.311     7.015
     5   6 C        3.019     0.142    24.893     8.184
     6   6 C        3.097     0.004    27.807     8.642
     7   6 C        2.768     0.285    22.177     7.712
     8   8 O        0.859    -0.353    20.761     6.109
     9   7 N        2.732    -0.061    22.422     7.033
    10   6 C        3.703    -0.072    22.030     6.711
    11   6 C        2.711     0.248    22.835     7.822
    12   8 O        0.857    -0.360    20.898     6.129
    13   7 N        1.825    -0.130    24.603     7.350
    14   6 C        2.792     0.040    27.077     8.524
    15   1 H        0.924     0.135     1.500     1.915
    16   1 H        0.925     0.101     1.772     2.082
    17   1 H        0.924     0.111     1.692     2.034
    18   1 H        0.926     0.124     1.578     1.965
    19   1 H        0.925     0.114     1.666     2.019
    20   1 H        0.925     0.090     1.875     2.141
    21   1 H        0.925     0.088     1.895     2.153
    22   1 H        0.926     0.116     1.650     2.009
    23   1 H        0.925     0.080     1.975     2.198
    24   1 H        0.923     0.068     2.109     2.271
    25   1 H        0.860     0.227     0.978     1.549

Wiberg/Mayer (AO) data.
largest (>0.10) Wiberg bond orders for each atom

     #   Z sym  total        # sym  WBO       # sym  WBO       # sym  WBO
 ---------------------------------------------------------------------------
     1   6 C    3.919 --     2 N    0.987    16 H    0.974    17 H    0.956
                            15 H    0.951
     2   7 N    3.714 --     3 C    1.393     6 C    1.185     1 C    0.987
     3   6 C    3.905 --     2 N    1.393     4 N    1.311    18 H    0.950
     4   7 N    3.604 --     3 C    1.311     5 C    1.160    25 H    0.920
     5   6 C    3.929 --     6 C    1.365    13 N    1.224     4 N    1.160
     6   6 C    3.894 --     5 C    1.365     2 N    1.185     7 C    1.015
     7   6 C    3.935 --     8 O    1.714     9 N    1.114     6 C    1.015
     8   8 O    2.035 --     7 C    1.714     9 N    0.128
     9   7 N    3.570 --    11 C    1.170     7 C    1.114    10 C    0.973
                            12 O    0.147     8 O    0.128
    10   6 C    3.924 --     9 N    0.973    19 H    0.970    21 H    0.970
                            20 H    0.969
    11   6 C    3.919 --    12 O    1.778     9 N    1.170    24 H    0.916
    12   8 O    2.038 --    11 C    1.778     9 N    0.147
    13   7 N    3.203 --    14 C    1.821     5 C    1.224
    14   6 C    3.836 --    13 N    1.821    22 H    0.956    23 H    0.947
    15   1 H    0.981 --     1 C    0.951
    16   1 H    0.989 --     1 C    0.974
    17   1 H    0.986 --     1 C    0.956
    18   1 H    0.984 --     3 C    0.950
    19   1 H    0.986 --    10 C    0.970
    20   1 H    0.987 --    10 C    0.969
    21   1 H    0.988 --    10 C    0.970
    22   1 H    0.981 --    14 C    0.956
    23   1 H    0.981 --    14 C    0.947
    24   1 H    0.982 --    11 C    0.916
    25   1 H    0.948 --     4 N    0.920
 ---------------------------------------------------------------------------

molecular dipole:
                 x           y           z       tot (Debye)
 q only:        1.536      -1.526       0.275
   full:        1.554      -2.006       0.063       6.453

           -------------------------------------------------
          | TOTAL ENERGY              -42.169248002660 Eh   |
          | GRADIENT NORM               0.005430841205 Eh/α |
          | HOMO-LUMO GAP               2.635014501835 eV   |
           -------------------------------------------------

 * finished run on 2024/06/05 at 20:00:26.198
