   * xtb version 6.6.1 (8d0f1dd) compiled by 'conda@1efc2f54142f' on 2023-08-01
          program call               : xtb struc.xyz --opt loose --input .xc1 --gfn2

   ID    Z sym.   atoms
    1    7 N      1, 17
    2    6 C      2-6, 8, 9, 11-16, 18-23, 25, 26, 28-33
    3    8 O      7, 10, 24, 27
    4    1 H      34-72
constraining bond 17 30 to    3.9200000 Å, actual value:    1.4456242 Å

          :  Hamiltonian                  GFN2-xTB          :
 * total energy  :   -98.3109325 Eh     change       -0.4035485E-08 Eh
 * total energy  :   -98.5063403 Eh     change       -0.1954078E+00 Eh
 * total energy  :   -98.7328140 Eh     change       -0.2264736E+00 Eh
 * total energy  :   -98.9828131 Eh     change       -0.2499992E+00 Eh
 * total energy  :   -99.1173974 Eh     change       -0.1345843E+00 Eh
 * total energy  :   -99.1848852 Eh     change       -0.6748777E-01 Eh
 * total energy  :   -99.2247138 Eh     change       -0.3982859E-01 Eh
 * total energy  :   -99.2461664 Eh     change       -0.2145263E-01 Eh
 * total energy  :   -99.2625746 Eh     change       -0.1640825E-01 Eh
 * total energy  :   -99.2748834 Eh     change       -0.1230875E-01 Eh
 * total energy  :   -99.3639211 Eh     change       -0.1644373E-03 Eh
 * total energy  :   -99.3640607 Eh     change       -0.1395523E-03 Eh
 * total energy  :   -99.3641746 Eh     change       -0.1139455E-03 Eh
 * total energy  :   -99.3642709 Eh     change       -0.9621940E-04 Eh
 * total energy  :   -99.3643670 Eh     change       -0.9609823E-04 Eh
 * total energy  :   -99.3644729 Eh     change       -0.1059583E-03 Eh
 * total energy  :   -99.3645775 Eh     change       -0.1045417E-03 Eh
 * total energy  :   -99.3646335 Eh     change       -0.5600702E-04 Eh
 * total energy  :   -99.3646802 Eh     change       -0.4674008E-04 Eh
   *** GEOMETRY OPTIMIZATION CONVERGED AFTER 84 ITERATIONS ***

 final structure:
================
72
 xtb: 6.6.1 (8d0f1dd)
N           -1.97040207320219        3.34873498295843        2.22343062459611
C           -1.85017423827639        2.49228228581453        1.32139150438451
C           -2.94744390098613        2.14050473056170        0.34885457645979
C           -3.16412190285108        0.64970076245142        0.35742606168476
C           -3.88335310974530        0.03558660125988       -0.67530824925522
C           -4.01570961660063       -1.32911361434678       -0.75548053465707
O           -4.69364861096494       -1.99430081583550       -1.67701262963163
C           -5.43354069602788       -1.29459806544274       -2.65787197102850
C           -3.27615123288482       -2.23968925039913        0.20164935156648
O           -4.15348689758522       -3.32508180241879        0.45473410427051
C           -3.78805684329898       -4.26848685009832        1.43331751638850
C           -2.80812193236081       -1.49684200038729        1.41256810157971
C           -2.70328805252619       -0.14965476817856        1.42974872139145
C           -2.43768854761347        2.61428600864164       -1.04412779867255
C           -1.45436418550282        1.67599421596976       -1.75661089465486
C           -0.13054296557637        1.53812204684512       -1.09032195211355
N            0.35741200647061        0.41142883566678       -0.82111514920819
C            1.67537158908380        0.28436982565538       -0.28384337085624
C            2.63024629130914       -0.23646386426617       -1.37796503296781
C            4.05799079049183       -0.11907619507322       -0.93446040675896
C            4.77186895597625        1.04781546988163       -1.18165357336380
C            6.08745121187351        1.18163688196606       -0.77241524689626
C            6.72507032076317        0.14723366243098       -0.09804296192270
O            7.99636576954946        0.15880138256467        0.33285233530173
C            8.79870572519377        1.29271835590746        0.09417744723486
C            5.99894662900653       -1.04948351422361        0.17293681874200
O            6.69082061879185       -1.99467507727019        0.83273237660016
C            6.07456085722078       -3.22446515811641        1.13510939910559
C            4.68068433744281       -1.15770390194632       -0.24857025140758
C           -1.99702861571479       -2.71572606260304       -0.55273367587285
C           -4.30952362322563        2.83579700341408        0.66826169904713
C           -4.84183879143214        2.41599573552136        2.03586708744075
C           -4.24294256423903        4.35755144044425        0.58449537279199
H           -4.35772363135754        0.65769564452043       -1.41816029459851
H           -6.19421202789900       -0.65793422276385       -2.20045749963055
H           -5.91778384464144       -2.05902502947911       -3.26241550432356
H           -4.77816491504062       -0.69065024158660       -3.29185493349745
H           -3.92697735290008       -3.87511482867103        2.44836021206849
H           -4.46689422625671       -5.10825364043023        1.28570766126139
H           -2.75707391503485       -4.61950006459451        1.31626801050574
H           -2.46712337416962       -2.08915515950900        2.24612674397089
H           -2.29026216132365        0.33851595100466        2.30074301590355
H           -3.29833108545225        2.75264204278363       -1.69906993200339
H           -1.96440434654683        3.58925634081862       -0.91527267493722
H           -1.88137456507968        0.68237704852769       -1.89242283732280
H           -1.26441423773697        2.10377456724080       -2.74725739716129
H           -0.91870075592821        1.94484904475745        1.11545686398898
H            0.40928818072302        2.47790447090539       -0.89375921837567
H            1.63697351826171       -0.43602719275900        0.53634806904787
H            2.06120740784228        1.24320217392017        0.09796021818466
H            2.47630387072872        0.36407458241557       -2.27659476292699
H            2.37604649817987       -1.27029670237709       -1.60948436905842
H            4.30058958008810        1.86150501419787       -1.71161487193974
H            6.61554869256888        2.09601055385965       -0.98809288922039
H            8.38572445269897        2.18418321591437        0.57537541888520
H            8.91912544512739        1.47808841638109       -0.97739363550533
H            9.76812548766527        1.06250803019620        0.53197036222280
H            6.83243195707943       -3.81092158149098        1.65112720976430
H            5.21114510874414       -3.08799201010318        1.79338560316901
H            5.76451889453109       -3.75047899628196        0.22733775342320
H            4.12534276177526       -2.06212096442005       -0.05629663567807
H           -2.30271544057827       -3.29233741809362       -1.42182017920191
H           -1.40693055989761       -1.85562070238199       -0.85961654837624
H           -1.39173755067263       -3.33933043594614        0.09935762774889
H           -5.01775956573193        2.48228568144633       -0.09078836456311
H           -4.18304392157085        2.77625514380751        2.82038859090883
H           -4.92787492577000        1.33406732203164        2.11225139247415
H           -5.82711862802936        2.84833235774199        2.19130065092663
H           -3.51190636201440        4.73969847942007        1.29030155830847
H           -3.98992483879439        4.70034429609881       -0.41478401941710
H           -5.21531010431796        4.76982823053269        0.84254847852441
H           -1.16216062477674        3.54830081753652        2.80408656974663

          :  Hamiltonian                  GFN2-xTB          :
         :: total energy             -99.364680212071 Eh    ::
         :: gradient norm              0.003551751019 Eh/a0 ::
         :: HOMO-LUMO gap              1.125183287527 eV    ::
         :: SCC energy              -100.731230120777 Eh    ::
         :: -> dispersion             -0.074979034659 Eh    ::
         :: repulsion energy           1.365057920858 Eh    ::

    * Orbital Energies and Occupations

         #    Occupation            Energy/Eh            Energy/eV
      -------------------------------------------------------------
         1        2.0000           -0.8345145             -22.7083
       ...           ...                  ...                  ...
        78        1.9965           -0.5314010             -14.4602
        79        1.9958           -0.5285388             -14.3823
        80        1.9948           -0.5251953             -14.2913
        81        1.9937           -0.5222974             -14.2124
        82        1.9928           -0.5201147             -14.1530
        83        1.9915           -0.5174913             -14.0817
        84        1.9908           -0.5161207             -14.0444
        85        1.9794           -0.5033518             -13.6969
        86        1.9593           -0.4923751             -13.3982
        87        1.9563           -0.4912456             -13.3675
        88        1.9193           -0.4812179             -13.0946
        89        1.8809           -0.4747341             -12.9182
        90        1.7229           -0.4599775             -12.5166 (HOMO)
        91        0.6269           -0.4186278             -11.3914 (LUMO)
        92        0.0095           -0.3463368              -9.4243
        93        0.0059           -0.3387510              -9.2179
        94        0.0022           -0.3231481              -8.7933
        95        0.0014           -0.3158205              -8.5939
        96        0.0012           -0.3132553              -8.5241
        97        0.0000           -0.2535379              -6.8991
        98        0.0000           -0.1913861              -5.2079
        99                         -0.0937193              -2.5502
       100                         -0.0759127              -2.0657
       101                         -0.0687843              -1.8717
       ...                                ...                  ...
       171                          0.5683732              15.4662
      -------------------------------------------------------------
                  HL-Gap            0.0413497 Eh            1.1252 eV

     #   Z          covCN         q      C6AA      α(0)
     1   7 N        1.774    -0.262    27.628     7.784
     2   6 C        2.828     0.103    25.702     8.307
     3   6 C        3.907     0.009    20.367     6.415
     4   6 C        2.976     0.026    27.423     8.590
     5   6 C        2.905    -0.079    29.962     8.975
     6   6 C        2.860     0.153    24.676     8.142
     7   8 O        1.706    -0.182    17.052     5.575
     8   6 C        3.646     0.015    20.654     6.531
     9   6 C        3.794     0.147    18.219     6.078
    10   8 O        1.701    -0.289    18.805     5.855
    11   6 C        3.634     0.033    20.399     6.500
    12   6 C        2.910    -0.047    29.159     8.855
    13   6 C        2.905    -0.039    28.958     8.824
    14   6 C        3.811    -0.060    21.641     6.622
    15   6 C        3.807    -0.072    21.868     6.657
    16   6 C        2.847     0.083    26.153     8.381
    17   7 N        1.829    -0.218    26.600     7.643
    18   6 C        3.767     0.023    20.216     6.408
    19   6 C        3.810    -0.064    21.722     6.634
    20   6 C        2.967     0.012    27.744     8.640
    21   6 C        2.922    -0.042    29.032     8.836
    22   6 C        2.912    -0.065    29.606     8.922
    23   6 C        2.864     0.137    25.014     8.198
    24   8 O        1.706    -0.211    17.512     5.650
    25   6 C        3.645     0.022    20.531     6.512
    26   6 C        2.862     0.137    25.009     8.197
    27   8 O        1.706    -0.215    17.564     5.658
    28   6 C        3.645     0.024    20.509     6.509
    29   6 C        2.918    -0.074    29.856     8.960
    30   6 C        3.762    -0.116    22.773     6.803
    31   6 C        3.852    -0.006    20.643     6.462
    32   6 C        3.755    -0.117    22.803     6.809
    33   6 C        3.755    -0.122    22.893     6.822
    34   1 H        0.926     0.062     2.175     2.306
    35   1 H        0.924     0.069     2.100     2.266
    36   1 H        0.925     0.094     1.843     2.123
    37   1 H        0.924     0.063     2.159     2.298
    38   1 H        0.924     0.044     2.392     2.419
    39   1 H        0.925     0.078     1.998     2.211
    40   1 H        0.924     0.043     2.409     2.427
    41   1 H        0.926     0.066     2.135     2.285
    42   1 H        0.926     0.056     2.244     2.342
    43   1 H        0.924     0.059     2.212     2.326
    44   1 H        0.924     0.057     2.239     2.340
    45   1 H        0.925     0.062     2.179     2.309
    46   1 H        0.924     0.071     2.073     2.252
    47   1 H        0.923     0.019     2.755     2.596
    48   1 H        0.923     0.017     2.773     2.604
    49   1 H        0.924     0.052     2.296     2.370
    50   1 H        0.923     0.022     2.697     2.568
    51   1 H        0.924     0.055     2.264     2.353
    52   1 H        0.925     0.060     2.196     2.318
    53   1 H        0.926     0.054     2.272     2.357
    54   1 H        0.926     0.062     2.170     2.304
    55   1 H        0.924     0.059     2.209     2.324
    56   1 H        0.924     0.061     2.191     2.315
    57   1 H        0.925     0.086     1.918     2.166
    58   1 H        0.925     0.085     1.926     2.170
    59   1 H        0.924     0.055     2.256     2.349
    60   1 H        0.924     0.058     2.221     2.331
    61   1 H        0.926     0.057     2.239     2.340
    62   1 H        0.925     0.075     2.028     2.227
    63   1 H        0.925     0.061     2.187     2.312
    64   1 H        0.925     0.061     2.191     2.315
    65   1 H        0.924     0.039     2.459     2.452
    66   1 H        0.925     0.067     2.121     2.277
    67   1 H        0.925     0.035     2.518     2.482
    68   1 H        0.925     0.055     2.255     2.348
    69   1 H        0.925     0.072     2.067     2.248
    70   1 H        0.925     0.041     2.436     2.441
    71   1 H        0.925     0.058     2.218     2.329
    72   1 H        0.860     0.163     1.316     1.797

Wiberg/Mayer (AO) data.
largest (>0.10) Wiberg bond orders for each atom

     #   Z sym  total        # sym  WBO       # sym  WBO       # sym  WBO
 ---------------------------------------------------------------------------
     1   7 N    3.014 --     2 C    1.957    72 H    0.938
     2   6 C    3.939 --     1 N    1.957     3 C    0.988    47 H    0.921
     3   6 C    3.969 --     4 C    0.998     2 C    0.988    14 C    0.943
                            31 C    0.929
     4   6 C    3.712 --     5 C    1.340    13 C    1.250     3 C    0.998
     5   6 C    3.950 --     6 C    1.448     4 C    1.340    34 H    0.953
     6   6 C    3.752 --     5 C    1.448     7 O    1.191     9 C    0.973
     7   8 O    2.315 --     6 C    1.191     8 C    0.962
     8   6 C    3.918 --    36 H    0.976    35 H    0.971    37 H    0.971
                             7 O    0.962
     9   6 C    3.950 --    12 C    1.007     6 C    0.973    10 O    0.968
                            30 C    0.908
    10   8 O    2.067 --    11 C    0.989     9 C    0.968
    11   6 C    3.932 --    10 O    0.989    39 H    0.973    40 H    0.971
                            38 H    0.970
    12   6 C    3.761 --    13 C    1.659     9 C    1.007    41 H    0.963
    13   6 C    3.976 --    12 C    1.659     4 C    1.250    42 H    0.956
    14   6 C    3.977 --    15 C    0.991    44 H    0.971    43 H    0.967
                             3 C    0.943
    15   6 C    3.987 --    16 C    1.029    14 C    0.991    45 H    0.964
                            46 H    0.943
    16   6 C    3.948 --    17 N    1.877    15 C    1.029    48 H    0.931
    17   7 N    3.040 --    16 C    1.877    18 C    1.029
    18   6 C    3.967 --    17 N    1.029    49 H    0.962    50 H    0.958
                            19 C    0.957
    19   6 C    3.984 --    20 C    1.015    52 H    0.971    51 H    0.970
                            18 C    0.957
    20   6 C    3.918 --    29 C    1.387    21 C    1.383    19 C    1.015
    21   6 C    3.921 --    22 C    1.429    20 C    1.383    53 H    0.967
    22   6 C    3.945 --    21 C    1.429    23 C    1.368    54 H    0.962
    23   6 C    3.864 --    22 C    1.368    26 C    1.204    24 O    1.122
    24   8 O    2.247 --    23 C    1.122    25 C    0.974
    25   6 C    3.922 --    57 H    0.976    24 O    0.974    55 H    0.970
                            56 H    0.970
    26   6 C    3.872 --    29 C    1.383    23 C    1.204    27 O    1.116
    27   8 O    2.248 --    26 C    1.116    28 C    0.976
    28   6 C    3.926 --    58 H    0.976    27 O    0.976    59 H    0.971
                            60 H    0.971
    29   6 C    3.946 --    20 C    1.387    26 C    1.383    61 H    0.961
    30   6 C    3.928 --    63 H    0.982    62 H    0.977    64 H    0.977
                             9 C    0.908
    31   6 C    3.955 --    32 C    1.008    33 C    1.008    65 H    0.958
                             3 C    0.929
    32   6 C    3.975 --    31 C    1.008    67 H    0.980    68 H    0.980
                            66 H    0.974
    33   6 C    3.970 --    31 C    1.008    70 H    0.981    71 H    0.976
                            69 H    0.970
    34   1 H    0.994 --     5 C    0.953
    35   1 H    0.990 --     8 C    0.971
    36   1 H    0.991 --     8 C    0.976
    37   1 H    0.990 --     8 C    0.971
    38   1 H    0.989 --    11 C    0.970
    39   1 H    0.991 --    11 C    0.973
    40   1 H    0.992 --    11 C    0.971
    41   1 H    0.994 --    12 C    0.963
    42   1 H    0.995 --    13 C    0.956
    43   1 H    0.994 --    14 C    0.967
    44   1 H    0.995 --    14 C    0.971
    45   1 H    0.995 --    15 C    0.964
    46   1 H    0.993 --    15 C    0.943
    47   1 H    0.975 --     2 C    0.921
    48   1 H    0.983 --    16 C    0.931
    49   1 H    0.993 --    18 C    0.962
    50   1 H    0.988 --    18 C    0.958
    51   1 H    0.994 --    19 C    0.970
    52   1 H    0.993 --    19 C    0.971
    53   1 H    0.996 --    21 C    0.967
    54   1 H    0.994 --    22 C    0.962
    55   1 H    0.988 --    25 C    0.970
    56   1 H    0.988 --    25 C    0.970
    57   1 H    0.992 --    25 C    0.976
    58   1 H    0.992 --    28 C    0.976
    59   1 H    0.990 --    28 C    0.971
    60   1 H    0.989 --    28 C    0.971
    61   1 H    0.995 --    29 C    0.961
    62   1 H    0.991 --    30 C    0.977
    63   1 H    0.996 --    30 C    0.982
    64   1 H    0.994 --    30 C    0.977
    65   1 H    0.989 --    31 C    0.958
    66   1 H    0.990 --    32 C    0.974
    67   1 H    0.996 --    32 C    0.980
    68   1 H    0.993 --    32 C    0.980
    69   1 H    0.988 --    33 C    0.970
    70   1 H    0.995 --    33 C    0.981
    71   1 H    0.990 --    33 C    0.976
    72   1 H    0.965 --     1 N    0.938
 ---------------------------------------------------------------------------

molecular dipole:
                 x           y           z       tot (Debye)
 q only:        0.166       0.102      -0.637
   full:        0.715       0.329      -0.678       2.640

           -------------------------------------------------
          | TOTAL ENERGY              -99.364680212071 Eh   |
          | GRADIENT NORM               0.003551751019 Eh/α |
          | HOMO-LUMO GAP               1.125183287527 eV   |
           -------------------------------------------------

 * finished run on 2024/04/06 at 11:13:37.581
