   * xtb version 6.6.1 (8d0f1dd) compiled by 'conda@1efc2f54142f' on 2023-08-01
          program call               : xtb xtbopt.xyz --opt crude --input .xc2 --gfn2

   ID    Z sym.   atoms
    1    6 C      1, 3, 5-7, 10, 11, 14
    2    7 N      2, 4, 9, 13
    3    8 O      8, 12
    4    1 H      15-25

          :  Hamiltonian                  GFN2-xTB          :
 * total energy  :   -42.0462588 Eh     change       -0.9734435E-12 Eh
   *** GEOMETRY OPTIMIZATION CONVERGED AFTER 1 ITERATIONS ***

 final structure:
================
25
 xtb: 6.6.1 (8d0f1dd)
C            3.30966543085552        1.13181457817752       -0.03967689899621
N            2.35332211355505        0.05459391866460       -0.02149689861984
C            2.66983065603225       -1.23455797528228       -0.03954378778914
N            1.56036001389635       -1.97928686262218        0.01300532006501
C            0.44243639056252       -1.13052906251241        0.06736192674975
C            0.99619432922993        0.18037110311502        0.04832891723855
C            0.24836795472131        1.44469567623805        0.05680985009400
O            0.79736565905029        2.54093602779455       -0.08892090898808
N           -1.05102615092695        1.26592970758032        0.24312070039557
C           -2.03450707303665        2.24320652569475        0.24623399628707
C           -4.22469381944057        0.39769787943108       -0.87367785130861
O           -4.12974945808310       -0.72099406780275       -0.79239461465226
N           -0.79809215752872       -1.44485245797548        0.10992176056174
C           -1.33986952652194       -2.74760934380467        0.13394729205786
H            3.84233947913280        1.17632613646338        0.91126848778435
H            4.02978728807975        0.98034870550544       -0.84255279947858
H            2.77763430263895        2.07259266765577       -0.19151506261375
H            3.67256720305922       -1.61609169675686       -0.09026142195353
H           -1.73523472768980        3.15585601726899       -0.28914288692308
H           -2.93917381714754        1.81551839429191       -0.23003330419738
H           -2.31219960462731        2.50459494494816        1.27574895762719
H           -0.96877546761517       -3.33474201316323        0.98209323794212
H           -1.11976796266770       -3.29451286486784       -0.79066844548476
H           -2.42201905180241       -2.65475381137356        0.22596849470028
H            1.53566951038453       -2.98831358506654        0.00724755740148

          :  Hamiltonian                  GFN2-xTB          :
         :: total energy             -42.046258785403 Eh    ::
         :: gradient norm              0.002206640382 Eh/a0 ::
         :: HOMO-LUMO gap              0.230739242004 eV    ::
         :: SCC energy               -42.582061675674 Eh    ::
         :: -> dispersion             -0.020209540021 Eh    ::
         :: repulsion energy           0.535678777162 Eh    ::

    * Orbital Energies and Occupations

         #    Occupation            Energy/Eh            Energy/eV
      -------------------------------------------------------------
         1        2.0000           -0.8994030             -24.4740
       ...           ...                  ...                  ...
        25        1.9999           -0.6562441             -17.8573
        26        1.9999           -0.6547307             -17.8161
        27        1.9994           -0.6322529             -17.2045
        28        1.9993           -0.6305383             -17.1578
        29        1.9990           -0.6240267             -16.9806
        30        1.9986           -0.6187670             -16.8375
        31        1.9973           -0.6084159             -16.5558
        32        1.9959           -0.6016608             -16.3720
        33        1.9778           -0.5747068             -15.6386
        34        1.9095           -0.5518949             -15.0178
        35        1.7925           -0.5377631             -14.6333
        36        1.6780           -0.5297612             -14.4155
        37        1.4406           -0.5185998             -14.1118 (HOMO)
        38        1.2024           -0.5101203             -13.8811 (LUMO)
        39        0.0074           -0.4150414             -11.2939
        40        0.0011           -0.3854113             -10.4876
        41        0.0011           -0.3853249             -10.4852
        42        0.0003           -0.3657137              -9.9516
        43        0.0000           -0.2867856              -7.8038
        44                         -0.1811297              -4.9288
        45                         -0.1465552              -3.9880
        46                         -0.0737814              -2.0077
        47                         -0.0708822              -1.9288
        48                         -0.0221699              -0.6033
       ...                                ...                  ...
        67                          0.7186792              19.5563
      -------------------------------------------------------------
                  HL-Gap            0.0084795 Eh            0.2307 eV

     #   Z          covCN         q      C6AA      α(0)
     1   6 C        3.693    -0.096    22.513     6.789
     2   7 N        2.824     0.087    19.741     6.599
     3   6 C        3.011     0.067    26.481     8.441
     4   7 N        2.787    -0.081    22.823     7.095
     5   6 C        2.967     0.142    24.913     8.187
     6   6 C        3.099     0.004    27.803     8.641
     7   6 C        2.758     0.283    22.205     7.717
     8   8 O        0.858    -0.379    21.272     6.184
     9   7 N        1.839    -0.161    25.287     7.452
    10   6 C        3.690    -0.041    21.504     6.637
    11   6 C        0.856     0.068    33.134     9.605
    12   8 O        0.856    -0.030    15.517     5.281
    13   7 N        1.825    -0.164    25.349     7.460
    14   6 C        3.696    -0.043    21.526     6.637
    15   1 H        0.924     0.106     1.731     2.057
    16   1 H        0.925     0.102     1.764     2.077
    17   1 H        0.924     0.146     1.420     1.864
    18   1 H        0.926     0.119     1.622     1.991
    19   1 H        0.923     0.122     1.598     1.977
    20   1 H        0.922     0.135     1.497     1.913
    21   1 H        0.924     0.124     1.585     1.969
    22   1 H        0.924     0.081     1.974     2.197
    23   1 H        0.924     0.085     1.928     2.172
    24   1 H        0.925     0.106     1.730     2.057
    25   1 H        0.860     0.221     1.006     1.571

Wiberg/Mayer (AO) data.
largest (>0.10) Wiberg bond orders for each atom

     #   Z sym  total        # sym  WBO       # sym  WBO       # sym  WBO
 ---------------------------------------------------------------------------
     1   6 C    3.898 --     2 N    0.982    16 H    0.964    15 H    0.956
                            17 H    0.944
     2   7 N    3.710 --     3 C    1.366     6 C    1.213     1 C    0.982
     3   6 C    3.819 --     2 N    1.366     4 N    1.327    18 H    0.951
     4   7 N    3.521 --     3 C    1.327     5 C    1.068    25 H    0.923
     5   6 C    3.945 --    13 N    1.530     6 C    1.208     4 N    1.068
     6   6 C    3.692 --     2 N    1.213     5 C    1.208     7 C    1.032
     7   6 C    3.924 --     8 O    1.522     9 N    1.299     6 C    1.032
     8   8 O    1.757 --     7 C    1.522     9 N    0.116
     9   7 N    2.610 --     7 C    1.299    10 C    1.131     8 O    0.116
    10   6 C    3.845 --     9 N    1.131    19 H    0.901    21 H    0.895
                            20 H    0.850
    11   6 C    2.681 --    12 O    2.597
    12   8 O    2.614 --    11 C    2.597
    13   7 N    2.731 --     5 C    1.530    14 C    1.063
    14   6 C    3.914 --    13 N    1.063    24 H    0.954    22 H    0.933
                            23 H    0.929
    15   1 H    0.985 --     1 C    0.956
    16   1 H    0.987 --     1 C    0.964
    17   1 H    0.976 --     1 C    0.944
    18   1 H    0.984 --     3 C    0.951
    19   1 H    0.908 --    10 C    0.901
    20   1 H    0.923 --    10 C    0.850
    21   1 H    0.918 --    10 C    0.895
    22   1 H    0.950 --    14 C    0.933
    23   1 H    0.947 --    14 C    0.929
    24   1 H    0.965 --    14 C    0.954
    25   1 H    0.950 --     4 N    0.923
 ---------------------------------------------------------------------------

molecular dipole:
                 x           y           z       tot (Debye)
 q only:        1.382      -1.599       0.094
   full:        1.738      -2.351       0.098       7.435

           -------------------------------------------------
          | TOTAL ENERGY              -42.046258785403 Eh   |
          | GRADIENT NORM               0.002206640382 Eh/α |
          | HOMO-LUMO GAP               0.230739242004 eV   |
           -------------------------------------------------

 * finished run on 2024/06/05 at 19:57:54.663
