   * xtb version 6.6.1 (8d0f1dd) compiled by 'conda@1efc2f54142f' on 2023-08-01
          program call               : xtb struc.xyz --opt loose --input .xc1 --gfn2

   ID    Z sym.   atoms
    1    6 C      1, 3, 5-7, 10, 11, 14
    2    7 N      2, 4, 9, 13
    3    8 O      8, 12
    4    1 H      15-25
constraining bond 2 15 to    2.6866700 Å, actual value:    2.0850972 Å

          :  Hamiltonian                  GFN2-xTB          :
 * total energy  :   -42.9062163 Eh     change       -0.2401990E-09 Eh
 * total energy  :   -45.2332443 Eh     change       -0.2327028E+01 Eh
 * total energy  :   -48.9307415 Eh     change       -0.3697497E+01 Eh
 * total energy  :   -21.2339418 Eh     change        0.2769680E+02 Eh
 * total energy  :   -47.9278265 Eh     change       -0.2669388E+02 Eh
 * total energy  :   -47.9850861 Eh     change       -0.5725961E-01 Eh
 * total energy  :   -48.2427790 Eh     change       -0.2576929E+00 Eh
 * total energy  :   -48.4875102 Eh     change       -0.2447312E+00 Eh
 * total energy  :   -49.0853007 Eh     change       -0.5977905E+00 Eh
 * total energy  :   -49.2668637 Eh     change       -0.1815629E+00 Eh
 * total energy  :   -49.6723916 Eh     change       -0.2614689E-02 Eh
 * total energy  :   -49.6737670 Eh     change       -0.1375448E-02 Eh
 * total energy  :   -49.6749992 Eh     change       -0.1232135E-02 Eh
 * total energy  :   -49.6756269 Eh     change       -0.6277527E-03 Eh
 * total energy  :   -49.6754078 Eh     change        0.2190908E-03 Eh
 * total energy  :   -49.6760038 Eh     change       -0.5959348E-03 Eh
 * total energy  :   -49.6760983 Eh     change       -0.9457678E-04 Eh
 * total energy  :   -49.6762201 Eh     change       -0.1217326E-03 Eh
 * total energy  :   -49.6762487 Eh     change       -0.2863384E-04 Eh
   *** GEOMETRY OPTIMIZATION CONVERGED AFTER 58 ITERATIONS ***

 final structure:
================
25
 xtb: 6.6.1 (8d0f1dd)
C            3.01808324665103        1.74010253437844       -0.05904193107123
N            2.44414951181486        0.55076226514011        0.13188169177158
C            2.70520709271529       -2.04190071108596       -0.10024492684538
N            1.40147606524046       -2.07252246299373       -0.03935320320923
C            0.57157395566039       -0.96714798218271        0.02906217753963
C            1.05570859829723        0.34788819536259        0.04164015304137
C            0.12024945822295        1.45987581354891       -0.00712474309094
O            0.44829940043426        2.63145462882148       -0.04042775223177
N           -1.22271661410745        1.10621095545429       -0.01156314499780
C           -2.21459188369027        2.16672712509291       -0.04955708323120
C           -1.71960760065120       -0.17329859724419        0.04225754901428
O           -2.90202723603319       -0.40345823542045        0.07259652940821
N           -0.77702367998421       -1.20701910953560        0.05058273993570
C           -1.31645604197479       -2.55587262588997        0.08626591868125
H            2.72810813543851        0.15889019347839        0.24584839033494
H            4.08570572941705        1.77273894262440        0.08121118777617
H            2.46566707070525        2.62891066847207       -0.30717292664605
H            3.22717495801042       -2.98628436051387       -0.18666775970305
H           -1.69421201609382        3.11948574257750       -0.12609700401116
H           -2.87456786286369        2.02303130999415       -0.90588860601638
H           -2.82172665255954        2.14009730358606        0.85655961468613
H           -0.96151623048958       -3.10094740607236        0.96311141643734
H           -1.09236223549427       -3.09950797101627       -0.83434102739375
H           -2.40143463323772       -2.45995967151899        0.16238988309208
H            0.88727097866730       -2.96001800345668       -0.06475552536985

          :  Hamiltonian                  GFN2-xTB          :
         :: total energy             -49.676248699722 Eh    ::
         :: gradient norm              0.002511406793 Eh/a0 ::
         :: HOMO-LUMO gap              1.313885076953 eV    ::
         :: SCC energy               -42.669255283379 Eh    ::
         :: -> dispersion             -0.022638395528 Eh    ::
         :: repulsion energy           1.552508269457 Eh    ::

    * Orbital Energies and Occupations

         #    Occupation            Energy/Eh            Energy/eV
      -------------------------------------------------------------
         1        2.0000           -0.8876278             -24.1536
       ...           ...                  ...                  ...
        25        1.9986           -0.6709859             -18.2585
        26        1.9984           -0.6664704             -18.1356
        27        1.9980           -0.6620603             -18.0156
        28        1.9950           -0.6402712             -17.4227
        29        1.9947           -0.6387895             -17.3823
        30        1.9942           -0.6364237             -17.3180
        31        1.9877           -0.6185534             -16.8317
        32        1.9827           -0.6104255             -16.6105
        33        1.9568           -0.5883887             -16.0109
        34        1.9175           -0.5725292             -15.5793
        35        1.9033           -0.5685927             -15.4722
        36        1.8789           -0.5629279             -15.3180
        37        1.5496           -0.5271585             -14.3447 (HOMO)
        38        0.6212           -0.4788741             -13.0308 (LUMO)
        39        0.1853           -0.4436191             -12.0715
        40        0.0276           -0.3963774             -10.7860
        41        0.0142           -0.3805468             -10.3552
        42        0.0004           -0.2955811              -8.0432
        43        0.0000           -0.2080955              -5.6626
        44        0.0000           -0.1591952              -4.3319
        45        0.0000           -0.1413131              -3.8453
        46        0.0000           -0.1226998              -3.3388
        47                         -0.0900755              -2.4511
        48                         -0.0274866              -0.7479
       ...                                ...                  ...
        67                          3.8720528             105.3639
      -------------------------------------------------------------
                  HL-Gap            0.0482844 Eh            1.3139 eV

     #   Z          covCN         q      C6AA      α(0)
     1   6 C        2.832    -0.038    28.944     8.816
     2   7 N        2.688    -0.035    21.924     6.954
     3   6 C        1.854    -0.123    34.583     9.499
     4   7 N        2.687    -0.018    21.597     6.902
     5   6 C        2.847     0.099    25.792     8.323
     6   6 C        2.920    -0.019    28.488     8.753
     7   6 C        2.768     0.262    22.591     7.784
     8   8 O        0.859    -0.354    20.792     6.114
     9   7 N        2.741    -0.067    22.540     7.051
    10   6 C        3.709    -0.062    21.841     6.680
    11   6 C        2.725     0.315    21.652     7.618
    12   8 O        0.860    -0.352    20.740     6.106
    13   7 N        2.744    -0.057    22.334     7.019
    14   6 C        3.700    -0.075    22.105     6.724
    15   1 H        0.939     0.270     0.804     1.402
    16   1 H        0.926     0.123     1.587     1.970
    17   1 H        0.926     0.158     1.341     1.811
    18   1 H        0.925     0.100     1.782     2.087
    19   1 H        0.925     0.124     1.580     1.966
    20   1 H        0.924     0.112     1.683     2.029
    21   1 H        0.924     0.111     1.684     2.029
    22   1 H        0.924     0.089     1.889     2.149
    23   1 H        0.924     0.090     1.882     2.145
    24   1 H        0.924     0.137     1.482     1.904
    25   1 H        0.859     0.210     1.056     1.610

Wiberg/Mayer (AO) data.
largest (>0.10) Wiberg bond orders for each atom

     #   Z sym  total        # sym  WBO       # sym  WBO       # sym  WBO
 ---------------------------------------------------------------------------
     1   6 C    3.480 --     2 N    1.444    16 H    0.958    17 H    0.941
     2   7 N    3.512 --     1 C    1.444     6 C    1.103    15 H    0.897
     3   6 C    2.522 --     4 N    1.502    18 H    0.928
     4   7 N    3.603 --     3 C    1.502     5 C    1.128    25 H    0.876
     5   6 C    3.779 --     6 C    1.322    13 N    1.177     4 N    1.128
     6   6 C    3.796 --     5 C    1.322     2 N    1.103     7 C    1.090
     7   6 C    3.912 --     8 O    1.632     9 N    1.100     6 C    1.090
     8   8 O    1.934 --     7 C    1.632     9 N    0.118
     9   7 N    3.496 --    11 C    1.124     7 C    1.100    10 C    0.975
                            12 O    0.119     8 O    0.118
    10   6 C    3.871 --     9 N    0.975    19 H    0.955    20 H    0.949
                            21 H    0.947
    11   6 C    3.936 --    12 O    1.665     9 N    1.124    13 N    1.064
    12   8 O    1.977 --    11 C    1.665     9 N    0.119    13 N    0.112
    13   7 N    3.480 --     5 C    1.177    11 C    1.064    14 C    0.980
                            12 O    0.112
    14   6 C    3.908 --    13 N    0.980    22 H    0.961    23 H    0.959
                            24 H    0.950
    15   1 H    0.926 --     2 N    0.897
    16   1 H    0.979 --     1 C    0.958
    17   1 H    0.968 --     1 C    0.941
    18   1 H    0.946 --     3 C    0.928
    19   1 H    0.974 --    10 C    0.955
    20   1 H    0.966 --    10 C    0.949
    21   1 H    0.965 --    10 C    0.947
    22   1 H    0.981 --    14 C    0.961
    23   1 H    0.980 --    14 C    0.959
    24   1 H    0.976 --    14 C    0.950
    25   1 H    0.918 --     4 N    0.876
 ---------------------------------------------------------------------------

molecular dipole:
                 x           y           z       tot (Debye)
 q only:        1.841      -1.132       0.028
   full:        1.850      -1.800       0.048       6.561

           -------------------------------------------------
          | TOTAL ENERGY              -49.676248699722 Eh   |
          | GRADIENT NORM               0.002511406793 Eh/α |
          | HOMO-LUMO GAP               1.313885076953 eV   |
           -------------------------------------------------

 * finished run on 2024/06/05 at 19:58:56.961
