   * xtb version 6.6.1 (8d0f1dd) compiled by 'conda@1efc2f54142f' on 2023-08-01
          program call               : xtb xtbopt.xyz --opt crude --input .xc2 --gfn2

   ID    Z sym.   atoms
    1    6 C      1, 3, 5-7, 10, 11, 14
    2    7 N      2, 4, 9, 13
    3    8 O      8, 12
    4    1 H      15-25
########################################################################
[WARNING] Please study the warnings concerning your input carefully
-1- readin_getIntValue: could not parse ''
########################################################################

          :  Hamiltonian                  GFN2-xTB          :
 * total energy  :   -41.1166206 Eh     change       -0.1939782E-11 Eh
 * total energy  :   -42.1121891 Eh     change       -0.9955686E+00 Eh
 * total energy  :   -42.1291560 Eh     change       -0.1696686E-01 Eh
 * total energy  :   -42.1344410 Eh     change       -0.5285034E-02 Eh
 * total energy  :   -42.1361059 Eh     change       -0.1664866E-02 Eh
 * total energy  :   -42.1372677 Eh     change       -0.1161849E-02 Eh
 * total energy  :   -42.1383768 Eh     change       -0.1109043E-02 Eh
 * total energy  :   -42.1395830 Eh     change       -0.1206253E-02 Eh
 * total energy  :   -42.1413573 Eh     change       -0.1774265E-02 Eh
 * total energy  :   -42.1453531 Eh     change       -0.3995788E-02 Eh
 * total energy  :   -42.1691177 Eh     change       -0.4444949E-02 Eh
 * total energy  :   -42.1718520 Eh     change       -0.2734232E-02 Eh
 * total energy  :   -42.1733453 Eh     change       -0.1493309E-02 Eh
 * total energy  :   -42.1750543 Eh     change       -0.1709009E-02 Eh
 * total energy  :   -42.1758489 Eh     change       -0.7946078E-03 Eh
 * total energy  :   -42.1766907 Eh     change       -0.8417619E-03 Eh
 * total energy  :   -42.1795954 Eh     change       -0.2904756E-02 Eh
 * total energy  :   -42.1810475 Eh     change       -0.1452062E-02 Eh
 * total energy  :   -42.1814741 Eh     change       -0.4266634E-03 Eh
   *** GEOMETRY OPTIMIZATION CONVERGED AFTER 24 ITERATIONS ***

 final structure:
================
25
 xtb: 6.6.1 (8d0f1dd)
C            2.96525492721711        1.79137421847176        0.12312057912774
N            2.35238045684329        0.68740021146860        0.00247308080095
C            2.68467590684497       -2.02240330628662       -0.31245596482628
N            1.41860491182315       -1.97216233263963        0.08655994803319
C            0.57089211314288       -0.88882082374289        0.04884373658314
C            1.02411212059085        0.43710779423279        0.01990301326307
C            0.05660094837332        1.53432812700496        0.01140972565234
O            0.37532212754262        2.70791037741639        0.01720242410500
N           -1.27413796017569        1.15262792543409       -0.00556575492600
C           -2.28820669122922        2.19108396270316       -0.07166037737299
C           -1.73936422917545       -0.14207045164571        0.03613545746360
O           -2.91720683755121       -0.39757310594169        0.02587168919285
N           -0.77469028086663       -1.15285674181714        0.09020869483809
C           -1.27686687476000       -2.51523135224317        0.09176939134543
H            3.13772533763667       -1.16245173969815       -0.78695604689035
H            4.04039373172241        1.78792631076909        0.01977419327844
H            2.46735062778003        2.74451719334233        0.30304553729201
H            3.24187656716870       -2.92896345697810       -0.15552037274364
H           -1.78655538655180        3.15526627268094       -0.13008487366504
H           -2.91596744809180        2.03501091514614       -0.95008837169882
H           -2.92320132191707        2.14996093177217        0.81431495912086
H           -1.06075625799452       -3.01807173798713        1.03701994180955
H           -0.87286460909726       -3.08077179213264       -0.74875161402595
H           -2.36149404062508       -2.45753933977103       -0.01515053624096
H            1.01655367544503       -2.81735951795799        0.47975315838458

          :  Hamiltonian                  GFN2-xTB          :
         :: total energy             -42.181474149780 Eh    ::
         :: gradient norm              0.009385938800 Eh/a0 ::
         :: HOMO-LUMO gap              1.178822546882 eV    ::
         :: SCC energy               -42.707217996191 Eh    ::
         :: -> dispersion             -0.022494204620 Eh    ::
         :: repulsion energy           0.525616828792 Eh    ::

    * Orbital Energies and Occupations

         #    Occupation            Energy/Eh            Energy/eV
      -------------------------------------------------------------
         1        2.0000           -0.8856418             -24.0995
       ...           ...                  ...                  ...
        25        1.9984           -0.6687988             -18.1989
        26        1.9979           -0.6622518             -18.0208
        27        1.9971           -0.6542058             -17.8018
        28        1.9946           -0.6392940             -17.3961
        29        1.9940           -0.6366396             -17.3238
        30        1.9924           -0.6310647             -17.1721
        31        1.9872           -0.6185922             -16.8328
        32        1.9836           -0.6127435             -16.6736
        33        1.9675           -0.5963247             -16.2268
        34        1.9448           -0.5834451             -15.8763
        35        1.9160           -0.5731389             -15.5959
        36        1.8355           -0.5561499             -15.1336
        37        1.5561           -0.5286422             -14.3851 (HOMO)
        38        0.7226           -0.4853213             -13.2063 (LUMO)
        39        0.0739           -0.4214118             -11.4672
        40        0.0357           -0.4036453             -10.9837
        41        0.0079           -0.3673696              -9.9966
        42        0.0002           -0.2844913              -7.7414
        43        0.0000           -0.2010549              -5.4710
        44        0.0000           -0.1623397              -4.4175
        45        0.0000           -0.1371556              -3.7322
        46                         -0.0889528              -2.4205
        47                         -0.0782080              -2.1281
        48                         -0.0297338              -0.8091
       ...                                ...                  ...
        67                          0.5302759              14.4295
      -------------------------------------------------------------
                  HL-Gap            0.0433209 Eh            1.1788 eV

     #   Z          covCN         q      C6AA      α(0)
     1   6 C        2.785     0.019    27.561     8.599
     2   7 N        1.832    -0.106    24.087     7.273
     3   6 C        2.773    -0.042    29.020     8.823
     4   7 N        2.689    -0.014    21.534     6.892
     5   6 C        2.844     0.100    25.784     8.322
     6   6 C        2.909     0.020    27.565     8.609
     7   6 C        2.770     0.262    22.591     7.784
     8   8 O        0.859    -0.340    20.526     6.074
     9   7 N        2.741    -0.067    22.532     7.050
    10   6 C        3.708    -0.060    21.802     6.674
    11   6 C        2.723     0.316    21.626     7.613
    12   8 O        0.860    -0.351    20.717     6.103
    13   7 N        2.744    -0.054    22.292     7.012
    14   6 C        3.700    -0.078    22.162     6.732
    15   1 H        0.925     0.133     1.514     1.924
    16   1 H        0.926     0.119     1.624     1.993
    17   1 H        0.924     0.134     1.502     1.917
    18   1 H        0.926     0.120     1.615     1.987
    19   1 H        0.925     0.122     1.597     1.976
    20   1 H        0.924     0.111     1.687     2.031
    21   1 H        0.924     0.111     1.685     2.030
    22   1 H        0.924     0.089     1.890     2.150
    23   1 H        0.924     0.089     1.885     2.147
    24   1 H        0.924     0.137     1.484     1.905
    25   1 H        0.860     0.231     0.961     1.536

Wiberg/Mayer (AO) data.
largest (>0.10) Wiberg bond orders for each atom

     #   Z sym  total        # sym  WBO       # sym  WBO       # sym  WBO
 ---------------------------------------------------------------------------
     1   6 C    3.674 --     2 N    1.738    16 H    0.936    17 H    0.883
     2   7 N    3.033 --     1 C    1.738     6 C    1.205
     3   6 C    3.405 --     4 N    1.408    18 H    0.963    15 H    0.947
     4   7 N    3.550 --     3 C    1.408     5 C    1.147    25 H    0.899
     5   6 C    3.807 --     6 C    1.298    13 N    1.172     4 N    1.147
     6   6 C    3.754 --     5 C    1.298     2 N    1.205     7 C    1.038
     7   6 C    3.886 --     8 O    1.644     9 N    1.106     6 C    1.038
     8   8 O    1.932 --     7 C    1.644     9 N    0.113
     9   7 N    3.483 --    11 C    1.118     7 C    1.106    10 C    0.973
                            12 O    0.117     8 O    0.113
    10   6 C    3.868 --     9 N    0.973    19 H    0.956    20 H    0.948
                            21 H    0.947
    11   6 C    3.937 --    12 O    1.664     9 N    1.118    13 N    1.069
    12   8 O    1.972 --    11 C    1.664     9 N    0.117    13 N    0.112
    13   7 N    3.477 --     5 C    1.172    11 C    1.069    14 C    0.981
                            12 O    0.112
    14   6 C    3.909 --    13 N    0.981    23 H    0.964    22 H    0.958
                            24 H    0.952
    15   1 H    0.979 --     3 C    0.947
    16   1 H    0.954 --     1 C    0.936
    17   1 H    0.911 --     1 C    0.883
    18   1 H    0.981 --     3 C    0.963
    19   1 H    0.974 --    10 C    0.956
    20   1 H    0.966 --    10 C    0.948
    21   1 H    0.965 --    10 C    0.947
    22   1 H    0.979 --    14 C    0.958
    23   1 H    0.981 --    14 C    0.964
    24   1 H    0.976 --    14 C    0.952
    25   1 H    0.942 --     4 N    0.899
 ---------------------------------------------------------------------------

molecular dipole:
                 x           y           z       tot (Debye)
 q only:        1.820      -1.860       0.065
   full:        1.868      -1.915       0.156       6.812

           -------------------------------------------------
          | TOTAL ENERGY              -42.181474149780 Eh   |
          | GRADIENT NORM               0.009385938800 Eh/α |
          | HOMO-LUMO GAP               1.178822546882 eV   |
           -------------------------------------------------

 * finished run on 2024/06/05 at 19:58:57.809
