   * xtb version 6.6.1 (8d0f1dd) compiled by 'conda@1efc2f54142f' on 2023-08-01
          program call               : xtb struc.xyz --opt loose --input .xc1 --gfn2

   ID    Z sym.   atoms
    1    6 C      1, 3, 5-7, 10, 11, 14
    2    7 N      2, 4, 9, 13
    3    8 O      8, 12
    4    1 H      15-25
constraining bond 4 13 to    4.8400000 Å, actual value:    2.4476530 Å

          :  Hamiltonian                  GFN2-xTB          :
 * total energy  :   -32.0408713 Eh     change       -0.2402061E-09 Eh
 * total energy  :   -35.8657233 Eh     change       -0.3824852E+01 Eh
 * total energy  :   -38.8136378 Eh     change       -0.2947914E+01 Eh
 * total energy  :   -40.6488489 Eh     change       -0.1835211E+01 Eh
 * total energy  :   -41.5429591 Eh     change       -0.8941102E+00 Eh
 * total energy  :   -41.7038711 Eh     change       -0.1609120E+00 Eh
 * total energy  :   -41.7272730 Eh     change       -0.2340197E-01 Eh
 * total energy  :   -41.7954954 Eh     change       -0.6822233E-01 Eh
 * total energy  :   -41.8368307 Eh     change       -0.4133539E-01 Eh
 * total energy  :   -41.8530014 Eh     change       -0.1617061E-01 Eh
 * total energy  :   -42.1413866 Eh     change       -0.8388893E-04 Eh
 * total energy  :   -42.1414414 Eh     change       -0.5481072E-04 Eh
 * total energy  :   -42.1415135 Eh     change       -0.7212612E-04 Eh
 * total energy  :   -42.1415684 Eh     change       -0.5489766E-04 Eh
 * total energy  :   -42.1416393 Eh     change       -0.7089447E-04 Eh
 * total energy  :   -42.1416585 Eh     change       -0.1922013E-04 Eh
 * total energy  :   -42.1417351 Eh     change       -0.7658621E-04 Eh
 * total energy  :   -42.1417720 Eh     change       -0.3691878E-04 Eh
 * total energy  :   -42.1418171 Eh     change       -0.4501621E-04 Eh
   *** GEOMETRY OPTIMIZATION CONVERGED AFTER 89 ITERATIONS ***

 final structure:
================
25
 xtb: 6.6.1 (8d0f1dd)
C            2.70294371685869        0.66580355894949       -1.19802740428702
N            2.24405654723954       -0.25768345285250       -0.18314857683429
C            3.16505231084466       -0.80808287092710        0.65766307426754
N            3.04720870764018       -1.48197758547690        1.71229287059824
C            0.03150314866195       -1.32344591224823       -0.40115489407034
C            0.84164694144656       -0.30426075977081       -0.03669041416638
C            0.18816924888586        0.95516963925009        0.39834642826182
O            0.82717372413508        1.93388826417788        0.71644939570536
N           -1.19352723514690        0.92267600079627        0.40957806212520
C           -1.90605621368072        2.10806990667834        0.85533370792394
C           -1.98786274461623       -0.14156830796500        0.02383883437732
O           -3.18867330350687       -0.10185746699636        0.04312271999097
N           -1.29444965826623       -1.28370576607819       -0.40955657190710
C           -2.06814587680842       -2.43973309469662       -0.81351203160880
H            2.63440002605507        1.69973757612776       -0.83155475454166
H            3.74041559713734        0.45701983597039       -1.45867533873778
H            2.08298246071335        0.57448340826017       -2.09408477688962
H            4.19033658309556       -0.60916251618963        0.34899227258301
H           -1.17774533541693        2.87703117833099        1.10944843459841
H           -2.56978879122459        2.46143367899452        0.06372410385082
H           -2.51878101115485        1.86646424457806        1.72615776158030
H           -2.08226226699638       -3.18473796412290       -0.01291731270366
H           -1.62234128734533       -2.88758115394087       -1.70147536541207
H           -3.09183751795060       -2.12313120088528       -1.01804891336311
H            2.16601374349353       -1.75661069836184        2.12507030655773

          :  Hamiltonian                  GFN2-xTB          :
         :: total energy             -42.141817061395 Eh    ::
         :: gradient norm              0.003767447245 Eh/a0 ::
         :: HOMO-LUMO gap              0.783883075131 eV    ::
         :: SCC energy               -42.661905248181 Eh    ::
         :: -> dispersion             -0.021610116794 Eh    ::
         :: repulsion energy           0.519876335190 Eh    ::

    * Orbital Energies and Occupations

         #    Occupation            Energy/Eh            Energy/eV
      -------------------------------------------------------------
         1        2.0000           -0.9023401             -24.5539
       ...           ...                  ...                  ...
        25        1.9933           -0.6578476             -17.9009
        26        1.9916           -0.6525985             -17.7581
        27        1.9890           -0.6462075             -17.5842
        28        1.9857           -0.6398008             -17.4099
        29        1.9815           -0.6336591             -17.2427
        30        1.9784           -0.6300011             -17.1432
        31        1.9772           -0.6287262             -17.1085
        32        1.9717           -0.6234625             -16.9653
        33        1.9216           -0.5986812             -16.2909
        34        1.8958           -0.5915836             -16.0978
        35        1.8133           -0.5766887             -15.6925
        36        1.7390           -0.5677272             -15.4486
        37        1.6123           -0.5565326             -15.1440 (HOMO)
        38        1.1057           -0.5277255             -14.3601 (LUMO)
        39        0.0341           -0.4263651             -11.6020
        40        0.0145           -0.4057728             -11.0416
        41        0.0062           -0.3854660             -10.4891
        42        0.0003           -0.3140181              -8.5449
        43        0.0000           -0.2131059              -5.7989
        44        0.0000           -0.1627094              -4.4275
        45        0.0000           -0.1398734              -3.8061
        46                         -0.0935782              -2.5464
        47                         -0.0616455              -1.6775
        48                         -0.0458319              -1.2472
       ...                                ...                  ...
        67                          0.5251519              14.2901
      -------------------------------------------------------------
                  HL-Gap            0.0288072 Eh            0.7839 eV

     #   Z          covCN         q      C6AA      α(0)
     1   6 C        3.710    -0.075    22.085     6.716
     2   7 N        2.733     0.015    20.986     6.804
     3   6 C        2.764     0.130    25.138     8.211
     4   7 N        1.773    -0.196    26.049     7.558
     5   6 C        1.942    -0.028    31.845     9.113
     6   6 C        2.904     0.019    27.573     8.610
     7   6 C        2.775     0.270    22.448     7.760
     8   8 O        0.858    -0.328    20.296     6.040
     9   7 N        2.739    -0.061    22.417     7.032
    10   6 C        3.708    -0.060    21.800     6.674
    11   6 C        2.728     0.316    21.638     7.615
    12   8 O        0.859    -0.320    20.150     6.018
    13   7 N        2.741     0.013    21.020     6.809
    14   6 C        3.703    -0.070    22.001     6.706
    15   1 H        0.923     0.125     1.574     1.962
    16   1 H        0.925     0.108     1.715     2.048
    17   1 H        0.924     0.098     1.800     2.098
    18   1 H        0.925     0.126     1.568     1.958
    19   1 H        0.925     0.125     1.571     1.960
    20   1 H        0.924     0.118     1.627     1.995
    21   1 H        0.924     0.118     1.631     1.997
    22   1 H        0.924     0.116     1.647     2.007
    23   1 H        0.925     0.116     1.645     2.006
    24   1 H        0.924     0.127     1.558     1.952
    25   1 H        0.860     0.198     1.115     1.654

Wiberg/Mayer (AO) data.
largest (>0.10) Wiberg bond orders for each atom

     #   Z sym  total        # sym  WBO       # sym  WBO       # sym  WBO
 ---------------------------------------------------------------------------
     1   6 C    3.874 --     2 N    0.990    17 H    0.958    16 H    0.956
                            15 H    0.924
     2   7 N    3.365 --     3 C    1.198     6 C    1.030     1 C    0.990
                             4 N    0.101
     3   6 C    3.914 --     4 N    1.756     2 N    1.198    18 H    0.907
     4   7 N    2.801 --     3 C    1.756    25 H    0.916     2 N    0.101
     5   6 C    3.021 --     6 C    1.518    13 N    1.308
     6   6 C    3.721 --     5 C    1.518     2 N    1.030     7 C    0.982
     7   6 C    3.854 --     8 O    1.659     9 N    1.122     6 C    0.982
     8   8 O    1.940 --     7 C    1.659     9 N    0.115
     9   7 N    3.495 --     7 C    1.122    11 C    1.111    10 C    0.972
                             8 O    0.115    12 O    0.115
    10   6 C    3.849 --     9 N    0.972    19 H    0.954    20 H    0.942
                            21 H    0.942
    11   6 C    3.912 --    12 O    1.682     9 N    1.111    13 N    1.035
    12   8 O    1.975 --    11 C    1.682     9 N    0.115
    13   7 N    3.518 --     5 C    1.308    11 C    1.035    14 C    0.974
    14   6 C    3.856 --    13 N    0.974    23 H    0.953    24 H    0.952
                            22 H    0.939
    15   1 H    0.942 --     1 C    0.924
    16   1 H    0.973 --     1 C    0.956
    17   1 H    0.969 --     1 C    0.958
    18   1 H    0.950 --     3 C    0.907
    19   1 H    0.971 --    10 C    0.954
    20   1 H    0.960 --    10 C    0.942
    21   1 H    0.960 --    10 C    0.942
    22   1 H    0.957 --    14 C    0.939
    23   1 H    0.967 --    14 C    0.953
    24   1 H    0.970 --    14 C    0.952
    25   1 H    0.941 --     4 N    0.916
 ---------------------------------------------------------------------------

molecular dipole:
                 x           y           z       tot (Debye)
 q only:        0.888      -0.876      -0.552
   full:        0.693      -0.779      -0.608       3.067

           -------------------------------------------------
          | TOTAL ENERGY              -42.141817061395 Eh   |
          | GRADIENT NORM               0.003767447245 Eh/α |
          | HOMO-LUMO GAP               0.783883075131 eV   |
           -------------------------------------------------

 * finished run on 2024/06/05 at 19:58:46.562
