   * xtb version 6.6.1 (8d0f1dd) compiled by 'conda@1efc2f54142f' on 2023-08-01
          program call               : xtb xtbopt.xyz --opt crude --input .xc2 --gfn2

   ID    Z sym.   atoms
    1    6 C      1, 3, 5-7, 10, 11, 14
    2    7 N      2, 4, 9, 13
    3    8 O      8, 12
    4    1 H      15-25
########################################################################
[WARNING] Please study the warnings concerning your input carefully
-1- readin_getIntValue: could not parse ''
########################################################################

          :  Hamiltonian                  GFN2-xTB          :
 * total energy  :   -42.1418392 Eh     change       -0.4263256E-13 Eh
 * total energy  :   -42.1427524 Eh     change       -0.9132728E-03 Eh
 * total energy  :   -42.1439190 Eh     change       -0.1166587E-02 Eh
 * total energy  :   -42.1443974 Eh     change       -0.4784036E-03 Eh
   *** GEOMETRY OPTIMIZATION CONVERGED AFTER 4 ITERATIONS ***

 final structure:
================
25
 xtb: 6.6.1 (8d0f1dd)
C            2.75414258273103        0.71413805766058       -1.21888295336856
N            2.25393758608045       -0.20464699912051       -0.22751903302078
C            3.09106854142624       -0.84007298121528        0.63036718401202
N            2.80967323847788       -1.57143542841497        1.62032390244403
C            0.08164660592997       -1.31315114560416       -0.37631587988853
C            0.85984705395001       -0.24995651183453       -0.07908725928284
C            0.19772368054133        0.99537710231859        0.37205130516068
O            0.82491037413103        1.98729627693772        0.67348035196691
N           -1.18147561502985        0.92538001620799        0.43070326558329
C           -1.91112386561862        2.10712292719957        0.86012547127386
C           -1.95282120876328       -0.16511924468180        0.07801522334460
O           -3.15535092379432       -0.14686565979477        0.09775077952748
N           -1.23779269453554       -1.31263019267827       -0.31984615156794
C           -2.01061898665477       -2.45865184100589       -0.75391029603547
H            2.68434868569644        1.74464283819905       -0.85427581328253
H            3.79322105104525        0.48974142533679       -1.44974846637144
H            2.15592772687539        0.62825535084197       -2.12683569449322
H            4.15007808981424       -0.69053621035136        0.41648262916030
H           -1.19139907457423        2.88803317915759        1.10173781322245
H           -2.57816823709144        2.44058667230797        0.06258637384196
H           -2.51988737597564        1.87038321634930        1.73471993861359
H           -2.04314744966736       -3.21804118871966        0.02983423171467
H           -1.55802915233301       -2.89219935084795       -1.64524527564601
H           -3.02900200156996       -2.13190014211626       -0.96814192128119
H            1.87272288300207       -1.77751162452978        1.94280189227143

          :  Hamiltonian                  GFN2-xTB          :
         :: total energy             -42.144397423497 Eh    ::
         :: gradient norm              0.008618643369 Eh/a0 ::
         :: HOMO-LUMO gap              0.769600569314 eV    ::
         :: SCC energy               -42.667305252431 Eh    ::
         :: -> dispersion             -0.021789362765 Eh    ::
         :: repulsion energy           0.522709092390 Eh    ::

    * Orbital Energies and Occupations

         #    Occupation            Energy/Eh            Energy/eV
      -------------------------------------------------------------
         1        2.0000           -0.9027371             -24.5647
       ...           ...                  ...                  ...
        25        1.9932           -0.6582298             -17.9113
        26        1.9913           -0.6522805             -17.7495
        27        1.9892           -0.6472422             -17.6124
        28        1.9870           -0.6427354             -17.4897
        29        1.9814           -0.6342151             -17.2579
        30        1.9780           -0.6302181             -17.1491
        31        1.9773           -0.6295098             -17.1298
        32        1.9716           -0.6241066             -16.9828
        33        1.9207           -0.5990519             -16.3010
        34        1.8958           -0.5922688             -16.1165
        35        1.8182           -0.5780649             -15.7299
        36        1.7253           -0.5670049             -15.4290
        37        1.6118           -0.5571816             -15.1617 (HOMO)
        38        1.1159           -0.5288993             -14.3921 (LUMO)
        39        0.0332           -0.4264303             -11.6038
        40        0.0147           -0.4068604             -11.0712
        41        0.0062           -0.3863131             -10.5121
        42        0.0003           -0.3131345              -8.5208
        43        0.0000           -0.2102862              -5.7222
        44        0.0000           -0.1589270              -4.3246
        45        0.0000           -0.1387616              -3.7759
        46                         -0.0871840              -2.3724
        47                         -0.0658531              -1.7920
        48                         -0.0454372              -1.2364
       ...                                ...                  ...
        67                          0.5240453              14.2600
      -------------------------------------------------------------
                  HL-Gap            0.0282823 Eh            0.7696 eV

     #   Z          covCN         q      C6AA      α(0)
     1   6 C        3.705    -0.076    22.107     6.722
     2   7 N        2.737     0.021    20.889     6.788
     3   6 C        2.768     0.130    25.147     8.213
     4   7 N        1.775    -0.200    26.133     7.570
     5   6 C        1.940    -0.031    31.925     9.125
     6   6 C        2.912     0.018    27.613     8.617
     7   6 C        2.774     0.269    22.456     7.761
     8   8 O        0.858    -0.328    20.285     6.039
     9   7 N        2.739    -0.060    22.400     7.029
    10   6 C        3.707    -0.060    21.805     6.675
    11   6 C        2.728     0.314    21.659     7.619
    12   8 O        0.859    -0.320    20.146     6.018
    13   7 N        2.743     0.014    21.018     6.809
    14   6 C        3.704    -0.071    22.015     6.708
    15   1 H        0.924     0.127     1.558     1.952
    16   1 H        0.925     0.109     1.707     2.043
    17   1 H        0.924     0.101     1.777     2.085
    18   1 H        0.924     0.126     1.568     1.959
    19   1 H        0.925     0.126     1.567     1.958
    20   1 H        0.924     0.118     1.626     1.994
    21   1 H        0.924     0.118     1.628     1.995
    22   1 H        0.924     0.118     1.633     1.998
    23   1 H        0.925     0.115     1.653     2.010
    24   1 H        0.924     0.127     1.556     1.950
    25   1 H        0.860     0.196     1.129     1.664

Wiberg/Mayer (AO) data.
largest (>0.10) Wiberg bond orders for each atom

     #   Z sym  total        # sym  WBO       # sym  WBO       # sym  WBO
 ---------------------------------------------------------------------------
     1   6 C    3.875 --     2 N    0.993    16 H    0.957    17 H    0.956
                            15 H    0.923
     2   7 N    3.379 --     3 C    1.208     6 C    1.034     1 C    0.993
     3   6 C    3.914 --     4 N    1.738     2 N    1.208    18 H    0.912
     4   7 N    2.782 --     3 C    1.738    25 H    0.917
     5   6 C    3.020 --     6 C    1.509    13 N    1.317
     6   6 C    3.721 --     5 C    1.509     2 N    1.034     7 C    0.988
     7   6 C    3.856 --     8 O    1.659     9 N    1.120     6 C    0.988
     8   8 O    1.939 --     7 C    1.659     9 N    0.115
     9   7 N    3.496 --     7 C    1.120    11 C    1.115    10 C    0.971
                            12 O    0.115     8 O    0.115
    10   6 C    3.848 --     9 N    0.971    19 H    0.953    21 H    0.942
                            20 H    0.941
    11   6 C    3.911 --    12 O    1.682     9 N    1.115    13 N    1.029
    12   8 O    1.974 --    11 C    1.682     9 N    0.115
    13   7 N    3.519 --     5 C    1.317    11 C    1.029    14 C    0.974
    14   6 C    3.855 --    13 N    0.974    23 H    0.953    24 H    0.951
                            22 H    0.938
    15   1 H    0.942 --     1 C    0.923
    16   1 H    0.974 --     1 C    0.957
    17   1 H    0.968 --     1 C    0.956
    18   1 H    0.953 --     3 C    0.912
    19   1 H    0.971 --    10 C    0.953
    20   1 H    0.959 --    10 C    0.941
    21   1 H    0.960 --    10 C    0.942
    22   1 H    0.956 --    14 C    0.938
    23   1 H    0.967 --    14 C    0.953
    24   1 H    0.970 --    14 C    0.951
    25   1 H    0.943 --     4 N    0.917
 ---------------------------------------------------------------------------

molecular dipole:
                 x           y           z       tot (Debye)
 q only:        0.907      -0.823      -0.578
   full:        0.738      -0.692      -0.659       3.069

           -------------------------------------------------
          | TOTAL ENERGY              -42.144397423497 Eh   |
          | GRADIENT NORM               0.008618643369 Eh/α |
          | HOMO-LUMO GAP               0.769600569314 eV   |
           -------------------------------------------------

 * finished run on 2024/06/05 at 19:58:46.789
