   * xtb version 6.6.1 (8d0f1dd) compiled by 'conda@1efc2f54142f' on 2023-08-01
          program call               : xtb struc.xyz --opt loose --input .xc1 --gfn2

   ID    Z sym.   atoms
    1    6 C      1, 3, 5-7, 10, 11, 14
    2    7 N      2, 4, 9, 13
    3    8 O      8, 12
    4    1 H      15-25
constraining bond 22 24 to    3.2800000 Å, actual value:    1.7745984 Å

          :  Hamiltonian                  GFN2-xTB          :
 * total energy  :   -38.2014252 Eh     change       -0.6650680E-10 Eh
 * total energy  :   -40.2917480 Eh     change       -0.2090323E+01 Eh
 * total energy  :   -41.6380484 Eh     change       -0.1346300E+01 Eh
 * total energy  :   -42.0392240 Eh     change       -0.4011756E+00 Eh
 * total energy  :   -42.0689089 Eh     change       -0.2968484E-01 Eh
 * total energy  :   -42.0699086 Eh     change       -0.9997617E-03 Eh
 * total energy  :   -42.0709964 Eh     change       -0.1087818E-02 Eh
 * total energy  :   -42.0724140 Eh     change       -0.1417589E-02 Eh
 * total energy  :   -42.0744774 Eh     change       -0.2063376E-02 Eh
 * total energy  :   -42.0756576 Eh     change       -0.1180206E-02 Eh
 * total energy  :   -42.1738597 Eh     change       -0.9299941E-03 Eh
 * total energy  :   -42.1740640 Eh     change       -0.2042651E-03 Eh
 * total energy  :   -42.1749952 Eh     change       -0.9312210E-03 Eh
 * total energy  :   -42.1753118 Eh     change       -0.3166707E-03 Eh
 * total energy  :   -42.1755291 Eh     change       -0.2172705E-03 Eh
 * total energy  :   -42.1756775 Eh     change       -0.1484145E-03 Eh
 * total energy  :   -42.1757746 Eh     change       -0.9708973E-04 Eh
 * total energy  :   -42.1758166 Eh     change       -0.4200907E-04 Eh
 * total energy  :   -42.1758410 Eh     change       -0.2434438E-04 Eh
   *** GEOMETRY OPTIMIZATION CONVERGED AFTER 35 ITERATIONS ***

 final structure:
================
25
 xtb: 6.6.1 (8d0f1dd)
C            3.23529254465173        1.20539046809860        0.07786390452567
N            2.32907989192927        0.08923654038721        0.05788491653860
C            2.66067975056635       -1.20876552719166        0.07535047984480
N            1.53811501727881       -1.96816880148008        0.04779291100232
C            0.46220320765304       -1.12395860338801        0.01316926397579
C            0.95620533115571        0.17710803635669        0.01864762088656
C            0.10689521377413        1.33277618431451       -0.04103148798685
O            0.44119602557244        2.49906265766633       -0.07535441576600
N           -1.25226055484166        0.94265554069977       -0.05501224915836
C           -2.25168171327674        1.99725031107545       -0.08557973318701
C           -1.69519952460739       -0.33243979708030       -0.02727435814329
O           -3.00977216585424       -0.51638325802532        0.01779237899983
N           -0.87414372462904       -1.42644466449304       -0.03546369221464
C           -1.35854378496614       -2.69870531699521       -0.02593105541251
H            3.77875728238790        1.23686440598051        1.02308513781872
H            3.95327061263118        1.12349611468321       -0.73809413970886
H            2.65793303900607        2.12245644762413       -0.03373607610878
H            3.65856993239640       -1.59421406042417        0.10417513693010
H           -1.71899594947929        2.94588098564810       -0.09775469385807
H           -2.86989041789338        1.90242905584792       -0.97658552521705
H           -2.88848133286554        1.93599739824528        0.79561528166036
H           -0.67048019830786       -3.50100139433345        0.09285212631139
H           -2.33259101483587       -2.91298147579904       -0.41616779275881
H           -3.21266905999013       -1.43313932857531        0.27642759899375
H            1.51694310664422       -2.97616337724204        0.03850007993230

          :  Hamiltonian                  GFN2-xTB          :
         :: total energy             -42.175840980845 Eh    ::
         :: gradient norm              0.002403562524 Eh/a0 ::
         :: HOMO-LUMO gap              1.412673948183 eV    ::
         :: SCC energy               -42.693040501752 Eh    ::
         :: -> dispersion             -0.023014863730 Eh    ::
         :: repulsion energy           0.517086168391 Eh    ::

    * Orbital Energies and Occupations

         #    Occupation            Energy/Eh            Energy/eV
      -------------------------------------------------------------
         1        2.0000           -0.9000243             -24.4909
       ...           ...                  ...                  ...
        25        2.0000           -0.6678542             -18.1732
        26        2.0000           -0.6625477             -18.0288
        27        2.0000           -0.6584718             -17.9179
        28        2.0000           -0.6429679             -17.4960
        29        2.0000           -0.6345765             -17.2677
        30        2.0000           -0.6207852             -16.8924
        31        2.0000           -0.6180744             -16.8187
        32        1.9999           -0.6023945             -16.3920
        33        1.9999           -0.5999334             -16.3250
        34        1.9995           -0.5797115             -15.7748
        35        1.9989           -0.5676184             -15.4457
        36        1.9968           -0.5510237             -14.9941
        37        1.5910           -0.4704580             -12.8018 (HOMO)
        38        0.2557           -0.4185431             -11.3891 (LUMO)
        39        0.1431           -0.4083663             -11.1122
        40        0.0154           -0.3720043             -10.1228
        41        0.0000           -0.2802519              -7.6260
        42        0.0000           -0.1942728              -5.2864
        43        0.0000           -0.1857356              -5.0541
        44                         -0.1406930              -3.8285
        45                         -0.1239824              -3.3737
        46                         -0.0920614              -2.5051
        47                         -0.0518806              -1.4117
        48                         -0.0311076              -0.8465
       ...                                ...                  ...
        67                          0.5386112              14.6564
      -------------------------------------------------------------
                  HL-Gap            0.0519148 Eh            1.4127 eV

     #   Z          covCN         q      C6AA      α(0)
     1   6 C        3.691    -0.092    22.453     6.781
     2   7 N        2.826     0.067    20.071     6.654
     3   6 C        3.037     0.039    27.093     8.537
     4   7 N        2.781    -0.060    22.406     7.030
     5   6 C        3.074     0.082    26.107     8.377
     6   6 C        3.097    -0.018    28.343     8.725
     7   6 C        2.766     0.248    22.839     7.827
     8   8 O        0.857    -0.390    21.477     6.213
     9   7 N        2.746    -0.047    22.149     6.990
    10   6 C        3.707    -0.071    22.005     6.705
    11   6 C        2.774     0.226    23.256     7.898
    12   8 O        1.660    -0.331    19.552     5.969
    13   7 N        2.736     0.020    20.893     6.789
    14   6 C        2.797    -0.147    31.777     9.235
    15   1 H        0.924     0.101     1.772     2.082
    16   1 H        0.925     0.100     1.783     2.088
    17   1 H        0.925     0.133     1.509     1.921
    18   1 H        0.927     0.117     1.636     2.000
    19   1 H        0.925     0.124     1.584     1.968
    20   1 H        0.925     0.098     1.806     2.102
    21   1 H        0.925     0.097     1.815     2.107
    22   1 H        0.927     0.058     2.218     2.329
    23   1 H        0.926     0.066     2.132     2.283
    24   1 H        0.804     0.356     0.574     1.190
    25   1 H        0.860     0.224     0.992     1.560

Wiberg/Mayer (AO) data.
largest (>0.10) Wiberg bond orders for each atom

     #   Z sym  total        # sym  WBO       # sym  WBO       # sym  WBO
 ---------------------------------------------------------------------------
     1   6 C    3.920 --     2 N    0.988    16 H    0.963    17 H    0.961
                            15 H    0.960
     2   7 N    3.603 --     3 C    1.331     6 C    1.154     1 C    0.988
     3   6 C    3.734 --     2 N    1.331     4 N    1.258    18 H    0.955
     4   7 N    3.527 --     3 C    1.258     5 C    1.178    25 H    0.920
     5   6 C    3.858 --     6 C    1.335     4 N    1.178    13 N    1.112
     6   6 C    3.880 --     5 C    1.335     2 N    1.154     7 C    1.106
     7   6 C    3.896 --     8 O    1.638     6 C    1.106     9 N    1.038
     8   8 O    1.942 --     7 C    1.638     9 N    0.135
     9   7 N    3.544 --    11 C    1.243     7 C    1.038    10 C    0.970
                             8 O    0.135
    10   6 C    3.916 --     9 N    0.970    20 H    0.966    19 H    0.965
                            21 H    0.965
    11   6 C    3.775 --     9 N    1.243    13 N    1.155    12 O    1.145
                            14 C    0.112
    12   8 O    2.161 --    11 C    1.145    24 H    0.827
    13   7 N    3.650 --    14 C    1.185    11 C    1.155     5 C    1.112
    14   6 C    3.396 --    13 N    1.185    22 H    0.974    23 H    0.961
                            11 C    0.112
    15   1 H    0.983 --     1 C    0.960
    16   1 H    0.985 --     1 C    0.963
    17   1 H    0.982 --     1 C    0.961
    18   1 H    0.985 --     3 C    0.955
    19   1 H    0.984 --    10 C    0.965
    20   1 H    0.986 --    10 C    0.966
    21   1 H    0.986 --    10 C    0.965
    22   1 H    0.996 --    14 C    0.974
    23   1 H    0.993 --    14 C    0.961
    24   1 H    0.871 --    12 O    0.827
    25   1 H    0.949 --     4 N    0.920
 ---------------------------------------------------------------------------

molecular dipole:
                 x           y           z       tot (Debye)
 q only:        1.042      -1.878       0.205
   full:        1.124      -2.633       0.184       7.293

           -------------------------------------------------
          | TOTAL ENERGY              -42.175840980845 Eh   |
          | GRADIENT NORM               0.002403562524 Eh/α |
          | HOMO-LUMO GAP               1.412673948183 eV   |
           -------------------------------------------------

 * finished run on 2024/06/05 at 19:58:08.553
