   * xtb version 6.6.1 (8d0f1dd) compiled by 'conda@1efc2f54142f' on 2023-08-01
          program call               : xtb xtbopt.xyz --opt crude --input .xc2 --gfn2

   ID    Z sym.   atoms
    1    7 N      1, 17
    2    6 C      2-6, 8, 9, 11-16, 18-23, 25, 26, 28-33
    3    8 O      7, 10, 24, 27
    4    1 H      34-72

          :  Hamiltonian                  GFN2-xTB          :
 * total energy  :   -99.2543339 Eh     change       -0.2685852E-10 Eh
   *** GEOMETRY OPTIMIZATION CONVERGED AFTER 1 ITERATIONS ***

 final structure:
================
72
 xtb: 6.6.1 (8d0f1dd)
N           -1.87870460219809        2.87477529912888        2.28301355929347
C           -1.80620801780677        2.15966604162585        1.26332418353674
C           -2.92259866538914        1.96300173553663        0.27455269492519
C           -3.40393322398190        0.52159747148401        0.33453662133684
C           -4.27734640588293        0.03882387980882       -0.64204117493633
C           -4.76940407343985       -1.25551596452753       -0.59689404818603
O           -5.61921714948663       -1.79780001356012       -1.49120698790937
C           -6.15586837870943       -0.99095861201017       -2.51323576786609
C           -4.37510545202170       -2.11874244869046        0.46243636070953
O           -4.90462643571167       -3.35635660329096        0.42713364509243
C           -4.65430151745129       -4.24223081044638        1.49384788600096
C           -3.50607671110771       -1.63321546095079        1.42699079331735
C           -3.02919923830664       -0.33012061082944        1.36300028576861
C           -2.31249130291793        2.27647564025070       -1.11647861875807
C           -1.38673276628160        1.17947022285947       -1.67157169334861
C           -0.08354755322742        1.08347930884463       -0.97790122863050
N            0.50273071341112       -0.04531819317916       -0.60810256280053
C            1.87482107875568       -0.05136146022873       -0.15505007417189
C            2.83586059437600       -0.51204136842094       -1.26722656011166
C            4.24303004685086       -0.57063161871612       -0.73209349764107
C            5.02481431739169        0.57621803412541       -0.72576303376973
C            6.32132764043359        0.52312021072501       -0.20022727877731
C            6.72738044726704       -0.66481060180347        0.27837710836269
O            7.77272973383324        3.11781897774557       -0.29972623365577
C            9.07030449591161        3.39469995054361       -0.28624421945400
C            6.02850122240989       -1.85000014019468        0.31709253972504
O            6.59305030296771       -2.95207967468196        0.83352953318360
C            5.86312033765575       -4.15740384447564        0.86343181664270
C            4.73071833721608       -1.76580114140932       -0.21477093969507
C           -0.15780551014123       -1.32413283264065       -0.72243174945215
C           -4.14694210225556        2.89190745057797        0.53288106729125
C           -4.82293520467649        2.57231796640024        1.86372513778131
C           -3.79540931358573        4.37568473804537        0.47378101275781
H           -4.59065941073668        0.69181189759712       -1.43961053024321
H           -6.70774388676583       -0.14004950986344       -2.10267010486397
H           -6.84144127706549       -1.63347473293450       -3.06219697961344
H           -5.37743276016211       -0.63056175644122       -3.19359982667429
H           -4.99164451134773       -3.82565937699203        2.44729841567597
H           -5.22771015075418       -5.13928466359619        1.26865198114753
H           -3.59259314471920       -4.49948309486086        1.56205296709916
H           -3.20263698647280       -2.25913191559386        2.25041447635489
H           -2.38034452926109        0.02068732112772        2.15041680495273
H           -3.12252200861216        2.42430994858614       -1.82977767456227
H           -1.75752249047634        3.21304996678071       -1.05122318848320
H           -1.91229872060473        0.22630877376220       -1.67447164375942
H           -1.17505779292970        1.44820232129625       -2.71484824873472
H           -0.88900532734718        1.62214819927631        0.94975577289238
H            0.50443618144632        1.98601253603468       -0.89373582128638
H            1.96447500907850       -0.72310017454976        0.70311744375100
H            2.15829794412989        0.95249988268025        0.16644364096160
H            2.78220256037911        0.19395557771823       -2.09735085524667
H            2.53210226680585       -1.49480345736553       -1.63002077916568
H            4.66083238958691        1.50852252037069       -1.12717002537167
H            6.93521129176396        1.42475654253259       -0.19766441059036
H            9.25552016847618        4.43678635613124        0.04033197276670
H            9.53134724393322        3.27704321441983       -1.28649235223553
H            9.62802842139143        2.73411753515114        0.40732674074369
H            6.53278352269123       -4.89276281499339        1.30458965665294
H            4.96748383326670       -4.06582684693930        1.48579559926397
H            5.58364255175848       -4.48219539303150       -0.14332160838368
H            4.10942015375355       -2.64921090525894       -0.23392004411225
H           -0.30719478376433       -1.60070669784611       -1.76822624342390
H           -1.12966808984960       -1.29715204343579       -0.22313854959415
H            0.45290941858849       -2.08709750396579       -0.24602912428199
H           -4.86642030161132        2.68190807789453       -0.26715161767895
H           -4.14566933989947        2.78099426564164        2.68562050732911
H           -5.12643609114761        1.52932149822701        1.91106032555585
H           -5.70844103307402        3.19155577265055        1.97953540129798
H           -3.03762398662530        4.61498205838439        1.21425656930053
H           -3.44244493734105        4.67092379291200       -0.51133393363407
H           -4.68371040863184        4.96128216600895        0.69765488839329
H           -1.05589103492478        2.96292465702021        2.87020666375242

          :  Hamiltonian                  GFN2-xTB          :
         :: total energy             -99.254333925201 Eh    ::
         :: gradient norm              0.002580196611 Eh/a0 ::
         :: HOMO-LUMO gap              0.752760604690 eV    ::
         :: SCC energy              -100.635233033383 Eh    ::
         :: -> dispersion             -0.072650980069 Eh    ::
         :: repulsion energy           1.379635433405 Eh    ::

    * Orbital Energies and Occupations

         #    Occupation            Energy/Eh            Energy/eV
      -------------------------------------------------------------
         1        2.0000           -0.8161957             -22.2098
       ...           ...                  ...                  ...
        78        1.9977           -0.5330641             -14.5054
        79        1.9969           -0.5288525             -14.3908
        80        1.9965           -0.5266049             -14.3296
        81        1.9949           -0.5207699             -14.1709
        82        1.9939           -0.5179224             -14.0934
        83        1.9929           -0.5153711             -14.0240
        84        1.9849           -0.5034164             -13.6987
        85        1.9782           -0.4975776             -13.5398
        86        1.9268           -0.4779742             -13.0063
        87        1.9215           -0.4768255             -12.9751
        88        1.8527           -0.4662890             -12.6884
        89        1.6013           -0.4482099             -12.1964
        90        1.5855           -0.4474353             -12.1753 (HOMO)
        91        0.7999           -0.4197718             -11.4226 (LUMO)
        92        0.3660           -0.4025052             -10.9527
        93        0.0122           -0.3455050              -9.4017
        94        0.0031           -0.3238213              -8.8116
        95        0.0026           -0.3208870              -8.7318
        96        0.0024           -0.3200043              -8.7078
        97        0.0019           -0.3158028              -8.5934
        98        0.0000           -0.1983849              -5.3983
        99        0.0000           -0.1879577              -5.1146
       100                         -0.1439954              -3.9183
       101                         -0.0751354              -2.0445
       ...                                ...                  ...
       171                          0.5902151              16.0606
      -------------------------------------------------------------
                  HL-Gap            0.0276634 Eh            0.7528 eV

     #   Z          covCN         q      C6AA      α(0)
     1   7 N        1.774    -0.262    27.636     7.785
     2   6 C        2.827     0.102    25.737     8.313
     3   6 C        3.907     0.007    20.411     6.422
     4   6 C        2.974     0.002    27.968     8.675
     5   6 C        2.920    -0.080    30.008     8.983
     6   6 C        2.862     0.130    25.150     8.220
     7   8 O        1.706    -0.227    17.766     5.691
     8   6 C        3.644     0.027    20.466     6.503
     9   6 C        2.864     0.129    25.166     8.223
    10   8 O        1.706    -0.226    17.742     5.687
    11   6 C        3.645     0.026    20.476     6.504
    12   6 C        2.913    -0.074    29.848     8.959
    13   6 C        2.921    -0.053    29.308     8.878
    14   6 C        3.812    -0.065    21.744     6.637
    15   6 C        3.802    -0.070    21.846     6.654
    16   6 C        2.843     0.011    27.768     8.636
    17   7 N        2.729     0.016    20.968     6.801
    18   6 C        3.756    -0.018    20.951     6.526
    19   6 C        3.808    -0.070    21.838     6.652
    20   6 C        2.967     0.006    27.884     8.662
    21   6 C        2.941    -0.038    28.934     8.822
    22   6 C        2.909    -0.018    28.453     8.747
    23   6 C        2.038    -0.032    31.840     9.114
    24   8 O        0.854    -0.421    22.107     6.304
    25   6 C        3.620     0.082    19.656     6.393
    26   6 C        2.856     0.168    24.370     8.091
    27   8 O        1.705    -0.223    17.703     5.681
    28   6 C        3.645     0.027    20.451     6.500
    29   6 C        2.941    -0.075    29.879     8.965
    30   6 C        3.700    -0.072    22.044     6.714
    31   6 C        3.853    -0.007    20.670     6.466
    32   6 C        3.756    -0.119    22.838     6.814
    33   6 C        3.755    -0.119    22.844     6.815
    34   1 H        0.926     0.053     2.279     2.361
    35   1 H        0.924     0.056     2.252     2.347
    36   1 H        0.925     0.083     1.948     2.183
    37   1 H        0.924     0.048     2.341     2.393
    38   1 H        0.924     0.057     2.235     2.338
    39   1 H        0.925     0.083     1.949     2.183
    40   1 H        0.924     0.050     2.325     2.385
    41   1 H        0.926     0.054     2.270     2.356
    42   1 H        0.926     0.041     2.438     2.442
    43   1 H        0.925     0.062     2.172     2.305
    44   1 H        0.924     0.056     2.242     2.341
    45   1 H        0.925     0.068     2.112     2.273
    46   1 H        0.923     0.084     1.938     2.177
    47   1 H        0.922     0.007     2.932     2.678
    48   1 H        0.926     0.075     2.032     2.229
    49   1 H        0.924     0.070     2.090     2.261
    50   1 H        0.924     0.072     2.062     2.246
    51   1 H        0.924     0.060     2.205     2.322
    52   1 H        0.924     0.057     2.233     2.337
    53   1 H        0.926     0.065     2.144     2.290
    54   1 H        0.924     0.147     1.412     1.858
    55   1 H        0.922     0.071     2.078     2.254
    56   1 H        0.922     0.064     2.157     2.297
    57   1 H        0.922     0.063     2.168     2.303
    58   1 H        0.925     0.083     1.945     2.181
    59   1 H        0.924     0.049     2.329     2.387
    60   1 H        0.924     0.053     2.279     2.361
    61   1 H        0.926     0.052     2.295     2.369
    62   1 H        0.924     0.078     1.997     2.210
    63   1 H        0.924     0.081     1.971     2.196
    64   1 H        0.925     0.081     1.965     2.192
    65   1 H        0.924     0.039     2.465     2.455
    66   1 H        0.925     0.070     2.082     2.256
    67   1 H        0.925     0.036     2.503     2.474
    68   1 H        0.925     0.053     2.280     2.361
    69   1 H        0.925     0.062     2.180     2.309
    70   1 H        0.925     0.037     2.496     2.470
    71   1 H        0.925     0.057     2.237     2.339
    72   1 H        0.860     0.161     1.327     1.804

Wiberg/Mayer (AO) data.
largest (>0.10) Wiberg bond orders for each atom

     #   Z sym  total        # sym  WBO       # sym  WBO       # sym  WBO
 ---------------------------------------------------------------------------
     1   7 N    3.043 --     2 C    1.961    72 H    0.940
     2   6 C    3.931 --     1 N    1.961     3 C    0.993    47 H    0.899
     3   6 C    3.974 --     2 C    0.993     4 C    0.971    14 C    0.957
                            31 C    0.940
     4   6 C    3.945 --    13 C    1.410     5 C    1.369     3 C    0.971
     5   6 C    3.960 --     6 C    1.399     4 C    1.369    34 H    0.958
     6   6 C    3.902 --     5 C    1.399     9 C    1.218     7 O    1.103
     7   8 O    2.255 --     6 C    1.103     8 C    0.977
     8   6 C    3.930 --     7 O    0.977    36 H    0.976    35 H    0.973
                            37 H    0.973
     9   6 C    3.898 --    12 C    1.389     6 C    1.218    10 O    1.106
    10   8 O    2.253 --     9 C    1.106    11 C    0.976
    11   6 C    3.929 --    39 H    0.977    10 O    0.976    40 H    0.973
                            38 H    0.973
    12   6 C    3.960 --    13 C    1.405     9 C    1.389    41 H    0.963
    13   6 C    3.950 --     4 C    1.410    12 C    1.405    42 H    0.962
    14   6 C    3.972 --    15 C    0.981    44 H    0.972    43 H    0.968
                             3 C    0.957
    15   6 C    3.986 --    16 C    1.061    14 C    0.981    45 H    0.961
                            46 H    0.925
    16   6 C    3.614 --    17 N    1.417    15 C    1.061    48 H    0.956
    17   7 N    3.494 --    16 C    1.417    30 C    0.997    18 C    0.987
    18   6 C    3.956 --    17 N    0.987    19 C    0.968    50 H    0.967
                            49 H    0.963
    19   6 C    3.970 --    20 C    1.000    52 H    0.972    51 H    0.971
                            18 C    0.968
    20   6 C    3.968 --    21 C    1.421    29 C    1.414    19 C    1.000
    21   6 C    3.880 --    20 C    1.421    22 C    1.320    53 H    0.959
    22   6 C    3.908 --    23 C    1.563    21 C    1.320    54 H    0.880
    23   6 C    3.153 --    22 C    1.563    26 C    1.343
    24   8 O    1.252 --    25 C    1.179
    25   6 C    3.874 --    24 O    1.179    57 H    0.899    56 H    0.898
                            55 H    0.894
    26   6 C    3.890 --    23 C    1.343    29 C    1.299    27 O    1.109
    27   8 O    2.263 --    26 C    1.109    28 C    0.975
    28   6 C    3.931 --    58 H    0.976    27 O    0.975    59 H    0.974
                            60 H    0.973
    29   6 C    3.902 --    20 C    1.414    26 C    1.299    61 H    0.952
    30   6 C    3.956 --    17 N    0.997    64 H    0.977    62 H    0.966
                            63 H    0.961
    31   6 C    3.970 --    33 C    1.009    32 C    1.008    65 H    0.959
                             3 C    0.940
    32   6 C    3.975 --    31 C    1.008    67 H    0.981    68 H    0.980
                            66 H    0.972
    33   6 C    3.980 --    31 C    1.009    70 H    0.983    71 H    0.979
                            69 H    0.975
    34   1 H    0.996 --     5 C    0.958
    35   1 H    0.993 --     8 C    0.973
    36   1 H    0.992 --     8 C    0.976
    37   1 H    0.993 --     8 C    0.973
    38   1 H    0.992 --    11 C    0.973
    39   1 H    0.992 --    11 C    0.977
    40   1 H    0.992 --    11 C    0.973
    41   1 H    0.995 --    12 C    0.963
    42   1 H    0.998 --    13 C    0.962
    43   1 H    0.995 --    14 C    0.968
    44   1 H    0.996 --    14 C    0.972
    45   1 H    0.995 --    15 C    0.961
    46   1 H    0.970 --    15 C    0.925
    47   1 H    0.984 --     2 C    0.899
    48   1 H    0.994 --    16 C    0.956
    49   1 H    0.990 --    18 C    0.963
    50   1 H    0.994 --    18 C    0.967
    51   1 H    0.996 --    19 C    0.971
    52   1 H    0.996 --    19 C    0.972
    53   1 H    0.987 --    21 C    0.959
    54   1 H    0.954 --    22 C    0.880
    55   1 H    0.898 --    25 C    0.894
    56   1 H    0.902 --    25 C    0.898
    57   1 H    0.904 --    25 C    0.899
    58   1 H    0.992 --    28 C    0.976
    59   1 H    0.994 --    28 C    0.974
    60   1 H    0.993 --    28 C    0.973
    61   1 H    0.985 --    29 C    0.952
    62   1 H    0.985 --    30 C    0.966
    63   1 H    0.987 --    30 C    0.961
    64   1 H    0.993 --    30 C    0.977
    65   1 H    0.991 --    31 C    0.959
    66   1 H    0.990 --    32 C    0.972
    67   1 H    0.996 --    32 C    0.981
    68   1 H    0.993 --    32 C    0.980
    69   1 H    0.992 --    33 C    0.975
    70   1 H    0.996 --    33 C    0.983
    71   1 H    0.993 --    33 C    0.979
    72   1 H    0.968 --     1 N    0.940
 ---------------------------------------------------------------------------

molecular dipole:
                 x           y           z       tot (Debye)
 q only:       -0.816      -1.148      -0.755
   full:       -0.343      -1.263      -0.879       4.008

           -------------------------------------------------
          | TOTAL ENERGY              -99.254333925201 Eh   |
          | GRADIENT NORM               0.002580196611 Eh/α |
          | HOMO-LUMO GAP               0.752760604690 eV   |
           -------------------------------------------------

 * finished run on 2024/04/06 at 11:14:32.367
