   * xtb version 6.6.1 (8d0f1dd) compiled by 'conda@1efc2f54142f' on 2023-08-01
          program call               : xtb struc.xyz --opt loose --input .xc1 --gfn2

   ID    Z sym.   atoms
    1    6 C      1, 3, 5-7, 10, 11, 14
    2    7 N      2, 4, 9, 13
    3    8 O      8, 12
    4    1 H      15-25
constraining bond 5 14 to    5.0000000 Å, actual value:    2.4460888 Å

          :  Hamiltonian                  GFN2-xTB          :
 * total energy  :   -30.6139842 Eh     change       -0.2401990E-09 Eh
 * total energy  :   -34.8220857 Eh     change       -0.4208101E+01 Eh
 * total energy  :   -38.0017225 Eh     change       -0.3179637E+01 Eh
 * total energy  :   -40.0834310 Eh     change       -0.2081708E+01 Eh
 * total energy  :   -41.1400464 Eh     change       -0.1056615E+01 Eh
 * total energy  :   -41.4226483 Eh     change       -0.2826018E+00 Eh
 * total energy  :   -41.4710938 Eh     change       -0.4844555E-01 Eh
 * total energy  :   -41.5142082 Eh     change       -0.4311445E-01 Eh
 * total energy  :   -41.5549866 Eh     change       -0.4077832E-01 Eh
 * total energy  :   -41.5966600 Eh     change       -0.4167339E-01 Eh
 * total energy  :   -42.2031305 Eh     change       -0.2152048E-02 Eh
 * total energy  :   -42.2053560 Eh     change       -0.2225586E-02 Eh
 * total energy  :   -42.2022509 Eh     change        0.3105159E-02 Eh
 * total energy  :   -42.2082364 Eh     change       -0.5985562E-02 Eh
 * total energy  :   -42.2085154 Eh     change       -0.2789336E-03 Eh
 * total energy  :   -42.2090810 Eh     change       -0.5655955E-03 Eh
 * total energy  :   -42.2089723 Eh     change        0.1086588E-03 Eh
 * total energy  :   -42.2093322 Eh     change       -0.3598368E-03 Eh
 * total energy  :   -42.2093498 Eh     change       -0.1764835E-04 Eh
   *** GEOMETRY OPTIMIZATION CONVERGED AFTER 56 ITERATIONS ***

 final structure:
================
25
 xtb: 6.6.1 (8d0f1dd)
C            3.35390286164483        1.78752299159135        0.03308303549863
N            2.73359927377931        0.49017086310496        0.03695009073512
C            3.35825126037476       -0.69497737692454        0.06442222544143
N            2.45280113737820       -1.70137610005096        0.06765840149146
C            1.22137779307116       -1.13481391486844        0.03956752339210
C            1.38228759218602        0.24375595691145        0.02115454162938
C            0.23408278086934        1.11003599204191       -0.01312246058038
O            0.26769174333912        2.32572276343204       -0.03441712780655
N           -0.98898133578282        0.40321067314210       -0.02202943214990
C           -2.18224380899189        1.22983295441911       -0.04989852175393
C           -1.12439936930266       -0.98730534516648       -0.00330344627882
O           -2.43505998339381       -1.25955306646050       -0.00515371087616
N           -0.02326490874721       -1.73696097158337        0.02532602949368
C           -3.62908010366381       -2.22688399008630       -0.04740390496296
H            3.93090008863530        1.93643435234347        0.94694729231320
H            4.02184784728248        1.88771096391149       -0.82323013816507
H            2.57233132230334        2.54486940600648       -0.02595176150234
H            4.42132539754639       -0.82952056421883        0.08323077448741
H           -1.86240465049413        2.27089954217156       -0.06394210222355
H           -2.77140031137956        1.01266356848720       -0.94040347480458
H           -2.79126404979202        1.04286237965663        0.83413302010308
H           -3.57875907277588       -2.88286175235361        0.81687788148782
H           -3.58384227803025       -2.78213196206362       -0.97993006516452
H           -4.46336245939660       -1.53834446107109       -0.00640999789291
H            2.64409474742961       -2.69272436076981        0.07701694598247

          :  Hamiltonian                  GFN2-xTB          :
         :: total energy             -42.209349803964 Eh    ::
         :: gradient norm              0.002014952071 Eh/a0 ::
         :: HOMO-LUMO gap              3.332505023042 eV    ::
         :: SCC energy               -42.703975087809 Eh    ::
         :: -> dispersion             -0.021467730562 Eh    ::
         :: repulsion energy           0.493273683105 Eh    ::

    * Orbital Energies and Occupations

         #    Occupation            Energy/Eh            Energy/eV
      -------------------------------------------------------------
         1        2.0000           -0.8871586             -24.1408
       ...           ...                  ...                  ...
        25        1.9993           -0.6596557             -17.9501
        26        1.9990           -0.6503798             -17.6977
        27        1.9986           -0.6431413             -17.5008
        28        1.9975           -0.6297384             -17.1361
        29        1.9966           -0.6227656             -16.9463
        30        1.9930           -0.6051308             -16.4664
        31        1.9925           -0.6034667             -16.4212
        32        1.9909           -0.5990171             -16.3001
        33        1.9868           -0.5900757             -16.0568
        34        1.9605           -0.5637155             -15.3395
        35        1.9467           -0.5564383             -15.1415
        36        1.9227           -0.5473242             -14.8935
        37        1.9018           -0.5413898             -14.7320 (HOMO)
        38        0.2008           -0.4189224             -11.3995 (LUMO)
        39        0.0885           -0.3980120             -10.8305
        40        0.0251           -0.3673026              -9.9948
        41        0.0016           -0.3011367              -8.1943
        42        0.0005           -0.2738720              -7.4524
        43        0.0000           -0.1788124              -4.8657
        44        0.0000           -0.1640018              -4.4627
        45        0.0000           -0.1392237              -3.7885
        46                         -0.0707294              -1.9246
        47                         -0.0418260              -1.1381
        48                         -0.0179756              -0.4891
       ...                                ...                  ...
        67                          0.5169906              14.0680
      -------------------------------------------------------------
                  HL-Gap            0.1224673 Eh            3.3325 eV

     #   Z          covCN         q      C6AA      α(0)
     1   6 C        3.690    -0.089    22.389     6.771
     2   7 N        2.828     0.070    20.020     6.645
     3   6 C        3.072     0.047    26.873     8.500
     4   7 N        2.780    -0.046    22.133     6.987
     5   6 C        3.065     0.134    25.020     8.202
     6   6 C        3.105    -0.016    28.265     8.711
     7   6 C        2.769     0.266    22.516     7.771
     8   8 O        0.858    -0.373    21.146     6.165
     9   7 N        2.747    -0.067    22.548     7.052
    10   6 C        3.701    -0.065    21.916     6.694
    11   6 C        2.716     0.305    21.827     7.648
    12   8 O        1.681    -0.253    18.197     5.759
    13   7 N        1.829    -0.272    27.903     7.828
    14   6 C        3.596     0.014    20.944     6.624
    15   1 H        0.924     0.103     1.754     2.071
    16   1 H        0.924     0.103     1.759     2.074
    17   1 H        0.925     0.131     1.527     1.932
    18   1 H        0.926     0.118     1.626     1.994
    19   1 H        0.925     0.122     1.594     1.975
    20   1 H        0.925     0.094     1.839     2.121
    21   1 H        0.925     0.095     1.836     2.119
    22   1 H        0.925     0.110     1.693     2.035
    23   1 H        0.925     0.110     1.693     2.035
    24   1 H        0.925     0.124     1.578     1.964
    25   1 H        0.860     0.234     0.949     1.526

Wiberg/Mayer (AO) data.
largest (>0.10) Wiberg bond orders for each atom

     #   Z sym  total        # sym  WBO       # sym  WBO       # sym  WBO
 ---------------------------------------------------------------------------
     1   6 C    3.914 --     2 N    0.989    17 H    0.961    16 H    0.960
                            15 H    0.958
     2   7 N    3.622 --     3 C    1.341     6 C    1.160     1 C    0.989
     3   6 C    3.761 --     2 N    1.341     4 N    1.274    18 H    0.954
     4   7 N    3.568 --     3 C    1.274     5 C    1.197    25 H    0.918
     5   6 C    3.901 --     6 C    1.319    13 N    1.217     4 N    1.197
     6   6 C    3.859 --     5 C    1.319     2 N    1.160     7 C    1.102
     7   6 C    3.903 --     8 O    1.637     6 C    1.102     9 N    1.075
     8   8 O    1.940 --     7 C    1.637     9 N    0.129
     9   7 N    3.513 --    11 C    1.142     7 C    1.075    10 C    0.982
                             8 O    0.129
    10   6 C    3.902 --     9 N    0.982    20 H    0.958    21 H    0.958
                            19 H    0.955
    11   6 C    3.869 --    13 N    1.391    12 O    1.194     9 N    1.142
    12   8 O    2.282 --    11 C    1.194    14 C    0.863    13 N    0.102
    13   7 N    2.915 --    11 C    1.391     5 C    1.217    12 O    0.102
    14   6 C    3.826 --    22 H    0.971    23 H    0.971    24 H    0.969
                            12 O    0.863
    15   1 H    0.981 --     1 C    0.958
    16   1 H    0.982 --     1 C    0.960
    17   1 H    0.980 --     1 C    0.961
    18   1 H    0.985 --     3 C    0.954
    19   1 H    0.978 --    10 C    0.955
    20   1 H    0.979 --    10 C    0.958
    21   1 H    0.979 --    10 C    0.958
    22   1 H    0.981 --    14 C    0.971
    23   1 H    0.981 --    14 C    0.971
    24   1 H    0.981 --    14 C    0.969
    25   1 H    0.944 --     4 N    0.918
 ---------------------------------------------------------------------------

molecular dipole:
                 x           y           z       tot (Debye)
 q only:        1.288      -1.510       0.024
   full:        1.526      -1.838       0.028       6.073

           -------------------------------------------------
          | TOTAL ENERGY              -42.209349803964 Eh   |
          | GRADIENT NORM               0.002014952071 Eh/α |
          | HOMO-LUMO GAP               3.332505023042 eV   |
           -------------------------------------------------

 * finished run on 2024/06/05 at 19:58:47.299
