   * xtb version 6.6.1 (8d0f1dd) compiled by 'conda@1efc2f54142f' on 2023-08-01
          program call               : xtb xtbopt.xyz --opt crude --input .xc2 --gfn2

   ID    Z sym.   atoms
    1    6 C      1, 3, 5-7, 10, 11, 14
    2    7 N      2, 4, 9, 13
    3    8 O      8, 12
    4    1 H      15-25
########################################################################
[WARNING] Please study the warnings concerning your input carefully
-1- readin_getIntValue: could not parse ''
########################################################################

          :  Hamiltonian                  GFN2-xTB          :
 * total energy  :   -42.2106866 Eh     change       -0.4192202E-12 Eh
 * total energy  :   -42.2248490 Eh     change       -0.1416235E-01 Eh
 * total energy  :   -42.2352326 Eh     change       -0.1038368E-01 Eh
 * total energy  :   -42.2412232 Eh     change       -0.5990557E-02 Eh
 * total energy  :   -42.2470114 Eh     change       -0.5788204E-02 Eh
 * total energy  :   -42.2514573 Eh     change       -0.4445931E-02 Eh
 * total energy  :   -42.2544393 Eh     change       -0.2981990E-02 Eh
 * total energy  :   -42.2558988 Eh     change       -0.1459533E-02 Eh
 * total energy  :   -42.2563489 Eh     change       -0.4500326E-03 Eh
 * total energy  :   -42.2568009 Eh     change       -0.4520565E-03 Eh
   *** GEOMETRY OPTIMIZATION CONVERGED AFTER 10 ITERATIONS ***

 final structure:
================
25
 xtb: 6.6.1 (8d0f1dd)
C            3.31111012141053        1.59650852772231        0.03655391999680
N            2.57094595198479        0.36285154690153        0.03618953583782
C            3.06332820995543       -0.87957697559501        0.05859517579794
N            2.05179024679203       -1.77847553860182        0.05283758539842
C            0.87627967725382       -1.09222998107219        0.02655723578787
C            1.20062457260974        0.26582203244116        0.01608761368549
C            0.17556618254384        1.27106292036745       -0.01350653501828
O            0.33002586860318        2.47449141095697       -0.02965248177315
N           -1.10819793520347        0.68196667259284       -0.02345902664046
C           -2.25421413106845        1.56990851288663       -0.05247127658285
C           -1.31721573797107       -0.66656736565459       -0.01192020049521
O           -2.58259939455392       -1.01395980208423       -0.02396818506757
N           -0.36896028180838       -1.57635708182585        0.01182568906651
C           -2.90672472971089       -2.40056408958649       -0.03026554832762
H            3.90081092125200        1.68866436389573        0.94981299039770
H            3.98394018485877        1.63924897217603       -0.82073250313762
H            2.60216066922375        2.42334904376610       -0.01773874571576
H            4.10467571486313       -1.13116498667988        0.07756508478500
H           -1.87904068641340        2.59264437085207       -0.06681492400954
H           -2.85402540202966        1.38036560259266       -0.94243383959848
H           -2.87402042174621        1.41297315939325        0.83009690431822
H           -2.48956930666125       -2.90260868638448        0.84178156303840
H           -2.52830125699726       -2.88257253071275       -0.93460665992731
H           -3.99647221670714       -2.43410603867795       -0.00597347583791
H            2.14851469360959       -2.78343551806695        0.06681172191570

          :  Hamiltonian                  GFN2-xTB          :
         :: total energy             -42.256800933054 Eh    ::
         :: gradient norm              0.006510553856 Eh/a0 ::
         :: HOMO-LUMO gap              3.391874941819 eV    ::
         :: SCC energy               -42.770200833021 Eh    ::
         :: -> dispersion             -0.021985871595 Eh    ::
         :: repulsion energy           0.513342552346 Eh    ::

    * Orbital Energies and Occupations

         #    Occupation            Energy/Eh            Energy/eV
      -------------------------------------------------------------
         1        2.0000           -0.8943637             -24.3369
       ...           ...                  ...                  ...
        25        1.9993           -0.6664684             -18.1355
        26        1.9990           -0.6565229             -17.8649
        27        1.9986           -0.6492154             -17.6660
        28        1.9976           -0.6366821             -17.3250
        29        1.9964           -0.6270969             -17.0642
        30        1.9935           -0.6128713             -16.6771
        31        1.9917           -0.6071234             -16.5207
        32        1.9896           -0.6017579             -16.3747
        33        1.9893           -0.6012202             -16.3600
        34        1.9606           -0.5698683             -15.5069
        35        1.9548           -0.5665295             -15.4161
        36        1.9393           -0.5593137             -15.2197
        37        1.9034           -0.5478533             -14.9078 (HOMO)
        38        0.1878           -0.4232042             -11.5160 (LUMO)
        39        0.0799           -0.4015251             -10.9261
        40        0.0211           -0.3691935             -10.0463
        41        0.0004           -0.2746443              -7.4735
        42        0.0000           -0.1869328              -5.0867
        43        0.0000           -0.1719242              -4.6783
        44        0.0000           -0.1335803              -3.6349
        45        0.0000           -0.1130313              -3.0757
        46                         -0.0601645              -1.6372
        47                         -0.0341607              -0.9296
        48                         -0.0199308              -0.5423
       ...                                ...                  ...
        67                          0.5278734              14.3642
      -------------------------------------------------------------
                  HL-Gap            0.1246491 Eh            3.3919 eV

     #   Z          covCN         q      C6AA      α(0)
     1   6 C        3.690    -0.090    22.412     6.775
     2   7 N        2.822     0.071    20.000     6.642
     3   6 C        3.053     0.049    26.845     8.497
     4   7 N        2.787    -0.056    22.313     7.016
     5   6 C        3.110     0.139    24.839     8.165
     6   6 C        3.116    -0.024    28.429     8.734
     7   6 C        2.768     0.266    22.519     7.772
     8   8 O        0.857    -0.367    21.042     6.150
     9   7 N        2.747    -0.066    22.511     7.047
    10   6 C        3.701    -0.066    21.926     6.696
    11   6 C        2.830     0.295    21.998     7.686
    12   8 O        1.708    -0.190    17.169     5.594
    13   7 N        1.831    -0.281    28.137     7.860
    14   6 C        3.652     0.006    20.788     6.548
    15   1 H        0.924     0.105     1.741     2.064
    16   1 H        0.924     0.104     1.746     2.067
    17   1 H        0.924     0.133     1.516     1.925
    18   1 H        0.926     0.120     1.615     1.987
    19   1 H        0.925     0.123     1.588     1.971
    20   1 H        0.925     0.099     1.797     2.096
    21   1 H        0.925     0.099     1.796     2.096
    22   1 H        0.925     0.093     1.853     2.129
    23   1 H        0.924     0.092     1.858     2.131
    24   1 H        0.924     0.112     1.680     2.027
    25   1 H        0.860     0.233     0.951     1.528

Wiberg/Mayer (AO) data.
largest (>0.10) Wiberg bond orders for each atom

     #   Z sym  total        # sym  WBO       # sym  WBO       # sym  WBO
 ---------------------------------------------------------------------------
     1   6 C    3.911 --     2 N    0.988    17 H    0.959    16 H    0.959
                            15 H    0.957
     2   7 N    3.629 --     3 C    1.348     6 C    1.159     1 C    0.988
     3   6 C    3.771 --     2 N    1.348     4 N    1.276    18 H    0.954
     4   7 N    3.565 --     3 C    1.276     5 C    1.185    25 H    0.918
     5   6 C    3.907 --     6 C    1.298    13 N    1.259     4 N    1.185
     6   6 C    3.858 --     5 C    1.298     2 N    1.159     7 C    1.109
     7   6 C    3.904 --     8 O    1.648     6 C    1.109     9 N    1.057
     8   8 O    1.953 --     7 C    1.648     9 N    0.126
     9   7 N    3.531 --    11 C    1.192     7 C    1.057    10 C    0.978
                             8 O    0.126
    10   6 C    3.900 --     9 N    0.978    19 H    0.959    20 H    0.958
                            21 H    0.958
    11   6 C    3.891 --    13 N    1.373     9 N    1.192    12 O    1.189
    12   8 O    2.332 --    11 C    1.189    14 C    0.938
    13   7 N    2.940 --    11 C    1.373     5 C    1.259
    14   6 C    3.870 --    24 H    0.969    22 H    0.965    23 H    0.965
                            12 O    0.938
    15   1 H    0.981 --     1 C    0.957
    16   1 H    0.981 --     1 C    0.959
    17   1 H    0.980 --     1 C    0.959
    18   1 H    0.984 --     3 C    0.954
    19   1 H    0.979 --    10 C    0.959
    20   1 H    0.978 --    10 C    0.958
    21   1 H    0.978 --    10 C    0.958
    22   1 H    0.982 --    14 C    0.965
    23   1 H    0.982 --    14 C    0.965
    24   1 H    0.982 --    14 C    0.969
    25   1 H    0.945 --     4 N    0.918
 ---------------------------------------------------------------------------

molecular dipole:
                 x           y           z       tot (Debye)
 q only:        1.517      -1.594       0.039
   full:        1.786      -1.815       0.047       6.473

           -------------------------------------------------
          | TOTAL ENERGY              -42.256800933054 Eh   |
          | GRADIENT NORM               0.006510553856 Eh/α |
          | HOMO-LUMO GAP               3.391874941819 eV   |
           -------------------------------------------------

 * finished run on 2024/06/05 at 19:58:47.701
