   * xtb version 6.6.1 (8d0f1dd) compiled by 'conda@1efc2f54142f' on 2023-08-01
          program call               : xtb xtbopt.xyz --opt crude --input .xc2 --gfn2

   ID    Z sym.   atoms
    1    7 N      1, 17
    2    6 C      2-6, 8, 9, 11-16, 18-23, 25, 26, 28-33
    3    8 O      7, 10, 24, 27
    4    1 H      34-72

          :  Hamiltonian                  GFN2-xTB          :
 * total energy  :   -99.3182442 Eh     change       -0.1778204E-09 Eh
   *** GEOMETRY OPTIMIZATION CONVERGED AFTER 1 ITERATIONS ***

 final structure:
================
72
 xtb: 6.6.1 (8d0f1dd)
N           -1.53204306557807        3.07480155860749        2.50035918295888
C           -1.93851628741252        1.88675768440105        2.23068627897196
C           -3.11880954314916        1.62079039758966        1.49987645618896
C           -3.44829984488768        0.27700890115254        1.13412873868436
C           -4.25160399745416        0.00837082735396       -0.00080505755872
C           -4.57042567917390       -1.27631899579645       -0.38978143934951
O           -5.30563469252057       -1.59764977143164       -1.47817461514722
C           -5.92362594962909       -0.56877405059177       -2.21533855911323
C           -4.09972845226922       -2.38342963236601        0.37118502632548
O           -4.46903659124382       -3.59877461713883       -0.07514900170228
C           -4.14046293343771       -4.73909353438132        0.68322219200896
C           -3.31741392256383       -2.12846495553095        1.49341446765181
C           -2.99186235870084       -0.83780345825339        1.86047654182477
C           -2.32060191019244        2.06692764610367       -2.74392690342837
C           -1.74972214665708        0.84671810438770       -2.14509398014042
C           -0.45352359547902        1.03642474683325       -1.47024541730345
N            0.18927128349268        0.06599044325569       -0.84065134708675
C            1.53642092749242        0.25649750009548       -0.35618402308669
C            2.57214314722621       -0.28104654087885       -1.36411160773072
C            3.97250658884172       -0.04761107008627       -0.86969630463529
C            4.59628056526518        1.17338848695979       -1.07275585928552
C            5.88906740008176        1.39360302559705       -0.62484048226148
C            6.58682058977063        0.39463814268620        0.03982202870467
O            7.84588323088587        0.49089145479369        0.50281661286303
C            8.56492005456715        1.68627273735554        0.29996023969390
C            5.95119840328939       -0.85855648816221        0.26287516383358
O            6.69816086731874       -1.77147717938044        0.91431392959969
C            6.17521982820948       -3.05896880580397        1.13895241945794
C            4.65615077150526       -1.05402799758565       -0.19198607358915
C           -0.36399603472164       -1.26262517409005       -0.77276557912392
C           -4.00212950171987        2.76374380281919        1.07592060717891
C           -4.37859885726636        3.64135959393530        2.27432294242168
C           -3.31610598314500        3.61277980552005       -0.00219024418236
H           -4.62443583763103        0.83525744174457       -0.58157881160543
H           -6.57588948030353        0.04177156477302       -1.58408357223439
H           -6.52267703891556       -1.07058617524218       -2.97217249067154
H           -5.18498383260005        0.07318076869403       -2.70702826889951
H           -4.55829393983008       -4.68332441267209        1.69324313979053
H           -4.58675756228538       -5.58054719287215        0.15485644970682
H           -3.05667580533573       -4.88397203538069        0.74352278715644
H           -2.97064589245397       -2.94736309727139        2.10309925829179
H           -2.42296107373248       -0.69769931569697        2.76518710033354
H           -3.29507424273879        2.02478511905840       -3.18840446679217
H           -1.70002842951403        2.91512859617639       -2.95728494828757
H           -2.47500435639398        0.39711514837294       -1.44047248927744
H           -1.63283063794248        0.06739512282214       -2.92429073104770
H           -1.33796685436664        1.01006346004785        2.51092346185962
H            0.01125914959112        2.00891714425804       -1.48571936038018
H            1.65026892807053       -0.26316571015126        0.59821245070799
H            1.71347351771071        1.32063086400732       -0.19172115236913
H            2.42731973607224        0.23302896832908       -2.31623229883579
H            2.40784953846484       -1.34796279680978       -1.52044761478446
H            4.08101266349454        1.96192517831905       -1.59960381682306
H            6.35126426913413        2.34974873523818       -0.80713296769699
H            8.08219559563031        2.53321196184276        0.79679719888742
H            8.68361588458215        1.90527384804956       -0.76539373830787
H            9.54368946729474        1.51723802310630        0.74491805447635
H            6.96204860170635       -3.60851674095977        1.65218981685209
H            5.28473313717070       -3.02587303030890        1.77482503805673
H            5.93611837534320       -3.56417506843758        0.19793139196645
H            4.17043435330292       -2.00477617116430       -0.03715051635683
H           -0.47738226272006       -1.69554521389484       -1.76995509153962
H           -1.34656394546707       -1.24117147074881       -0.29604286326322
H            0.29181317086096       -1.90140721412047       -0.18715008016233
H           -4.93596992041295        2.35874086590763        0.67384906664689
H           -3.48513127978001        4.09679405224402        2.69449233595299
H           -4.86765147977844        3.04737877341092        3.04445058811536
H           -5.06237567781065        4.42317203542302        1.95398038303136
H           -2.40195405639919        4.04000476157960        0.40150956343396
H           -3.06454114604563        3.01022051722557       -0.88506133030680
H           -3.97345015041933        4.42017717612173       -0.31402395241244
H           -0.67323819921765        3.15672245353196        3.02959098571201

          :  Hamiltonian                  GFN2-xTB          :
         :: total energy             -99.318244150101 Eh    ::
         :: gradient norm              0.004413421338 Eh/a0 ::
         :: HOMO-LUMO gap              0.070089760368 eV    ::
         :: SCC energy              -100.706126740083 Eh    ::
         :: -> dispersion             -0.072157915629 Eh    ::
         :: repulsion energy           1.386044216832 Eh    ::

    * Orbital Energies and Occupations

         #    Occupation            Energy/Eh            Energy/eV
      -------------------------------------------------------------
         1        2.0000           -0.8156897             -22.1960
       ...           ...                  ...                  ...
        78        1.9982           -0.5312666             -14.4565
        79        1.9982           -0.5307200             -14.4416
        80        1.9976           -0.5266978             -14.3322
        81        1.9968           -0.5218676             -14.2007
        82        1.9957           -0.5172999             -14.0764
        83        1.9939           -0.5116117             -13.9217
        84        1.9926           -0.5084683             -13.8361
        85        1.9860           -0.4983615             -13.5611
        86        1.9773           -0.4906589             -13.3515
        87        1.9310           -0.4726726             -12.8621
        88        1.8338           -0.4579290             -12.4609
        89        1.8281           -0.4573468             -12.4450
        90        1.1185           -0.4236816             -11.5290 (HOMO)
        91        1.0377           -0.4211058             -11.4589 (LUMO)
        92        0.3107           -0.3930968             -10.6967
        93        0.0047           -0.3241906              -8.8217
        94        0.0033           -0.3184921              -8.6666
        95        0.0026           -0.3144509              -8.5566
        96        0.0022           -0.3123376              -8.4991
        97        0.0001           -0.2612155              -7.1080
        98        0.0000           -0.1896831              -5.1615
        99        0.0000           -0.1857402              -5.0542
       100                         -0.1364361              -3.7126
       101                         -0.0701462              -1.9088
       ...                                ...                  ...
       171                          0.5759715              15.6730
      -------------------------------------------------------------
                  HL-Gap            0.0025758 Eh            0.0701 eV

     #   Z          covCN         q      C6AA      α(0)
     1   7 N        1.780    -0.295    28.454     7.900
     2   6 C        2.823     0.077    26.281     8.400
     3   6 C        2.963    -0.008    28.216     8.713
     4   6 C        2.967    -0.000    28.038     8.685
     5   6 C        2.920    -0.087    30.188     9.010
     6   6 C        2.858     0.127    25.219     8.231
     7   8 O        1.706    -0.238    17.940     5.719
     8   6 C        3.644     0.028    20.440     6.498
     9   6 C        2.863     0.128    25.202     8.229
    10   8 O        1.706    -0.224    17.722     5.684
    11   6 C        3.645     0.026    20.472     6.503
    12   6 C        2.910    -0.072    29.802     8.952
    13   6 C        2.921    -0.051    29.255     8.870
    14   6 C        2.836    -0.118    30.984     9.122
    15   6 C        3.803    -0.055    21.568     6.612
    16   6 C        2.850     0.005    27.895     8.656
    17   7 N        2.730     0.020    20.900     6.790
    18   6 C        3.754    -0.020    20.978     6.531
    19   6 C        3.808    -0.071    21.846     6.653
    20   6 C        2.968     0.000    28.018     8.682
    21   6 C        2.922    -0.048    29.194     8.861
    22   6 C        2.914    -0.067    29.664     8.931
    23   6 C        2.865     0.134    25.064     8.206
    24   8 O        1.706    -0.220    17.650     5.672
    25   6 C        3.645     0.024    20.502     6.508
    26   6 C        2.863     0.134    25.078     8.208
    27   8 O        1.706    -0.223    17.703     5.681
    28   6 C        3.645     0.027    20.461     6.502
    29   6 C        2.919    -0.079    29.974     8.978
    30   6 C        3.703    -0.073    22.060     6.715
    31   6 C        3.854    -0.005    20.638     6.461
    32   6 C        3.756    -0.114    22.734     6.798
    33   6 C        3.754    -0.113    22.721     6.797
    34   1 H        0.926     0.057     2.239     2.340
    35   1 H        0.924     0.055     2.263     2.352
    36   1 H        0.925     0.081     1.972     2.196
    37   1 H        0.924     0.044     2.390     2.418
    38   1 H        0.924     0.058     2.223     2.332
    39   1 H        0.925     0.082     1.958     2.188
    40   1 H        0.924     0.049     2.334     2.389
    41   1 H        0.926     0.053     2.284     2.363
    42   1 H        0.926     0.048     2.344     2.394
    43   1 H        0.926     0.052     2.299     2.371
    44   1 H        0.926     0.055     2.255     2.349
    45   1 H        0.922     0.095     1.831     2.116
    46   1 H        0.922     0.095     1.828     2.114
    47   1 H        0.923     0.005     2.971     2.696
    48   1 H        0.926     0.082     1.957     2.188
    49   1 H        0.924     0.070     2.089     2.260
    50   1 H        0.924     0.074     2.047     2.237
    51   1 H        0.924     0.057     2.234     2.338
    52   1 H        0.924     0.055     2.258     2.350
    53   1 H        0.926     0.047     2.360     2.402
    54   1 H        0.926     0.060     2.199     2.319
    55   1 H        0.924     0.056     2.252     2.347
    56   1 H        0.924     0.057     2.236     2.339
    57   1 H        0.925     0.083     1.946     2.181
    58   1 H        0.925     0.083     1.953     2.185
    59   1 H        0.924     0.049     2.329     2.387
    60   1 H        0.924     0.053     2.284     2.363
    61   1 H        0.926     0.048     2.350     2.397
    62   1 H        0.924     0.078     1.996     2.209
    63   1 H        0.924     0.080     1.984     2.203
    64   1 H        0.925     0.082     1.957     2.188
    65   1 H        0.924     0.042     2.426     2.436
    66   1 H        0.925     0.077     2.013     2.219
    67   1 H        0.925     0.041     2.430     2.438
    68   1 H        0.925     0.051     2.310     2.377
    69   1 H        0.925     0.063     2.165     2.301
    70   1 H        0.923     0.039     2.457     2.452
    71   1 H        0.925     0.053     2.287     2.365
    72   1 H        0.860     0.145     1.434     1.876

Wiberg/Mayer (AO) data.
largest (>0.10) Wiberg bond orders for each atom

     #   Z sym  total        # sym  WBO       # sym  WBO       # sym  WBO
 ---------------------------------------------------------------------------
     1   7 N    2.719 --     2 C    1.674    72 H    0.948
     2   6 C    3.927 --     1 N    1.674     3 C    1.262    47 H    0.925
     3   6 C    3.605 --     2 C    1.262     4 C    1.217    31 C    1.010
     4   6 C    3.966 --    13 C    1.306     5 C    1.273     3 C    1.217
     5   6 C    3.908 --     6 C    1.432     4 C    1.273    34 H    0.953
     6   6 C    3.908 --     5 C    1.432     9 C    1.208     7 O    1.091
     7   8 O    2.248 --     6 C    1.091     8 C    0.978
     8   6 C    3.933 --     7 O    0.978    36 H    0.977    35 H    0.974
                            37 H    0.973
     9   6 C    3.836 --    12 C    1.356     6 C    1.208    10 O    1.109
    10   8 O    2.245 --     9 C    1.109    11 C    0.976
    11   6 C    3.930 --    39 H    0.977    10 O    0.976    40 H    0.973
                            38 H    0.973
    12   6 C    3.963 --    13 C    1.457     9 C    1.356    41 H    0.963
    13   6 C    3.874 --    12 C    1.457     4 C    1.306    42 H    0.962
    14   6 C    3.148 --    15 C    1.087    43 H    0.982    44 H    0.981
    15   6 C    3.982 --    14 C    1.087    16 C    1.070    45 H    0.886
                            46 H    0.882
    16   6 C    3.606 --    17 N    1.426    15 C    1.070    48 H    0.957
    17   7 N    3.495 --    16 C    1.426    30 C    1.002    18 C    0.987
    18   6 C    3.952 --    17 N    0.987    50 H    0.967    19 C    0.966
                            49 H    0.965
    19   6 C    3.977 --    20 C    1.008    52 H    0.972    51 H    0.970
                            18 C    0.966
    20   6 C    3.942 --    21 C    1.406    29 C    1.382    19 C    1.008
    21   6 C    3.948 --    22 C    1.420    20 C    1.406    53 H    0.968
    22   6 C    3.958 --    21 C    1.420    23 C    1.381    54 H    0.963
    23   6 C    3.893 --    22 C    1.381    26 C    1.218    24 O    1.113
    24   8 O    2.255 --    23 C    1.113    25 C    0.975
    25   6 C    3.927 --    57 H    0.977    24 O    0.975    56 H    0.972
                            55 H    0.972
    26   6 C    3.896 --    29 C    1.393    23 C    1.218    27 O    1.105
    27   8 O    2.254 --    26 C    1.105    28 C    0.978
    28   6 C    3.931 --    27 O    0.978    58 H    0.977    59 H    0.973
                            60 H    0.973
    29   6 C    3.958 --    26 C    1.393    20 C    1.382    61 H    0.962
    30   6 C    3.957 --    17 N    1.002    64 H    0.978    62 H    0.962
                            63 H    0.960
    31   6 C    3.971 --     3 C    1.010    32 C    0.982    33 C    0.980
                            65 H    0.955
    32   6 C    3.946 --    67 H    0.984    31 C    0.982    68 H    0.980
                            66 H    0.965
    33   6 C    3.926 --    31 C    0.980    71 H    0.980    69 H    0.978
                            70 H    0.946
    34   1 H    0.995 --     5 C    0.953
    35   1 H    0.994 --     8 C    0.974
    36   1 H    0.993 --     8 C    0.977
    37   1 H    0.995 --     8 C    0.973
    38   1 H    0.991 --    11 C    0.973
    39   1 H    0.993 --    11 C    0.977
    40   1 H    0.992 --    11 C    0.973
    41   1 H    0.995 --    12 C    0.963
    42   1 H    0.997 --    13 C    0.962
    43   1 H    0.996 --    14 C    0.982
    44   1 H    0.996 --    14 C    0.981
    45   1 H    0.960 --    15 C    0.886
    46   1 H    0.939 --    15 C    0.882
    47   1 H    0.966 --     2 C    0.925
    48   1 H    0.993 --    16 C    0.957
    49   1 H    0.991 --    18 C    0.965
    50   1 H    0.993 --    18 C    0.967
    51   1 H    0.995 --    19 C    0.970
    52   1 H    0.996 --    19 C    0.972
    53   1 H    0.997 --    21 C    0.968
    54   1 H    0.995 --    22 C    0.963
    55   1 H    0.991 --    25 C    0.972
    56   1 H    0.991 --    25 C    0.972
    57   1 H    0.992 --    25 C    0.977
    58   1 H    0.992 --    28 C    0.977
    59   1 H    0.993 --    28 C    0.973
    60   1 H    0.992 --    28 C    0.973
    61   1 H    0.996 --    29 C    0.962
    62   1 H    0.985 --    30 C    0.962
    63   1 H    0.987 --    30 C    0.960
    64   1 H    0.993 --    30 C    0.978
    65   1 H    0.989 --    31 C    0.955
    66   1 H    0.987 --    32 C    0.965
    67   1 H    0.995 --    32 C    0.984
    68   1 H    0.992 --    32 C    0.980
    69   1 H    0.992 --    33 C    0.978
    70   1 H    0.996 --    33 C    0.946
    71   1 H    0.991 --    33 C    0.980
    72   1 H    0.968 --     1 N    0.948
 ---------------------------------------------------------------------------

molecular dipole:
                 x           y           z       tot (Debye)
 q only:        0.654      -0.509      -1.011
   full:        0.704      -0.820      -0.860       3.511

           -------------------------------------------------
          | TOTAL ENERGY              -99.318244150101 Eh   |
          | GRADIENT NORM               0.004413421338 Eh/α |
          | HOMO-LUMO GAP               0.070089760368 eV   |
           -------------------------------------------------

 * finished run on 2024/04/06 at 11:11:40.627
