   * xtb version 6.6.1 (8d0f1dd) compiled by 'conda@1efc2f54142f' on 2023-08-01
          program call               : xtb xtbopt.xyz --opt crude --input .xc2 --gfn2

   ID    Z sym.   atoms
    1    6 C      1, 3, 5-7, 10, 11, 14
    2    7 N      2, 4, 9, 13
    3    8 O      8, 12
    4    1 H      15-25
########################################################################
[WARNING] Please study the warnings concerning your input carefully
-1- readin_getIntValue: could not parse ''
########################################################################

          :  Hamiltonian                  GFN2-xTB          :
 * total energy  :   -42.1611772 Eh     change       -0.5591971E-11 Eh
   *** GEOMETRY OPTIMIZATION CONVERGED AFTER 1 ITERATIONS ***

 final structure:
================
25
 xtb: 6.6.1 (8d0f1dd)
C            3.22657744416103        1.20640556649781        0.08463819928846
N            2.32581375881690        0.08483864794156        0.05534367001017
C            2.65340334414300       -1.20716208041487        0.06790012890762
N            1.53802406411031       -1.96359586466745        0.03705674599662
C            0.45944567847266       -1.12228333081554        0.00493619273293
C            0.95385988883428        0.17566266565563        0.01432226781197
C            0.10506857085375        1.33493417291919       -0.03948840760267
O            0.44838654177869        2.50066450857558       -0.06853035967854
N           -1.24322222976786        0.94109234194354       -0.05589849047366
C           -2.24358006478456        1.99621029360461       -0.09364707954699
C           -1.68882192409569       -0.33225244276339       -0.03705527430733
O           -3.00500000857462       -0.51787478135980       -0.00083450785578
N           -0.87552417784037       -1.43398965851281       -0.03794317431889
C           -1.35643322304374       -2.69938538444681       -0.00556789629787
H            3.76760628133165        1.23439303710357        1.03115903605612
H            3.94586940389218        1.13533381905810       -0.73069152629567
H            2.64173596960980        2.12018657752572       -0.02086093705298
H            3.65253022082499       -1.59342705955419        0.09543653895380
H           -1.70915581352134        2.94443736660810       -0.09358958019534
H           -2.84997009904130        1.90611254229487       -0.99298990831090
H           -2.89158376329159        1.92916178770483        0.77861000464136
H           -0.66425468672831       -3.50218660103774        0.08505138866265
H           -2.33967010385209       -2.91772176649447       -0.36179753100838
H           -3.20063136586837       -1.42850747537494        0.28334391742720
H            1.50995780768054       -2.97280834039128        0.03226820035634

          :  Hamiltonian                  GFN2-xTB          :
         :: total energy             -42.161177193831 Eh    ::
         :: gradient norm              0.004549940918 Eh/a0 ::
         :: HOMO-LUMO gap              1.090839951754 eV    ::
         :: SCC energy               -42.682438040936 Eh    ::
         :: -> dispersion             -0.023048203402 Eh    ::
         :: repulsion energy           0.521154878364 Eh    ::

    * Orbital Energies and Occupations

         #    Occupation            Energy/Eh            Energy/eV
      -------------------------------------------------------------
         1        2.0000           -0.9037202             -24.5915
       ...           ...                  ...                  ...
        25        2.0000           -0.6657132             -18.1150
        26        2.0000           -0.6605578             -17.9747
        27        2.0000           -0.6592024             -17.9378
        28        2.0000           -0.6411238             -17.4459
        29        2.0000           -0.6325853             -17.2135
        30        2.0000           -0.6230684             -16.9546
        31        2.0000           -0.6116749             -16.6445
        32        2.0000           -0.6074272             -16.5289
        33        2.0000           -0.5989186             -16.2974
        34        2.0000           -0.5819186             -15.8348
        35        2.0000           -0.5681336             -15.4597
        36        2.0000           -0.5479589             -14.9107
        37        1.8404           -0.4633914             -12.6095 (HOMO)
        38        0.1359           -0.4233038             -11.5187 (LUMO)
        39        0.0236           -0.4089711             -11.1287
        40        0.0002           -0.3694589             -10.0535
        41                         -0.2800569              -7.6207
        42                         -0.1926206              -5.2415
        43                         -0.1895456              -5.1578
        44                         -0.1415385              -3.8515
        45                         -0.1203640              -3.2753
        46                         -0.0916859              -2.4949
        47                         -0.0541012              -1.4722
        48                         -0.0303811              -0.8267
       ...                                ...                  ...
        67                          0.5364184              14.5967
      -------------------------------------------------------------
                  HL-Gap            0.0400876 Eh            1.0908 eV

     #   Z          covCN         q      C6AA      α(0)
     1   6 C        3.691    -0.095    22.505     6.789
     2   7 N        2.833     0.076    19.923     6.629
     3   6 C        3.049     0.049    26.846     8.498
     4   7 N        2.789    -0.053    22.254     7.006
     5   6 C        3.088     0.084    26.033     8.364
     6   6 C        3.110    -0.016    28.265     8.710
     7   6 C        2.768     0.245    22.895     7.836
     8   8 O        0.857    -0.404    21.762     6.254
     9   7 N        2.748    -0.042    22.055     6.975
    10   6 C        3.709    -0.071    22.008     6.705
    11   6 C        2.781     0.220    23.356     7.916
    12   8 O        1.660    -0.335    19.626     5.981
    13   7 N        2.736     0.024    20.832     6.779
    14   6 C        2.798    -0.165    32.254     9.304
    15   1 H        0.924     0.104     1.745     2.066
    16   1 H        0.925     0.103     1.757     2.073
    17   1 H        0.925     0.139     1.471     1.897
    18   1 H        0.926     0.123     1.591     1.973
    19   1 H        0.925     0.124     1.581     1.966
    20   1 H        0.925     0.098     1.800     2.098
    21   1 H        0.925     0.097     1.809     2.103
    22   1 H        0.927     0.049     2.336     2.390
    23   1 H        0.927     0.059     2.206     2.322
    24   1 H        0.804     0.356     0.575     1.192
    25   1 H        0.860     0.229     0.968     1.541

Wiberg/Mayer (AO) data.
largest (>0.10) Wiberg bond orders for each atom

     #   Z sym  total        # sym  WBO       # sym  WBO       # sym  WBO
 ---------------------------------------------------------------------------
     1   6 C    3.916 --     2 N    0.985    16 H    0.963    17 H    0.959
                            15 H    0.959
     2   7 N    3.656 --     3 C    1.364     6 C    1.157     1 C    0.985
     3   6 C    3.822 --     2 N    1.364     4 N    1.290    18 H    0.953
     4   7 N    3.575 --     3 C    1.290     5 C    1.179    25 H    0.916
     5   6 C    3.917 --     6 C    1.349     4 N    1.179    13 N    1.112
     6   6 C    3.925 --     5 C    1.349     2 N    1.157     7 C    1.100
     7   6 C    3.939 --     8 O    1.620     6 C    1.100     9 N    1.063
     8   8 O    1.946 --     7 C    1.620     9 N    0.150
     9   7 N    3.601 --    11 C    1.246     7 C    1.063    10 C    0.968
                             8 O    0.150
    10   6 C    3.916 --     9 N    0.968    20 H    0.966    21 H    0.965
                            19 H    0.965
    11   6 C    3.876 --     9 N    1.246    13 N    1.150    12 O    1.139
                            14 C    0.177
    12   8 O    2.178 --    11 C    1.139    24 H    0.826
    13   7 N    3.669 --    14 C    1.210    11 C    1.150     5 C    1.112
    14   6 C    3.567 --    13 N    1.210    22 H    0.974    23 H    0.961
                            11 C    0.177
    15   1 H    0.985 --     1 C    0.959
    16   1 H    0.986 --     1 C    0.963
    17   1 H    0.981 --     1 C    0.959
    18   1 H    0.984 --     3 C    0.953
    19   1 H    0.984 --    10 C    0.965
    20   1 H    0.988 --    10 C    0.966
    21   1 H    0.989 --    10 C    0.965
    22   1 H    0.997 --    14 C    0.974
    23   1 H    0.995 --    14 C    0.961
    24   1 H    0.872 --    12 O    0.826
    25   1 H    0.947 --     4 N    0.916
 ---------------------------------------------------------------------------

molecular dipole:
                 x           y           z       tot (Debye)
 q only:        1.350      -1.824       0.218
   full:        1.465      -2.592       0.194       7.583

           -------------------------------------------------
          | TOTAL ENERGY              -42.161177193831 Eh   |
          | GRADIENT NORM               0.004549940918 Eh/α |
          | HOMO-LUMO GAP               1.090839951754 eV   |
           -------------------------------------------------

 * finished run on 2024/06/05 at 19:58:08.796
