   * xtb version 6.6.1 (8d0f1dd) compiled by 'conda@1efc2f54142f' on 2023-08-01
          program call               : xtb xtbopt.xyz --opt crude --input .xc2 --gfn2

   ID    Z sym.   atoms
    1    6 C      1, 3, 5-7, 10, 11, 14
    2    7 N      2, 4, 9, 13
    3    8 O      8, 12
    4    1 H      15-25

          :  Hamiltonian                  GFN2-xTB          :
 * total energy  :   -42.1353095 Eh     change       -0.2771117E-12 Eh
   *** GEOMETRY OPTIMIZATION CONVERGED AFTER 1 ITERATIONS ***

 final structure:
================
25
 xtb: 6.6.1 (8d0f1dd)
C            3.25304791321349        1.23989771252824        0.02179328271206
N            2.31839420532230        0.15143111481397       -0.05104015613083
C            2.60817411151868       -1.15307371005991       -0.09494595389931
N            1.46456980622767       -1.87867146605193       -0.13168621348166
C            0.40931464881284       -1.00234779265612       -0.10317527199347
C            0.94806426274555        0.27981919386649       -0.05219209232957
C            0.12381988960081        1.46008036693179       -0.03172877880772
O            0.51858197360981        2.60942459181827       -0.02236003080628
N           -1.23985188363951        1.13151944931821       -0.02522289255129
C           -2.18786693972237        2.23571981152072        0.01982281053514
C           -1.81152687580747       -0.11426231772179       -0.05592429242970
O           -2.99896250679247       -0.29706497213226       -0.03572641814120
N           -0.92386091133947       -1.25869076180383       -0.12134724070400
C           -1.48163411680768       -2.47907287961920       -0.19751056831856
H            3.74810379643922        1.25206595023927        0.99502243532811
H            4.01146667577113        1.14293576087986       -0.75452588335838
H            2.71041670822013        2.17616934643483       -0.10926668322246
H            3.59477569013386       -1.57119051362922       -0.10733087580951
H           -1.62203834501696        3.16503920727247        0.02502887497664
H           -2.84502568758509        2.19832430677285       -0.84909623649111
H           -2.80183850640021        2.16206556944663        0.91779788370553
H           -2.62806875171984       -4.85548895839169        1.42861036924419
H           -0.87635291250913       -3.35815544338356       -0.26070732458752
H           -2.55365181684382       -2.53196255168015       -0.21347919963238
H            1.42238108666870       -2.88627247311370       -0.15963792590669

          :  Hamiltonian                  GFN2-xTB          :
         :: total energy             -42.135309469015 Eh    ::
         :: gradient norm              0.003435344614 Eh/a0 ::
         :: HOMO-LUMO gap              0.218497108509 eV    ::
         :: SCC energy               -42.652563407936 Eh    ::
         :: -> dispersion             -0.022625646751 Eh    ::
         :: repulsion energy           0.517169211322 Eh    ::

    * Orbital Energies and Occupations

         #    Occupation            Energy/Eh            Energy/eV
      -------------------------------------------------------------
         1        2.0000           -0.9118498             -24.8127
       ...           ...                  ...                  ...
        25        1.9993           -0.6734531             -18.3256
        26        1.9991           -0.6677322             -18.1699
        27        1.9989           -0.6640150             -18.0688
        28        1.9963           -0.6355856             -17.2952
        29        1.9960           -0.6332090             -17.2305
        30        1.9959           -0.6328036             -17.2195
        31        1.9923           -0.6177731             -16.8105
        32        1.9873           -0.6059187             -16.4879
        33        1.9742           -0.5889874             -16.0272
        34        1.9728           -0.5876608             -15.9911
        35        1.9398           -0.5683812             -15.4664
        36        1.9389           -0.5680397             -15.4571
        37        1.0494           -0.4882727             -13.2866 (HOMO)
        38        0.8810           -0.4802431             -13.0681 (LUMO)
        39        0.2056           -0.4344650             -11.8224
        40        0.0558           -0.4016031             -10.9282
        41        0.0191           -0.3756263             -10.2213
        42        0.0005           -0.2907587              -7.9119
        43        0.0000           -0.2119835              -5.7684
        44        0.0000           -0.1999904              -5.4420
        45        0.0000           -0.1492693              -4.0618
        46        0.0000           -0.1360390              -3.7018
        47                         -0.0693383              -1.8868
        48                         -0.0383694              -1.0441
       ...                                ...                  ...
        67                          0.5393234              14.6757
      -------------------------------------------------------------
                  HL-Gap            0.0080296 Eh            0.2185 eV

     #   Z          covCN         q      C6AA      α(0)
     1   6 C        3.691    -0.093    22.478     6.785
     2   7 N        2.823     0.075    19.931     6.631
     3   6 C        3.038     0.046    26.934     8.512
     4   7 N        2.782    -0.060    22.397     7.029
     5   6 C        3.032     0.091    25.946     8.355
     6   6 C        3.103    -0.013    28.216     8.704
     7   6 C        2.764     0.261    22.600     7.785
     8   8 O        0.858    -0.359    20.879     6.126
     9   7 N        2.744    -0.073    22.648     7.068
    10   6 C        3.712    -0.063    21.848     6.679
    11   6 C        2.735     0.307    21.792     7.643
    12   8 O        0.859    -0.335    20.418     6.058
    13   7 N        2.735     0.012    21.055     6.815
    14   6 C        2.798    -0.058    29.424     8.886
    15   1 H        0.924     0.110     1.701     2.039
    16   1 H        0.925     0.107     1.723     2.053
    17   1 H        0.925     0.138     1.479     1.902
    18   1 H        0.926     0.124     1.579     1.965
    19   1 H        0.925     0.123     1.593     1.974
    20   1 H        0.925     0.107     1.723     2.053
    21   1 H        0.924     0.107     1.724     2.053
    22   1 H        0.000    -0.005     7.830     5.117
    23   1 H        0.927     0.091     1.869     2.138
    24   1 H        0.926     0.134     1.504     1.918
    25   1 H        0.860     0.227     0.976     1.548

Wiberg/Mayer (AO) data.
largest (>0.10) Wiberg bond orders for each atom

     #   Z sym  total        # sym  WBO       # sym  WBO       # sym  WBO
 ---------------------------------------------------------------------------
     1   6 C    3.905 --     2 N    0.989    16 H    0.960    17 H    0.956
                            15 H    0.952
     2   7 N    3.614 --     3 C    1.343     6 C    1.156     1 C    0.989
     3   6 C    3.750 --     2 N    1.343     4 N    1.265    18 H    0.953
     4   7 N    3.523 --     3 C    1.265     5 C    1.169    25 H    0.919
     5   6 C    3.851 --     6 C    1.324     4 N    1.169    13 N    1.153
     6   6 C    3.830 --     5 C    1.324     2 N    1.156     7 C    1.090
     7   6 C    3.881 --     8 O    1.639     6 C    1.090     9 N    1.070
     8   8 O    1.917 --     7 C    1.639     9 N    0.121
     9   7 N    3.518 --    11 C    1.158     7 C    1.070    10 C    0.970
                            12 O    0.138     8 O    0.121
    10   6 C    3.883 --     9 N    0.970    19 H    0.959    20 H    0.954
                            21 H    0.954
    11   6 C    3.898 --    12 O    1.699     9 N    1.158    13 N    0.951
    12   8 O    1.999 --    11 C    1.699     9 N    0.138
    13   7 N    3.602 --    14 C    1.289     5 C    1.153    11 C    0.951
    14   6 C    3.319 --    13 N    1.289    23 H    0.968    24 H    0.956
    15   1 H    0.978 --     1 C    0.952
    16   1 H    0.981 --     1 C    0.960
    17   1 H    0.978 --     1 C    0.956
    18   1 H    0.983 --     3 C    0.953
    19   1 H    0.977 --    10 C    0.959
    20   1 H    0.973 --    10 C    0.954
    21   1 H    0.972 --    10 C    0.954
    22   1 H    0.008
    23   1 H    0.989 --    14 C    0.968
    24   1 H    0.979 --    14 C    0.956
    25   1 H    0.948 --     4 N    0.919
 ---------------------------------------------------------------------------

molecular dipole:
                 x           y           z       tot (Debye)
 q only:        2.447      -1.485      -0.172
   full:        2.693      -2.037      -0.183       8.596

           -------------------------------------------------
          | TOTAL ENERGY              -42.135309469015 Eh   |
          | GRADIENT NORM               0.003435344614 Eh/α |
          | HOMO-LUMO GAP               0.218497108509 eV   |
           -------------------------------------------------

 * finished run on 2024/06/05 at 19:58:47.018
