   * xtb version 6.6.1 (8d0f1dd) compiled by 'conda@1efc2f54142f' on 2023-08-01
          program call               : xtb struc.xyz --opt loose --input .xc1 --gfn2

   ID    Z sym.   atoms
    1    7 N      1, 17
    2    6 C      2-6, 8, 9, 11-16, 18-23, 25, 26, 28-33
    3    8 O      7, 10, 24, 27
    4    1 H      34-72
constraining bond 24 57 to    2.6333300 Å, actual value:    1.9973468 Å

          :  Hamiltonian                  GFN2-xTB          :
 * total energy  :   -99.4763512 Eh     change       -0.4035485E-08 Eh
 * total energy  :   -99.5938014 Eh     change       -0.1174502E+00 Eh
 * total energy  :   -99.7279990 Eh     change       -0.1341976E+00 Eh
 * total energy  :   -98.0911197 Eh     change        0.1636879E+01 Eh
 * total energy  :   -99.7802484 Eh     change       -0.1689129E+01 Eh
 * total energy  :   -99.8107432 Eh     change       -0.3049479E-01 Eh
 * total energy  :   -99.8097181 Eh     change        0.1025092E-02 Eh
 * total energy  :   -99.8191693 Eh     change       -0.9451146E-02 Eh
 * total energy  :   -99.8219102 Eh     change       -0.2740930E-02 Eh
 * total energy  :   -99.8246308 Eh     change       -0.2720610E-02 Eh
 * total energy  :   -99.8501830 Eh     change       -0.5985869E-03 Eh
 * total energy  :   -99.8498818 Eh     change        0.3012088E-03 Eh
 * total energy  :   -99.8505213 Eh     change       -0.6394439E-03 Eh
 * total energy  :   -99.8506359 Eh     change       -0.1146203E-03 Eh
 * total energy  :   -99.8508232 Eh     change       -0.1873450E-03 Eh
 * total energy  :   -99.8509395 Eh     change       -0.1163024E-03 Eh
 * total energy  :   -99.8510662 Eh     change       -0.1266123E-03 Eh
 * total energy  :   -99.8511684 Eh     change       -0.1022249E-03 Eh
 * total energy  :   -99.8512132 Eh     change       -0.4480530E-04 Eh
   *** GEOMETRY OPTIMIZATION CONVERGED AFTER 38 ITERATIONS ***

 final structure:
================
72
 xtb: 6.6.1 (8d0f1dd)
N           -1.93127918029661        2.84540626084392        2.31542522579298
C           -1.85921206338976        2.11276303663724        1.30465158652373
C           -2.96404713988841        1.92549167426773        0.30280675066208
C           -3.46333664387416        0.48969931996092        0.35620877343755
C           -4.34385224403147        0.02863809868364       -0.62501846167155
C           -4.83946773995915       -1.26324080423477       -0.60398444608424
O           -5.70082869271875       -1.78191273268013       -1.50761125558636
C           -6.24375342458577       -0.94006334893425       -2.49674540912293
C           -4.43670745237385       -2.14963866170325        0.42891452079873
O           -4.95972498798922       -3.39361934585680        0.36374841002018
C           -4.66946328678398       -4.30964508359991        1.39248107813239
C           -3.56687868220917       -1.68606929397582        1.40156585340893
C           -3.08982651900088       -0.38080712548670        1.36656967662059
C           -2.32974103779517        2.21188183106882       -1.08432614838852
C           -1.40403483510660        1.09764921501674       -1.60623579359723
C           -0.09721186670330        1.03808946453772       -0.91448227520839
N            0.51100661890964       -0.07747352463910       -0.49468680740053
C            1.90510403005830       -0.04466216992468       -0.12845098651642
C            2.80845986336109       -0.50836338511326       -1.29217845636515
C            4.25056393069178       -0.22416334552422       -0.98811943402086
C            4.81494320682116        0.98721423319854       -1.36701600769781
C            6.14144019618254        1.26683850319636       -1.08075853240218
C            6.89400883134939        0.32415768555007       -0.41351414772426
O            8.29065081989664        0.54212117366715       -0.11642485947463
C            8.72842548018857        1.88110345973482        0.29440505995687
C            6.35031630485096       -0.90024346609824       -0.00207032032453
O            7.21147557047654       -1.72214817669336        0.65887448742998
C            6.75235367480889       -2.98655072231946        1.08605727195621
C            5.01850707950928       -1.16050131223885       -0.29693235554235
C           -0.13299857196390       -1.36712707533825       -0.55394266585220
C           -4.17901948845300        2.87062579020071        0.53531629156758
C           -4.88059701451546        2.56213699410989        1.85597094481312
C           -3.81038028495407        4.35077951508127        0.48171199007695
H           -4.65526773992152        0.69739095455201       -1.40993747383181
H           -6.77250937991386       -0.09017689789390       -2.05429367077363
H           -6.95129302592658       -1.55611302355955       -3.04831665128254
H           -5.47301300168964       -0.57497226013710       -3.18390290794698
H           -4.99178439924446       -3.93381539742419        2.36828122702871
H           -5.23145097609333       -5.20922268761726        1.14914469727617
H           -3.60135013188615       -4.54900527967317        1.42794589065776
H           -3.25986000671588       -2.33057611515480        2.20931284425084
H           -2.43965036678832       -0.04641444946941        2.16022349724258
H           -3.12894610870537        2.35468983001765       -1.81074456220911
H           -1.76584925382217        3.14381900476649       -1.02670104222433
H           -1.92297551480906        0.14171514800877       -1.56556513705714
H           -1.20736471864423        1.32442919709792       -2.66284575217354
H           -0.94708299803550        1.55758881837012        1.01290262475657
H            0.48662475650196        1.94485665648401       -0.86988600003455
H            2.06591230044984       -0.68649783761420        0.74199987167831
H            2.17874410163506        0.97707281489760        0.14444146508167
H            2.51189126616436        0.03401990141946       -2.19133382170044
H            2.66041055964282       -1.57441321487927       -1.46673401523336
H            4.22644237440004        1.71577932569275       -1.90112423047891
H            6.58898965829973        2.20181937207036       -1.37465657837769
H            8.10780631909120        2.28792181648825        1.08143848618261
H            8.85131269652528        2.51524391158043       -0.56981301875993
H            8.51373325364731        0.01832000201413        0.41931021661879
H            7.60940151519142       -3.46405954995013        1.55624439257357
H            5.94494271226386       -2.88836968717659        1.81628623487094
H            6.41830892850311       -3.59260575331022        0.24060111162613
H            4.57272913526681       -2.09773057199654       -0.00453992109686
H           -0.25268611512034       -1.70844139630610       -1.58536811775711
H           -1.11764869343570       -1.32105918444606       -0.08321596924378
H            0.47209696399404       -2.09345116667626       -0.01662947379048
H           -4.88747937403673        2.66958367978805       -0.27649329453494
H           -4.21673427469942        2.77548107427251        2.68723202806256
H           -5.18462568135117        1.51929007996782        1.90480375060421
H           -5.76806527381545        3.18219878391287        1.95123861153694
H           -3.08983049716698        4.58717167679039        1.25835299711545
H           -3.40250858995099        4.63318124385479       -0.48531362323814
H           -4.70349756258779        4.94622908131059        0.65286354159099
H           -1.10625171073989        2.91489494103648        2.90384705737732

          :  Hamiltonian                  GFN2-xTB          :
         :: total energy             -99.851213185785 Eh    ::
         :: gradient norm              0.002864996034 Eh/a0 ::
         :: HOMO-LUMO gap              1.017718762734 eV    ::
         :: SCC energy              -100.681171751528 Eh    ::
         :: -> dispersion             -0.075571099865 Eh    ::
         :: repulsion energy           1.440811179223 Eh    ::

    * Orbital Energies and Occupations

         #    Occupation            Energy/Eh            Energy/eV
      -------------------------------------------------------------
         1        2.0000           -0.8760694             -23.8391
       ...           ...                  ...                  ...
        78        1.9993           -0.5266292             -14.3303
        79        1.9988           -0.5188603             -14.1189
        80        1.9988           -0.5181726             -14.1002
        81        1.9987           -0.5174179             -14.0797
        82        1.9982           -0.5121355             -13.9359
        83        1.9971           -0.5046156             -13.7313
        84        1.9967           -0.5020692             -13.6620
        85        1.9960           -0.4992504             -13.5853
        86        1.9954           -0.4969428             -13.5225
        87        1.9860           -0.4793266             -13.0431
        88        1.9526           -0.4597503             -12.5104
        89        1.9080           -0.4488814             -12.2147
        90        1.5625           -0.4210339             -11.4569 (HOMO)
        91        0.5036           -0.3836334             -10.4392 (LUMO)
        92        0.0545           -0.3442720              -9.3681
        93        0.0304           -0.3348233              -9.1110
        94        0.0184           -0.3268013              -8.8927
        95        0.0048           -0.3053343              -8.3086
        96        0.0038           -0.3018981              -8.2151
        97        0.0000           -0.2151862              -5.8555
        98        0.0000           -0.1792067              -4.8765
        99        0.0000           -0.1692746              -4.6062
       100                         -0.1278273              -3.4784
       101                         -0.0874038              -2.3784
       ...                                ...                  ...
       171                          0.5844574              15.9039
      -------------------------------------------------------------
                  HL-Gap            0.0374005 Eh            1.0177 eV

     #   Z          covCN         q      C6AA      α(0)
     1   7 N        1.773    -0.277    27.995     7.835
     2   6 C        2.827     0.101    25.759     8.317
     3   6 C        3.908     0.006    20.417     6.423
     4   6 C        2.975     0.001    27.996     8.679
     5   6 C        2.921    -0.080    30.013     8.984
     6   6 C        2.863     0.127    25.206     8.229
     7   8 O        1.706    -0.236    17.916     5.715
     8   6 C        3.645     0.030    20.411     6.494
     9   6 C        2.864     0.126    25.235     8.234
    10   8 O        1.706    -0.235    17.900     5.712
    11   6 C        3.645     0.029    20.416     6.494
    12   6 C        2.914    -0.076    29.895     8.966
    13   6 C        2.921    -0.054    29.352     8.884
    14   6 C        3.813    -0.064    21.711     6.632
    15   6 C        3.802    -0.067    21.785     6.645
    16   6 C        2.842    -0.004    28.119     8.690
    17   7 N        2.729    -0.006    21.369     6.866
    18   6 C        3.754    -0.014    20.872     6.514
    19   6 C        3.808    -0.073    21.895     6.661
    20   6 C        2.969     0.009    27.816     8.651
    21   6 C        2.926    -0.050    29.236     8.867
    22   6 C        2.912    -0.042    29.045     8.837
    23   6 C        2.852     0.071    26.396     8.421
    24   8 O        2.498    -0.114    16.007     5.404
    25   6 C        2.697    -0.134    31.398     9.171
    26   6 C        2.858     0.126    25.241     8.235
    27   8 O        1.705    -0.274    18.541     5.814
    28   6 C        3.643     0.029    20.428     6.498
    29   6 C        2.923    -0.076    29.905     8.968
    30   6 C        3.698    -0.067    21.953     6.701
    31   6 C        3.853    -0.007    20.672     6.467
    32   6 C        3.756    -0.118    22.808     6.810
    33   6 C        3.755    -0.118    22.809     6.810
    34   1 H        0.926     0.050     2.324     2.384
    35   1 H        0.924     0.051     2.304     2.374
    36   1 H        0.925     0.078     2.001     2.212
    37   1 H        0.924     0.044     2.390     2.418
    38   1 H        0.924     0.052     2.294     2.369
    39   1 H        0.925     0.078     2.002     2.213
    40   1 H        0.924     0.044     2.392     2.419
    41   1 H        0.926     0.048     2.344     2.394
    42   1 H        0.926     0.036     2.498     2.472
    43   1 H        0.925     0.057     2.236     2.338
    44   1 H        0.924     0.051     2.313     2.379
    45   1 H        0.925     0.063     2.160     2.298
    46   1 H        0.923     0.072     2.064     2.247
    47   1 H        0.922     0.003     3.002     2.710
    48   1 H        0.926     0.059     2.205     2.322
    49   1 H        0.924     0.063     2.170     2.304
    50   1 H        0.924     0.065     2.143     2.289
    51   1 H        0.924     0.059     2.212     2.326
    52   1 H        0.924     0.059     2.214     2.327
    53   1 H        0.926     0.059     2.216     2.328
    54   1 H        0.926     0.080     1.980     2.200
    55   1 H        0.925     0.022     2.707     2.573
    56   1 H        0.926     0.040     2.445     2.445
    57   1 H        0.811     0.357     0.570     1.186
    58   1 H        0.925     0.079     1.990     2.206
    59   1 H        0.924     0.051     2.309     2.376
    60   1 H        0.924     0.054     2.265     2.354
    61   1 H        0.926     0.056     2.242     2.342
    62   1 H        0.924     0.070     2.086     2.259
    63   1 H        0.924     0.079     1.993     2.207
    64   1 H        0.925     0.073     2.056     2.243
    65   1 H        0.924     0.034     2.524     2.485
    66   1 H        0.925     0.067     2.118     2.276
    67   1 H        0.925     0.034     2.529     2.487
    68   1 H        0.925     0.048     2.345     2.395
    69   1 H        0.925     0.060     2.200     2.319
    70   1 H        0.925     0.032     2.552     2.498
    71   1 H        0.925     0.051     2.303     2.373
    72   1 H        0.860     0.151     1.394     1.850

Wiberg/Mayer (AO) data.
largest (>0.10) Wiberg bond orders for each atom

     #   Z sym  total        # sym  WBO       # sym  WBO       # sym  WBO
 ---------------------------------------------------------------------------
     1   7 N    3.032 --     2 C    1.950    72 H    0.944
     2   6 C    3.925 --     1 N    1.950     3 C    0.996    47 H    0.905
     3   6 C    3.978 --     2 C    0.996     4 C    0.970    14 C    0.956
                            31 C    0.945
     4   6 C    3.957 --    13 C    1.421     5 C    1.366     3 C    0.970
     5   6 C    3.966 --     6 C    1.406     4 C    1.366    34 H    0.958
     6   6 C    3.913 --     5 C    1.406     9 C    1.229     7 O    1.091
     7   8 O    2.252 --     6 C    1.091     8 C    0.980
     8   6 C    3.935 --     7 O    0.980    36 H    0.977    35 H    0.974
                            37 H    0.974
     9   6 C    3.910 --    12 C    1.398     6 C    1.229    10 O    1.092
    10   8 O    2.250 --     9 C    1.092    11 C    0.980
    11   6 C    3.935 --    10 O    0.980    39 H    0.977    40 H    0.975
                            38 H    0.974
    12   6 C    3.967 --    13 C    1.399     9 C    1.398    41 H    0.964
    13   6 C    3.962 --     4 C    1.421    12 C    1.399    42 H    0.963
    14   6 C    3.972 --    15 C    0.982    44 H    0.973    43 H    0.969
                             3 C    0.956
    15   6 C    3.987 --    16 C    1.059    14 C    0.982    45 H    0.961
                            46 H    0.930
    16   6 C    3.520 --    17 N    1.348    15 C    1.059    48 H    0.960
    17   7 N    3.429 --    16 C    1.348    30 C    1.000    18 C    0.995
    18   6 C    3.962 --    17 N    0.995    50 H    0.968    49 H    0.966
                            19 C    0.965
    19   6 C    3.977 --    20 C    1.014    52 H    0.971    51 H    0.971
                            18 C    0.965
    20   6 C    3.949 --    21 C    1.408    29 C    1.387    19 C    1.014
    21   6 C    3.963 --    22 C    1.414    20 C    1.408    53 H    0.967
    22   6 C    3.949 --    23 C    1.421    21 C    1.414    54 H    0.959
    23   6 C    3.818 --    22 C    1.421    26 C    1.302    24 O    0.874
    24   8 O    2.616 --    23 C    0.874    57 H    0.853    25 C    0.803
    25   6 C    2.822 --    55 H    0.979    56 H    0.979    24 O    0.803
    26   6 C    3.916 --    29 C    1.377    23 C    1.302    27 O    1.069
    27   8 O    2.229 --    26 C    1.069    28 C    0.971
    28   6 C    3.930 --    58 H    0.977    59 H    0.977    60 H    0.977
                            27 O    0.971
    29   6 C    3.950 --    20 C    1.387    26 C    1.377    61 H    0.963
    30   6 C    3.961 --    17 N    1.000    64 H    0.978    62 H    0.967
                            63 H    0.963
    31   6 C    3.976 --    33 C    1.009    32 C    1.009    65 H    0.961
                             3 C    0.945
    32   6 C    3.983 --    31 C    1.009    68 H    0.983    67 H    0.983
                            66 H    0.976
    33   6 C    3.986 --    31 C    1.009    70 H    0.984    71 H    0.981
                            69 H    0.978
    34   1 H    0.996 --     5 C    0.958
    35   1 H    0.995 --     8 C    0.974
    36   1 H    0.993 --     8 C    0.977
    37   1 H    0.995 --     8 C    0.974
    38   1 H    0.994 --    11 C    0.974
    39   1 H    0.993 --    11 C    0.977
    40   1 H    0.995 --    11 C    0.975
    41   1 H    0.996 --    12 C    0.964
    42   1 H    0.998 --    13 C    0.963
    43   1 H    0.995 --    14 C    0.969
    44   1 H    0.997 --    14 C    0.973
    45   1 H    0.995 --    15 C    0.961
    46   1 H    0.967 --    15 C    0.930
    47   1 H    0.989 --     2 C    0.905
    48   1 H    0.996 --    16 C    0.960
    49   1 H    0.992 --    18 C    0.966
    50   1 H    0.995 --    18 C    0.968
    51   1 H    0.996 --    19 C    0.971
    52   1 H    0.996 --    19 C    0.971
    53   1 H    0.996 --    21 C    0.967
    54   1 H    0.992 --    22 C    0.959
    55   1 H    0.990 --    25 C    0.979
    56   1 H    0.989 --    25 C    0.979
    57   1 H    0.871 --    24 O    0.853
    58   1 H    0.993 --    28 C    0.977
    59   1 H    0.997 --    28 C    0.977
    60   1 H    0.997 --    28 C    0.977
    61   1 H    0.996 --    29 C    0.963
    62   1 H    0.984 --    30 C    0.967
    63   1 H    0.987 --    30 C    0.963
    64   1 H    0.994 --    30 C    0.978
    65   1 H    0.994 --    31 C    0.961
    66   1 H    0.993 --    32 C    0.976
    67   1 H    0.997 --    32 C    0.983
    68   1 H    0.995 --    32 C    0.983
    69   1 H    0.994 --    33 C    0.978
    70   1 H    0.998 --    33 C    0.984
    71   1 H    0.995 --    33 C    0.981
    72   1 H    0.973 --     1 N    0.944
 ---------------------------------------------------------------------------

molecular dipole:
                 x           y           z       tot (Debye)
 q only:        3.067      -0.772      -0.587
   full:        3.211      -1.175      -0.608       8.827

           -------------------------------------------------
          | TOTAL ENERGY              -99.851213185785 Eh   |
          | GRADIENT NORM               0.002864996034 Eh/α |
          | HOMO-LUMO GAP               1.017718762734 eV   |
           -------------------------------------------------

 * finished run on 2024/04/06 at 11:17:08.655
