   * xtb version 6.6.1 (8d0f1dd) compiled by 'conda@1efc2f54142f' on 2023-08-01
          program call               : xtb xtbopt.xyz --opt crude --input .xc2 --gfn2

   ID    Z sym.   atoms
    1    7 N      1, 17
    2    6 C      2-6, 8, 9, 11-16, 18-23, 25, 26, 28-33
    3    8 O      7, 10, 24, 27
    4    1 H      34-72
########################################################################
[WARNING] Please study the warnings concerning your input carefully
-1- readin_getIntValue: could not parse ''
########################################################################

          :  Hamiltonian                  GFN2-xTB          :
 * total energy  :   -99.2390759 Eh     change        0.3836931E-12 Eh
 * total energy  :   -99.2872878 Eh     change       -0.4821189E-01 Eh
 * total energy  :   -99.2877838 Eh     change       -0.4960434E-03 Eh
 * total energy  :   -99.2880870 Eh     change       -0.3031751E-03 Eh
   *** GEOMETRY OPTIMIZATION CONVERGED AFTER 4 ITERATIONS ***

 final structure:
================
72
 xtb: 6.6.1 (8d0f1dd)
N           -1.93220763540456        2.84344459849622        2.31575907523549
C           -1.85943481883466        2.11300459265880        1.30358675248784
C           -2.96544820925089        1.92557124950591        0.30261976464713
C           -3.46441559609083        0.48963547816098        0.35617859926285
C           -4.34441243559045        0.02754784089865       -0.62499565358701
C           -4.83891792100393       -1.26477685820996       -0.60394672732574
O           -5.69908175490408       -1.78465599992450       -1.50816996596062
C           -6.24134222444887       -0.94421051268787       -2.49869394418920
C           -4.43616214781844       -2.15055434561380        0.42928825252811
O           -4.95809921445031       -3.39528846996525        0.36448127773313
C           -4.66971973116793       -4.30906109657383        1.39557805716485
C           -3.56671477473451       -1.68618606952345        1.40184541438786
C           -3.09019500206473       -0.38065846287486        1.36642940960026
C           -2.33297092120369        2.21244219167832       -1.08481636485970
C           -1.40517165525375        1.10025642251433       -1.60699591863599
C           -0.10008863708977        1.04105063431510       -0.91194317229278
N            0.50941243698056       -0.07617854313766       -0.49604122412442
C            1.90316005921416       -0.04299339405237       -0.13084521393224
C            2.80602620712093       -0.51050999676579       -1.29286972105068
C            4.24741775907504       -0.22045961850217       -0.99177222569428
C            4.80569622139716        0.99288578379989       -1.37483377871786
C            6.13351236215982        1.27574005013294       -1.09773883239878
C            6.89437348657225        0.33411360937374       -0.43403138752154
O            8.28873422879381        0.54933101520553       -0.16965686386080
C            8.71854029759462        1.86096202966147        0.31063846262524
C            6.35280869117152       -0.88574293380574       -0.01234741890751
O            7.21976379187045       -1.69940885125576        0.65444098491684
C            6.76437257672161       -2.96621670518408        1.08460006500021
C            5.02088933821818       -1.15119573069255       -0.29935449823720
C           -0.13629416315098       -1.36481820449191       -0.55254033210484
C           -4.17987502659722        2.87123868830660        0.53659457087655
C           -4.88128449457649        2.56279536972613        1.85740914048805
C           -3.80963439900509        4.35095760349336        0.48309938307222
H           -4.65639563850929        0.69582812297795       -1.41013947278989
H           -6.77111579713165       -0.09433963067746       -2.05765841922737
H           -6.94782765972585       -1.56135643957074       -3.05028718368047
H           -5.47025117312970       -0.57917259575145       -3.18540158510292
H           -4.99589036815161       -3.93181589331615        2.36942937131214
H           -5.22936598084716       -5.21008230418175        1.15217818438892
H           -3.60147037716596       -4.54674613263781        1.43519611975332
H           -3.25917032171989       -2.33025911828960        2.20974971020112
H           -2.43970990872120       -0.04596392167409        2.15976666112517
H           -3.13289980785807        2.35409559384339       -1.81083972581475
H           -1.77061248550515        3.14536805825052       -1.02856060160277
H           -1.92312304176731        0.14371388129589       -1.56969381907028
H           -1.20626822992681        1.32977729855316       -2.66284163431199
H           -0.94735669550272        1.55960953235419        1.00782773020928
H            0.48390066884546        1.94761560736355       -0.86732838329944
H            2.06522851172960       -0.68205852318706        0.74138842670565
H            2.17734564990903        0.97922069417208        0.13898703310376
H            2.50798050628540        0.02639408609411       -2.19501903208123
H            2.65924643515305       -1.57762581722415       -1.46221980831102
H            4.21052493324126        1.71773453847513       -1.90696681386303
H            6.57951168899410        2.20995640255759       -1.39701477412242
H            8.07966253772975        2.24883649137876        1.09333901769421
H            8.86563673553267        2.52589082771446       -0.52832480508419
H            8.55533502906881       -0.12336131222336        0.49042924300648
H            7.62146667361731       -3.43942405124435        1.55893774251826
H            5.95321668476357       -2.86931462300420        1.81097493661830
H            6.43590769392136       -3.57425811791049        0.23827293156515
H            4.57864416683582       -2.08789541912084       -0.00104728301397
H           -0.25536927149321       -1.70908958317928       -1.58300495470153
H           -1.12143487288366       -1.31580098650614       -0.08312722915220
H            0.46733432162957       -2.09017978436537       -0.01231012978130
H           -4.88909913820885        2.67100835031852       -0.27480036822879
H           -4.21690248609672        2.77376278193091        2.68889577045042
H           -5.18759285705323        1.52063382437711        1.90498541534486
H           -5.76726827191574        3.18496017597475        1.95353021388431
H           -3.08641642738978        4.58613561422522        1.25757627368439
H           -3.40425922744782        4.63335890169833       -0.48496223922364
H           -4.70131087979455        4.94756646224802        0.65730866456320
H           -1.10655241657140        2.91335516609748        2.90308369231341

          :  Hamiltonian                  GFN2-xTB          :
         :: total energy             -99.288086988481 Eh    ::
         :: gradient norm              0.004211001332 Eh/a0 ::
         :: HOMO-LUMO gap              0.998891467393 eV    ::
         :: SCC energy              -100.659231544733 Eh    ::
         :: -> dispersion             -0.075624774117 Eh    ::
         :: repulsion energy           1.369860931711 Eh    ::

    * Orbital Energies and Occupations

         #    Occupation            Energy/Eh            Energy/eV
      -------------------------------------------------------------
         1        2.0000           -0.8669817             -23.5918
       ...           ...                  ...                  ...
        78        1.9993           -0.5259347             -14.3114
        79        1.9989           -0.5182730             -14.1029
        80        1.9988           -0.5175885             -14.0843
        81        1.9988           -0.5168857             -14.0652
        82        1.9983           -0.5114155             -13.9163
        83        1.9972           -0.5039688             -13.7137
        84        1.9967           -0.5014508             -13.6452
        85        1.9961           -0.4985777             -13.5670
        86        1.9958           -0.4973972             -13.5349
        87        1.9863           -0.4785787             -13.0228
        88        1.9538           -0.4590847             -12.4923
        89        1.9100           -0.4481663             -12.1952
        90        1.5506           -0.4194018             -11.4125 (HOMO)
        91        0.5071           -0.3826932             -10.4136 (LUMO)
        92        0.0563           -0.3437231              -9.3532
        93        0.0318           -0.3344801              -9.1017
        94        0.0188           -0.3260389              -8.8720
        95        0.0049           -0.3045781              -8.2880
        96        0.0039           -0.3011234              -8.1940
        97        0.0000           -0.2151298              -5.8540
        98        0.0000           -0.1784267              -4.8552
        99        0.0000           -0.1759438              -4.7877
       100                         -0.1267546              -3.4492
       101                         -0.0921876              -2.5086
       ...                                ...                  ...
       171                          0.5851581              15.9230
      -------------------------------------------------------------
                  HL-Gap            0.0367086 Eh            0.9989 eV

     #   Z          covCN         q      C6AA      α(0)
     1   7 N        1.774    -0.277    28.000     7.836
     2   6 C        2.827     0.101    25.762     8.317
     3   6 C        3.908     0.006    20.418     6.423
     4   6 C        2.974     0.001    27.996     8.679
     5   6 C        2.921    -0.080    30.012     8.984
     6   6 C        2.863     0.127    25.208     8.230
     7   8 O        1.706    -0.237    17.921     5.716
     8   6 C        3.645     0.030    20.409     6.493
     9   6 C        2.864     0.126    25.238     8.235
    10   8 O        1.706    -0.236    17.907     5.713
    11   6 C        3.645     0.029    20.413     6.493
    12   6 C        2.914    -0.076    29.896     8.966
    13   6 C        2.922    -0.054    29.353     8.885
    14   6 C        3.813    -0.064    21.709     6.632
    15   6 C        3.802    -0.067    21.782     6.645
    16   6 C        2.842    -0.005    28.130     8.692
    17   7 N        2.729    -0.006    21.384     6.868
    18   6 C        3.755    -0.013    20.866     6.513
    19   6 C        3.808    -0.073    21.892     6.660
    20   6 C        2.969     0.008    27.827     8.653
    21   6 C        2.926    -0.050    29.235     8.867
    22   6 C        2.913    -0.041    29.027     8.835
    23   6 C        2.853     0.075    26.314     8.408
    24   8 O        2.494    -0.113    15.986     5.400
    25   6 C        2.699    -0.129    31.262     9.151
    26   6 C        2.858     0.123    25.300     8.244
    27   8 O        1.705    -0.278    18.607     5.824
    28   6 C        3.642     0.029    20.431     6.499
    29   6 C        2.923    -0.076    29.899     8.967
    30   6 C        3.698    -0.067    21.949     6.701
    31   6 C        3.853    -0.007    20.672     6.467
    32   6 C        3.756    -0.118    22.807     6.809
    33   6 C        3.755    -0.118    22.807     6.810
    34   1 H        0.926     0.050     2.326     2.385
    35   1 H        0.924     0.051     2.306     2.375
    36   1 H        0.925     0.078     2.003     2.213
    37   1 H        0.924     0.044     2.392     2.419
    38   1 H        0.924     0.052     2.297     2.370
    39   1 H        0.925     0.078     2.005     2.214
    40   1 H        0.924     0.044     2.395     2.420
    41   1 H        0.926     0.048     2.347     2.396
    42   1 H        0.926     0.036     2.501     2.473
    43   1 H        0.925     0.057     2.239     2.340
    44   1 H        0.924     0.050     2.316     2.380
    45   1 H        0.925     0.063     2.163     2.300
    46   1 H        0.923     0.071     2.069     2.250
    47   1 H        0.922     0.004     2.998     2.708
    48   1 H        0.926     0.059     2.210     2.325
    49   1 H        0.924     0.062     2.176     2.307
    50   1 H        0.924     0.065     2.146     2.291
    51   1 H        0.924     0.059     2.214     2.327
    52   1 H        0.924     0.058     2.218     2.329
    53   1 H        0.926     0.058     2.221     2.330
    54   1 H        0.926     0.078     1.995     2.208
    55   1 H        0.925     0.019     2.753     2.594
    56   1 H        0.926     0.040     2.452     2.449
    57   1 H        0.803     0.365     0.555     1.170
    58   1 H        0.925     0.079     1.992     2.207
    59   1 H        0.924     0.052     2.295     2.369
    60   1 H        0.924     0.056     2.250     2.346
    61   1 H        0.926     0.056     2.248     2.345
    62   1 H        0.924     0.070     2.090     2.261
    63   1 H        0.924     0.079     1.994     2.208
    64   1 H        0.925     0.072     2.061     2.245
    65   1 H        0.924     0.034     2.526     2.486
    66   1 H        0.925     0.067     2.119     2.277
    67   1 H        0.925     0.034     2.530     2.487
    68   1 H        0.925     0.048     2.347     2.396
    69   1 H        0.925     0.060     2.202     2.321
    70   1 H        0.925     0.032     2.554     2.499
    71   1 H        0.925     0.051     2.305     2.374
    72   1 H        0.860     0.151     1.396     1.851

Wiberg/Mayer (AO) data.
largest (>0.10) Wiberg bond orders for each atom

     #   Z sym  total        # sym  WBO       # sym  WBO       # sym  WBO
 ---------------------------------------------------------------------------
     1   7 N    3.032 --     2 C    1.950    72 H    0.944
     2   6 C    3.924 --     1 N    1.950     3 C    0.996    47 H    0.904
     3   6 C    3.978 --     2 C    0.996     4 C    0.970    14 C    0.957
                            31 C    0.945
     4   6 C    3.958 --    13 C    1.421     5 C    1.366     3 C    0.970
     5   6 C    3.967 --     6 C    1.406     4 C    1.366    34 H    0.958
     6   6 C    3.913 --     5 C    1.406     9 C    1.230     7 O    1.091
     7   8 O    2.252 --     6 C    1.091     8 C    0.980
     8   6 C    3.936 --     7 O    0.980    36 H    0.977    35 H    0.974
                            37 H    0.974
     9   6 C    3.910 --    12 C    1.398     6 C    1.230    10 O    1.092
    10   8 O    2.250 --     9 C    1.092    11 C    0.980
    11   6 C    3.936 --    10 O    0.980    39 H    0.977    40 H    0.975
                            38 H    0.974
    12   6 C    3.967 --    13 C    1.399     9 C    1.398    41 H    0.964
    13   6 C    3.962 --     4 C    1.421    12 C    1.399    42 H    0.963
    14   6 C    3.972 --    15 C    0.982    44 H    0.973    43 H    0.969
                             3 C    0.957
    15   6 C    3.987 --    16 C    1.059    14 C    0.982    45 H    0.962
                            46 H    0.930
    16   6 C    3.518 --    17 N    1.345    15 C    1.059    48 H    0.960
    17   7 N    3.427 --    16 C    1.345    30 C    1.001    18 C    0.996
    18   6 C    3.963 --    17 N    0.996    50 H    0.968    49 H    0.966
                            19 C    0.965
    19   6 C    3.977 --    20 C    1.014    52 H    0.971    51 H    0.971
                            18 C    0.965
    20   6 C    3.948 --    21 C    1.407    29 C    1.386    19 C    1.014
    21   6 C    3.963 --    22 C    1.416    20 C    1.407    53 H    0.967
    22   6 C    3.948 --    21 C    1.416    23 C    1.415    54 H    0.960
    23   6 C    3.824 --    22 C    1.415    26 C    1.304    24 O    0.889
    24   8 O    2.615 --    23 C    0.889    57 H    0.828    25 C    0.810
    25   6 C    2.825 --    55 H    0.979    56 H    0.976    24 O    0.810
    26   6 C    3.914 --    29 C    1.380    23 C    1.304    27 O    1.063
    27   8 O    2.228 --    26 C    1.063    28 C    0.968
    28   6 C    3.929 --    58 H    0.977    59 H    0.977    60 H    0.977
                            27 O    0.968
    29   6 C    3.949 --    20 C    1.386    26 C    1.380    61 H    0.963
    30   6 C    3.961 --    17 N    1.001    64 H    0.978    62 H    0.967
                            63 H    0.963
    31   6 C    3.977 --    33 C    1.009    32 C    1.009    65 H    0.962
                             3 C    0.945
    32   6 C    3.983 --    31 C    1.009    67 H    0.983    68 H    0.983
                            66 H    0.976
    33   6 C    3.986 --    31 C    1.009    70 H    0.984    71 H    0.981
                            69 H    0.978
    34   1 H    0.996 --     5 C    0.958
    35   1 H    0.995 --     8 C    0.974
    36   1 H    0.993 --     8 C    0.977
    37   1 H    0.995 --     8 C    0.974
    38   1 H    0.994 --    11 C    0.974
    39   1 H    0.993 --    11 C    0.977
    40   1 H    0.995 --    11 C    0.975
    41   1 H    0.996 --    12 C    0.964
    42   1 H    0.998 --    13 C    0.963
    43   1 H    0.995 --    14 C    0.969
    44   1 H    0.997 --    14 C    0.973
    45   1 H    0.995 --    15 C    0.962
    46   1 H    0.967 --    15 C    0.930
    47   1 H    0.990 --     2 C    0.904
    48   1 H    0.996 --    16 C    0.960
    49   1 H    0.992 --    18 C    0.966
    50   1 H    0.995 --    18 C    0.968
    51   1 H    0.996 --    19 C    0.971
    52   1 H    0.996 --    19 C    0.971
    53   1 H    0.996 --    21 C    0.967
    54   1 H    0.993 --    22 C    0.960
    55   1 H    0.990 --    25 C    0.979
    56   1 H    0.989 --    25 C    0.976
    57   1 H    0.863 --    24 O    0.828
    58   1 H    0.993 --    28 C    0.977
    59   1 H    0.997 --    28 C    0.977
    60   1 H    0.996 --    28 C    0.977
    61   1 H    0.996 --    29 C    0.963
    62   1 H    0.984 --    30 C    0.967
    63   1 H    0.987 --    30 C    0.963
    64   1 H    0.994 --    30 C    0.978
    65   1 H    0.994 --    31 C    0.962
    66   1 H    0.993 --    32 C    0.976
    67   1 H    0.997 --    32 C    0.983
    68   1 H    0.995 --    32 C    0.983
    69   1 H    0.994 --    33 C    0.978
    70   1 H    0.998 --    33 C    0.984
    71   1 H    0.995 --    33 C    0.981
    72   1 H    0.973 --     1 N    0.944
 ---------------------------------------------------------------------------

molecular dipole:
                 x           y           z       tot (Debye)
 q only:        3.270      -0.856      -0.525
   full:        3.400      -1.222      -0.571       9.297

           -------------------------------------------------
          | TOTAL ENERGY              -99.288086988481 Eh   |
          | GRADIENT NORM               0.004211001332 Eh/α |
          | HOMO-LUMO GAP               0.998891467393 eV   |
           -------------------------------------------------

 * finished run on 2024/04/06 at 11:17:09.609
