   * xtb version 6.6.1 (8d0f1dd) compiled by 'conda@1efc2f54142f' on 2023-08-01
          program call               : xtb struc.xyz --opt loose --input .xc1 --gfn2

   ID    Z sym.   atoms
    1    6 C      1, 3, 5-7, 10, 11, 14
    2    7 N      2, 4, 9, 13
    3    8 O      8, 12
    4    1 H      15-25
constraining bond 11 12 to    3.7600000 Å, actual value:    1.1960413 Å

          :  Hamiltonian                  GFN2-xTB          :
 * total energy  :     4.7036659 Eh     change       -0.6650680E-10 Eh
 * total energy  :   -16.7803866 Eh     change       -0.2148405E+02 Eh
 * total energy  :   -30.2832019 Eh     change       -0.1350282E+02 Eh
 * total energy  :   -38.1020469 Eh     change       -0.7818845E+01 Eh
 * total energy  :   -41.1754384 Eh     change       -0.3073392E+01 Eh
 * total energy  :   -41.6322180 Eh     change       -0.4567796E+00 Eh
 * total energy  :   -41.6480322 Eh     change       -0.1581413E-01 Eh
 * total energy  :   -41.6705530 Eh     change       -0.2252079E-01 Eh
 * total energy  :   -41.6921060 Eh     change       -0.2155306E-01 Eh
 * total energy  :   -41.7198989 Eh     change       -0.2779289E-01 Eh
 * total energy  :   -42.1678011 Eh     change       -0.8406235E-03 Eh
 * total energy  :   -42.1682507 Eh     change       -0.4495939E-03 Eh
 * total energy  :   -42.1684260 Eh     change       -0.1752618E-03 Eh
 * total energy  :   -42.1685452 Eh     change       -0.1192038E-03 Eh
 * total energy  :   -42.1686560 Eh     change       -0.1108228E-03 Eh
 * total energy  :   -42.1687447 Eh     change       -0.8865370E-04 Eh
 * total energy  :   -42.1688003 Eh     change       -0.5566264E-04 Eh
 * total energy  :   -42.1688343 Eh     change       -0.3391999E-04 Eh
 * total energy  :   -42.1688708 Eh     change       -0.3651420E-04 Eh
   *** GEOMETRY OPTIMIZATION CONVERGED AFTER 107 ITERATIONS ***

 final structure:
================
25
 xtb: 6.6.1 (8d0f1dd)
C            3.23681012840152        0.94373265353750        0.34538019637823
N            2.16687956685229       -0.01707112578738        0.31684435359325
C            2.26310234544389       -1.33562941738594        0.46335428889359
N            1.04492215048643       -1.90138186305018        0.33143478063842
C            0.14315147030342       -0.90888639403859        0.08891011109897
C            0.84610845640036        0.28584262803430        0.07829833706125
C            0.18724575239374        1.54875268660875       -0.15484823206172
O            0.68978318909017        2.64588540475645       -0.16608695034936
N           -1.19519759892806        1.34187236959810       -0.39389004203862
C           -1.94882401607567        2.55674203374078       -0.66125514434596
C           -1.87287723109181        0.20823467307745       -0.40167302593266
O           -1.21788376400471       -3.37795978258127        0.50385081306699
N           -1.19534080242689       -0.97465437094672       -0.11263429875260
C           -1.82785777217143       -2.33011318540336       -0.23337531009017
H            3.97722902819324        0.66363264355315        1.09228360976255
H            3.72085150445769        0.99687154062586       -0.63216541061653
H            2.82403355627732        1.92586701338282        0.57418535859080
H            3.16928577838282       -1.87240893674427        0.66187943834587
H           -1.39676705122664        3.17552335234553       -1.36758659505620
H           -2.92130013288729        2.28622564361592       -1.06203720701128
H           -2.07331527670965        3.12357442953741        0.26269026777415
H           -1.74540781674203       -2.62072774957448       -1.28771154275682
H           -2.88469135815822       -2.19604389344890        0.01562762977364
H           -1.62546994804465       -3.46492411357316        1.37469805315756
H            0.79596135588507       -2.88471769827966        0.39499813877662

          :  Hamiltonian                  GFN2-xTB          :
         :: total energy             -42.168870778933 Eh    ::
         :: gradient norm              0.002895812164 Eh/a0 ::
         :: HOMO-LUMO gap              2.257366728893 eV    ::
         :: SCC energy               -42.666045922693 Eh    ::
         :: -> dispersion             -0.022363240997 Eh    ::
         :: repulsion energy           0.496971426158 Eh    ::

    * Orbital Energies and Occupations

         #    Occupation            Energy/Eh            Energy/eV
      -------------------------------------------------------------
         1        2.0000           -0.9032519             -24.5787
       ...           ...                  ...                  ...
        25        2.0000           -0.6633724             -18.0513
        26        2.0000           -0.6538000             -17.7908
        27        2.0000           -0.6440489             -17.5255
        28        2.0000           -0.6388056             -17.3828
        29        1.9999           -0.6314604             -17.1829
        30        1.9997           -0.6124304             -16.6651
        31        1.9997           -0.6107143             -16.6184
        32        1.9995           -0.6007901             -16.3483
        33        1.9991           -0.5933881             -16.1469
        34        1.9977           -0.5783713             -15.7383
        35        1.9956           -0.5676421             -15.4463
        36        1.9881           -0.5519932             -15.0205
        37        1.8595           -0.5118233             -13.9274 (HOMO)
        38        0.1312           -0.4288666             -11.6701 (LUMO)
        39        0.0211           -0.3990141             -10.8577
        40        0.0090           -0.3853604             -10.4862
        41        0.0000           -0.2829058              -7.6983
        42        0.0000           -0.2156284              -5.8675
        43                         -0.1881582              -5.1200
        44                         -0.1511828              -4.1139
        45                         -0.1273753              -3.4661
        46                         -0.1060036              -2.8845
        47                         -0.0708122              -1.9269
        48                         -0.0260956              -0.7101
       ...                                ...                  ...
        67                          0.5464819              14.8705
      -------------------------------------------------------------
                  HL-Gap            0.0829567 Eh            2.2574 eV

     #   Z          covCN         q      C6AA      α(0)
     1   6 C        3.691    -0.087    22.365     6.767
     2   7 N        2.834     0.070    20.013     6.644
     3   6 C        3.057     0.054    26.725     8.478
     4   7 N        2.794    -0.066    22.520     7.048
     5   6 C        3.051     0.118    25.368     8.260
     6   6 C        3.119    -0.015    28.208     8.699
     7   6 C        2.770     0.260    22.618     7.789
     8   8 O        0.857    -0.367    21.032     6.149
     9   7 N        2.747     0.011    21.065     6.817
    10   6 C        3.721    -0.070    21.960     6.693
    11   6 C        1.883    -0.086    33.484     9.346
    12   8 O        1.654    -0.419    21.216     6.218
    13   7 N        2.736    -0.034    21.896     6.950
    14   6 C        3.611     0.114    19.183     6.324
    15   1 H        0.925     0.100     1.785     2.089
    16   1 H        0.924     0.108     1.717     2.049
    17   1 H        0.925     0.130     1.536     1.938
    18   1 H        0.926     0.120     1.611     1.985
    19   1 H        0.925     0.101     1.771     2.081
    20   1 H        0.925     0.101     1.772     2.082
    21   1 H        0.924     0.096     1.825     2.113
    22   1 H        0.924     0.095     1.831     2.116
    23   1 H        0.924     0.093     1.850     2.127
    24   1 H        0.805     0.322     0.659     1.276
    25   1 H        0.860     0.250     0.884     1.472

Wiberg/Mayer (AO) data.
largest (>0.10) Wiberg bond orders for each atom

     #   Z sym  total        # sym  WBO       # sym  WBO       # sym  WBO
 ---------------------------------------------------------------------------
     1   6 C    3.921 --     2 N    0.988    15 H    0.969    17 H    0.962
                            16 H    0.954
     2   7 N    3.666 --     3 C    1.380     6 C    1.154     1 C    0.988
     3   6 C    3.845 --     2 N    1.380     4 N    1.286    18 H    0.953
     4   7 N    3.587 --     3 C    1.286     5 C    1.195    25 H    0.894
     5   6 C    3.943 --     6 C    1.356    13 N    1.195     4 N    1.195
     6   6 C    3.919 --     5 C    1.356     2 N    1.154     7 C    1.089
     7   6 C    3.927 --     8 O    1.701     6 C    1.089     9 N    1.034
     8   8 O    2.024 --     7 C    1.701     9 N    0.122
     9   7 N    3.659 --    11 C    1.436     7 C    1.034    10 C    0.977
                             8 O    0.122
    10   6 C    3.928 --     9 N    0.977    20 H    0.975    19 H    0.966
                            21 H    0.962
    11   6 C    2.848 --     9 N    1.436    13 N    1.205
    12   8 O    2.014 --    14 C    1.030    24 H    0.884
    13   7 N    3.579 --    11 C    1.205     5 C    1.195    14 C    0.934
    14   6 C    3.923 --    12 O    1.030    23 H    0.965    22 H    0.955
                            13 N    0.934
    15   1 H    0.988 --     1 C    0.969
    16   1 H    0.984 --     1 C    0.954
    17   1 H    0.982 --     1 C    0.962
    18   1 H    0.984 --     3 C    0.953
    19   1 H    0.988 --    10 C    0.966
    20   1 H    0.989 --    10 C    0.975
    21   1 H    0.988 --    10 C    0.962
    22   1 H    0.988 --    14 C    0.955
    23   1 H    0.990 --    14 C    0.965
    24   1 H    0.896 --    12 O    0.884
    25   1 H    0.937 --     4 N    0.894
 ---------------------------------------------------------------------------

molecular dipole:
                 x           y           z       tot (Debye)
 q only:        0.946      -1.793       0.495
   full:        1.304      -2.209       0.758       6.798

           -------------------------------------------------
          | TOTAL ENERGY              -42.168870778933 Eh   |
          | GRADIENT NORM               0.002895812164 Eh/α |
          | HOMO-LUMO GAP               2.257366728893 eV   |
           -------------------------------------------------

 * finished run on 2024/06/05 at 20:00:19.170
