   * xtb version 6.6.1 (8d0f1dd) compiled by 'conda@1efc2f54142f' on 2023-08-01
          program call               : xtb xtbopt.xyz --opt crude --input .xc2 --gfn2

   ID    Z sym.   atoms
    1    6 C      1, 3, 5-7, 10, 11, 14
    2    7 N      2, 4, 9, 13
    3    8 O      8, 12
    4    1 H      15-25
########################################################################
[WARNING] Please study the warnings concerning your input carefully
-1- readin_getIntValue: could not parse ''
########################################################################

          :  Hamiltonian                  GFN2-xTB          :
 * total energy  :   -42.1689686 Eh     change       -0.1065814E-12 Eh
 * total energy  :   -42.1731833 Eh     change       -0.4214662E-02 Eh
 * total energy  :   -42.1741498 Eh     change       -0.9665509E-03 Eh
 * total energy  :   -42.1744794 Eh     change       -0.3295691E-03 Eh
   *** GEOMETRY OPTIMIZATION CONVERGED AFTER 4 ITERATIONS ***

 final structure:
================
25
 xtb: 6.6.1 (8d0f1dd)
C            3.24587564963233        0.94885421343901        0.35095081738314
N            2.18454334268059       -0.02029964450557        0.31121152440098
C            2.29450911117358       -1.33959483533071        0.45127175294057
N            1.08447576690246       -1.91867333334262        0.30825945762816
C            0.17546386997279       -0.93359867921046        0.06638790187009
C            0.86167277810668        0.26988919779822        0.07004701409590
C            0.17933289174438        1.52527087436211       -0.15174763698960
O            0.66420904729034        2.63101694342617       -0.15517148884491
N           -1.20253410784188        1.29804060326423       -0.37695299332833
C           -1.96867908570759        2.50582598934272       -0.63824239167683
C           -1.85566887515466        0.14222057288088       -0.37674792569752
O           -1.26223738560272       -3.23215136210634        0.56156210154575
N           -1.16157335929552       -0.99516222170350       -0.14139319336891
C           -1.84636077662325       -2.28559568028604       -0.27023034154486
H            3.98061858186572        0.67307426815469        1.10484748529362
H            3.73908315917870        1.00608373653469       -0.62156549526212
H            2.82381975249474        1.92737510815290        0.57737362820203
H            3.20426100442003       -1.86843988108562        0.65352660429602
H           -1.43296603631810        3.11805876884973       -1.36350872259469
H           -2.94719540447113        2.22865524674033       -1.01726862232705
H           -2.07449247590339        3.08402266127990        0.28009932164485
H           -1.73204487654076       -2.63342757228597       -1.30628196321549
H           -2.90637335835590       -2.10971663716911       -0.06778837041924
H           -1.72885052902556       -3.30180335337318        1.40402439097808
H            0.84154282947902       -2.90168644222631        0.37850876289030

          :  Hamiltonian                  GFN2-xTB          :
         :: total energy             -42.174479383205 Eh    ::
         :: gradient norm              0.004681935098 Eh/a0 ::
         :: HOMO-LUMO gap              2.242711414136 eV    ::
         :: SCC energy               -42.680329914049 Eh    ::
         :: -> dispersion             -0.022479547241 Eh    ::
         :: repulsion energy           0.505737308124 Eh    ::

    * Orbital Energies and Occupations

         #    Occupation            Energy/Eh            Energy/eV
      -------------------------------------------------------------
         1        2.0000           -0.9034745             -24.5848
       ...           ...                  ...                  ...
        25        2.0000           -0.6621269             -18.0174
        26        2.0000           -0.6522719             -17.7492
        27        2.0000           -0.6427977             -17.4914
        28        1.9999           -0.6364637             -17.3191
        29        1.9999           -0.6310050             -17.1705
        30        1.9997           -0.6108331             -16.6216
        31        1.9997           -0.6107113             -16.6183
        32        1.9994           -0.5994626             -16.3122
        33        1.9991           -0.5912618             -16.0891
        34        1.9978           -0.5778701             -15.7246
        35        1.9955           -0.5663961             -15.4124
        36        1.9885           -0.5514832             -15.0066
        37        1.8566           -0.5103845             -13.8883 (HOMO)
        38        0.1327           -0.4279664             -11.6456 (LUMO)
        39        0.0238           -0.3998501             -10.8805
        40        0.0074           -0.3811411             -10.3714
        41        0.0000           -0.2811302              -7.6499
        42                         -0.1904947              -5.1836
        43                         -0.1775791              -4.8322
        44                         -0.1347586              -3.6670
        45                         -0.1239352              -3.3724
        46                         -0.0928860              -2.5276
        47                         -0.0630407              -1.7154
        48                         -0.0240521              -0.6545
       ...                                ...                  ...
        67                          0.5457688              14.8511
      -------------------------------------------------------------
                  HL-Gap            0.0824181 Eh            2.2427 eV

     #   Z          covCN         q      C6AA      α(0)
     1   6 C        3.691    -0.088    22.365     6.767
     2   7 N        2.835     0.071    20.010     6.644
     3   6 C        3.060     0.054    26.741     8.480
     4   7 N        2.792    -0.061    22.425     7.033
     5   6 C        3.062     0.115    25.412     8.266
     6   6 C        3.117    -0.013    28.176     8.695
     7   6 C        2.771     0.260    22.621     7.790
     8   8 O        0.857    -0.368    21.045     6.151
     9   7 N        2.750     0.002    21.221     6.842
    10   6 C        3.717    -0.070    21.961     6.695
    11   6 C        1.893    -0.090    33.595     9.361
    12   8 O        1.657    -0.423    21.293     6.229
    13   7 N        2.744    -0.016    21.561     6.896
    14   6 C        3.624     0.122    18.992     6.280
    15   1 H        0.925     0.100     1.784     2.089
    16   1 H        0.924     0.108     1.717     2.049
    17   1 H        0.925     0.130     1.536     1.938
    18   1 H        0.926     0.121     1.609     1.983
    19   1 H        0.925     0.100     1.784     2.089
    20   1 H        0.925     0.100     1.788     2.091
    21   1 H        0.924     0.095     1.830     2.116
    22   1 H        0.923     0.088     1.903     2.157
    23   1 H        0.924     0.090     1.878     2.143
    24   1 H        0.805     0.325     0.651     1.268
    25   1 H        0.860     0.249     0.886     1.475

Wiberg/Mayer (AO) data.
largest (>0.10) Wiberg bond orders for each atom

     #   Z sym  total        # sym  WBO       # sym  WBO       # sym  WBO
 ---------------------------------------------------------------------------
     1   6 C    3.921 --     2 N    0.988    15 H    0.969    17 H    0.962
                            16 H    0.954
     2   7 N    3.663 --     3 C    1.376     6 C    1.156     1 C    0.988
     3   6 C    3.841 --     2 N    1.376     4 N    1.287    18 H    0.953
     4   7 N    3.588 --     3 C    1.287     5 C    1.196    25 H    0.899
     5   6 C    3.940 --     6 C    1.362     4 N    1.196    13 N    1.178
     6   6 C    3.919 --     5 C    1.362     2 N    1.156     7 C    1.085
     7   6 C    3.928 --     8 O    1.701     6 C    1.085     9 N    1.040
     8   8 O    2.024 --     7 C    1.701     9 N    0.126
     9   7 N    3.650 --    11 C    1.407     7 C    1.040    10 C    0.980
                             8 O    0.126
    10   6 C    3.929 --     9 N    0.980    20 H    0.976    19 H    0.966
                            21 H    0.962
    11   6 C    2.867 --     9 N    1.407    13 N    1.250
    12   8 O    2.004 --    14 C    1.032    24 H    0.881
    13   7 N    3.603 --    11 C    1.250     5 C    1.178    14 C    0.942
    14   6 C    3.925 --    12 O    1.032    23 H    0.962    22 H    0.952
                            13 N    0.942
    15   1 H    0.988 --     1 C    0.969
    16   1 H    0.984 --     1 C    0.954
    17   1 H    0.982 --     1 C    0.962
    18   1 H    0.984 --     3 C    0.953
    19   1 H    0.988 --    10 C    0.966
    20   1 H    0.989 --    10 C    0.976
    21   1 H    0.988 --    10 C    0.962
    22   1 H    0.989 --    14 C    0.952
    23   1 H    0.991 --    14 C    0.962
    24   1 H    0.894 --    12 O    0.881
    25   1 H    0.937 --     4 N    0.899
 ---------------------------------------------------------------------------

molecular dipole:
                 x           y           z       tot (Debye)
 q only:        0.984      -1.870       0.465
   full:        1.310      -2.287       0.681       6.920

           -------------------------------------------------
          | TOTAL ENERGY              -42.174479383205 Eh   |
          | GRADIENT NORM               0.004681935098 Eh/α |
          | HOMO-LUMO GAP               2.242711414136 eV   |
           -------------------------------------------------

 * finished run on 2024/06/05 at 20:00:19.395
