   * xtb version 6.6.1 (8d0f1dd) compiled by 'conda@1efc2f54142f' on 2023-08-01
          program call               : xtb struc.xyz --opt loose --input .xc1 --gfn2

   ID    Z sym.   atoms
    1    7 N      1, 17
    2    6 C      2-6, 8, 9, 11-16, 18-23, 25, 26, 28-33
    3    8 O      7, 10, 24, 27
    4    1 H      34-72
constraining bond 1 47 to    2.6866700 Å, actual value:    2.0968291 Å

          :  Hamiltonian                  GFN2-xTB          :
 * total energy  :   -99.4662518 Eh     change       -0.4035485E-08 Eh
 * total energy  :   -99.5321468 Eh     change       -0.6589506E-01 Eh
 * total energy  :   -99.5966229 Eh     change       -0.6447604E-01 Eh
 * total energy  :   -99.7296173 Eh     change       -0.1329945E+00 Eh
 * total energy  :   -98.7906033 Eh     change        0.9390141E+00 Eh
 * total energy  :   -99.7694210 Eh     change       -0.9788178E+00 Eh
 * total energy  :   -99.7996679 Eh     change       -0.3024692E-01 Eh
 * total energy  :   -99.8408438 Eh     change       -0.4117587E-01 Eh
 * total energy  :   -99.8679398 Eh     change       -0.2709605E-01 Eh
 * total energy  :   -99.9102606 Eh     change       -0.4232075E-01 Eh
 * total energy  :  -100.0274294 Eh     change       -0.1153032E-03 Eh
 * total energy  :  -100.0275528 Eh     change       -0.1234433E-03 Eh
 * total energy  :  -100.0276848 Eh     change       -0.1320055E-03 Eh
 * total energy  :  -100.0278201 Eh     change       -0.1352952E-03 Eh
 * total energy  :  -100.0279501 Eh     change       -0.1299662E-03 Eh
 * total energy  :  -100.0280628 Eh     change       -0.1126948E-03 Eh
 * total energy  :  -100.0281507 Eh     change       -0.8792068E-04 Eh
 * total energy  :  -100.0282132 Eh     change       -0.6244620E-04 Eh
 * total energy  :  -100.0282520 Eh     change       -0.3881211E-04 Eh
   *** GEOMETRY OPTIMIZATION CONVERGED AFTER 63 ITERATIONS ***

 final structure:
================
72
 xtb: 6.6.1 (8d0f1dd)
N           -1.56707111203774        1.38408831251890        2.13299335247571
C           -1.54856675234216        1.24637505126101        0.80358964102993
C           -2.73271887136490        1.25145764428948       -0.09729099596608
C           -3.62403654694843        0.02227278452569        0.09543624013471
C           -4.69343982631035       -0.16182874188185       -0.78411857121137
C           -5.53626866823645       -1.25517334228309       -0.68312781380920
O           -6.59702369257058       -1.49618617751189       -1.47870195051678
C           -6.93801955781539       -0.56082405877301       -2.47420980596483
C           -5.30328485132786       -2.22632566001822        0.32834255067394
O           -6.15912747613468       -3.26587386818857        0.34361498120811
C           -5.99753024534508       -4.27144028237803        1.31722453142032
C           -4.24482975555793       -2.03308198593554        1.19968479095193
C           -3.41944563337168       -0.92117045000272        1.08650571246981
C           -2.07162963279031        1.17409648554660       -1.50090660594841
C           -0.73116936094186        0.47973950434100       -1.27714770929050
C           -0.25561518641681        1.06910473393764        0.06776053060751
N            0.72178884769973        0.35593631168297        0.86146849835604
C            2.10508631549418        0.72304263297851        0.66268891696915
C            2.68358495721765        0.43606752162842       -0.74228222351807
C            4.18003861041535        0.50178994616570       -0.69455461063847
C            4.85266184282816        1.69393651628180       -0.91562897920676
C            6.23330311842787        1.76019923001639       -0.81338247625408
C            6.97282922769841        0.63262596360333       -0.48334981146903
O            8.31152091922218        0.58229953008987       -0.34639140333506
C            9.06526614257925        1.75966581278865       -0.51988444301501
C            6.29320964245932       -0.59768826128779       -0.26308922857139
O            7.08577132758286       -1.64557851364144        0.04189508341643
C            6.50360237117971       -2.90977257057742        0.25144192667547
C            4.91220353245191       -0.63760218399878       -0.36766059838722
C            0.50003610010216       -1.06512790292617        1.01971220218709
C           -3.59573428244428        2.55006631130554        0.05454231955552
C           -4.54857660243507        2.51817403260089        1.25034980487452
C           -2.73888266168083        3.81300511427234        0.13137757281711
H           -4.87365907763459        0.57006179439492       -1.55381344063284
H           -7.14924703947674        0.42291314510790       -2.04399354147352
H           -7.83958500979182       -0.94918792724381       -2.94300376308191
H           -6.14981716189014       -0.47006754241710       -3.22873846324495
H           -6.11889379388974       -3.87218890505649        2.32879105193221
H           -6.78331755129710       -4.99834799293070        1.11964006676034
H           -5.02198810062942       -4.76042868961568        1.23118282083076
H           -4.04783524525677       -2.74574037386345        1.98380503484064
H           -2.61602139551008       -0.82123423627172        1.79804117635444
H           -2.68864047953330        0.62903325739255       -2.21078994612397
H           -1.90704381881326        2.17667236805115       -1.89392258711945
H           -0.88302817790119       -0.59442368339950       -1.17721472118515
H           -0.03002812064820        0.66103872079663       -2.08796768812032
H           -0.87793034629646        1.36526765125063        2.55974033811215
H            0.16497380184279        2.06823397532363       -0.12251727624962
H            2.69195273606252        0.17240440307604        1.40161396795092
H            2.21349350232594        1.78949211799012        0.87987197585172
H            2.29814265308397        1.16731546313005       -1.45371840190606
H            2.36849040797190       -0.55855794006470       -1.06079265418801
H            4.30020255940406        2.58393617042932       -1.17627704842005
H            6.72814632361513        2.70024298066158       -0.99503357382961
H            8.76708820532796        2.53388681509993        0.19360752707986
H            8.97494273494049        2.14703322950030       -1.53949486926244
H           10.09910927316034        1.47457878271759       -0.33240321654807
H            7.33266134891483       -3.58221572151712        0.46448546585572
H            5.81789080523176       -2.89989731450267        1.10516364474538
H            5.97346249914393       -3.25979801808142       -0.63999485651232
H            4.38577078241420       -1.56449854530706       -0.20111409429529
H            0.83966027726250       -1.65872019524171        0.16265871121984
H           -0.56014887654447       -1.25640713060996        1.16606198873078
H            1.04178945942377       -1.40336180312126        1.90326370250578
H           -4.20272825886817        2.60839875120095       -0.85360448255388
H           -4.02471637263460        2.70247969646350        2.18605217723609
H           -5.07642145597557        1.57055694674991        1.31989620230374
H           -5.28810914938602        3.30794289765477        1.13818885448056
H           -2.15763712287038        3.83916224164888        1.05133881659550
H           -2.05478131028394        3.89647614955351       -0.71009464518272
H           -3.38704974694976        4.68664436622128        0.11850582734447
H           -2.47056640033476        1.47917417687296        2.57694333307232

          :  Hamiltonian                  GFN2-xTB          :
         :: total energy            -100.028251980506 Eh    ::
         :: gradient norm              0.002057668775 Eh/a0 ::
         :: HOMO-LUMO gap              1.447717035456 eV    ::
         :: SCC energy              -100.832553490223 Eh    ::
         :: -> dispersion             -0.076584329665 Eh    ::
         :: repulsion energy           1.431687267497 Eh    ::

    * Orbital Energies and Occupations

         #    Occupation            Energy/Eh            Energy/eV
      -------------------------------------------------------------
         1        2.0000           -0.8059498             -21.9310
       ...           ...                  ...                  ...
        78        1.9990           -0.5334155             -14.5150
        79        1.9988           -0.5304041             -14.4330
        80        1.9986           -0.5279629             -14.3666
        81        1.9985           -0.5269572             -14.3392
        82        1.9983           -0.5252424             -14.2926
        83        1.9978           -0.5208515             -14.1731
        84        1.9973           -0.5177392             -14.0884
        85        1.9962           -0.5124518             -13.9445
        86        1.9829           -0.4885830             -13.2950
        87        1.9742           -0.4820264             -13.1166
        88        1.9239           -0.4644941             -12.6395
        89        1.8853           -0.4576714             -12.4539
        90        1.7893           -0.4472214             -12.1695 (HOMO)
        91        0.4556           -0.3940187             -10.7218 (LUMO)
        92        0.0040           -0.3148531              -8.5676
        93        0.0033           -0.3120162              -8.4904
        94        0.0021           -0.3047061              -8.2915
        95        0.0018           -0.3020645              -8.2196
        96        0.0000           -0.1890960              -5.1456
        97        0.0000           -0.1795889              -4.8869
        98                         -0.1024666              -2.7883
        99                         -0.0891037              -2.4246
       100                         -0.0715785              -1.9478
       101                         -0.0649625              -1.7677
       ...                                ...                  ...
       171                          0.6168910              16.7865
      -------------------------------------------------------------
                  HL-Gap            0.0532026 Eh            1.4477 eV

     #   Z          covCN         q      C6AA      α(0)
     1   7 N        2.636    -0.204    25.444     7.491
     2   6 C        2.926     0.074    26.356     8.419
     3   6 C        3.915     0.002    20.480     6.432
     4   6 C        2.970     0.000    28.016     8.682
     5   6 C        2.922    -0.078    29.960     8.976
     6   6 C        2.863     0.132    25.104     8.213
     7   8 O        1.706    -0.227    17.768     5.691
     8   6 C        3.645     0.027    20.457     6.501
     9   6 C        2.864     0.132    25.114     8.214
    10   8 O        1.706    -0.226    17.748     5.688
    11   6 C        3.646     0.026    20.463     6.501
    12   6 C        2.915    -0.072    29.798     8.951
    13   6 C        2.921    -0.057    29.419     8.895
    14   6 C        3.844    -0.072    21.842     6.648
    15   6 C        3.833    -0.072    21.846     6.650
    16   6 C        3.819     0.030    20.064     6.375
    17   7 N        2.727    -0.150    24.253     7.314
    18   6 C        3.752    -0.003    20.693     6.487
    19   6 C        3.806    -0.070    21.832     6.652
    20   6 C        2.969     0.005    27.913     8.666
    21   6 C        2.922    -0.047    29.155     8.855
    22   6 C        2.913    -0.067    29.660     8.930
    23   6 C        2.865     0.133    25.090     8.211
    24   8 O        1.706    -0.222    17.682     5.677
    25   6 C        3.645     0.025    20.480     6.504
    26   6 C        2.862     0.133    25.089     8.210
    27   8 O        1.706    -0.225    17.732     5.685
    28   6 C        3.645     0.028    20.443     6.498
    29   6 C        2.920    -0.078    29.950     8.974
    30   6 C        3.699    -0.045    21.538     6.637
    31   6 C        3.850    -0.016    20.833     6.492
    32   6 C        3.754    -0.115    22.767     6.804
    33   6 C        3.755    -0.115    22.756     6.802
    34   1 H        0.926     0.053     2.282     2.362
    35   1 H        0.924     0.051     2.306     2.375
    36   1 H        0.925     0.082     1.961     2.190
    37   1 H        0.924     0.050     2.316     2.380
    38   1 H        0.924     0.053     2.285     2.364
    39   1 H        0.925     0.081     1.964     2.191
    40   1 H        0.924     0.052     2.298     2.371
    41   1 H        0.926     0.053     2.282     2.362
    42   1 H        0.926     0.033     2.545     2.495
    43   1 H        0.925     0.057     2.229     2.335
    44   1 H        0.925     0.052     2.291     2.367
    45   1 H        0.925     0.052     2.299     2.371
    46   1 H        0.925     0.052     2.293     2.368
    47   1 H        0.863     0.225     0.987     1.556
    48   1 H        0.923     0.074     2.046     2.237
    49   1 H        0.924     0.053     2.282     2.362
    50   1 H        0.924     0.044     2.399     2.422
    51   1 H        0.924     0.043     2.410     2.428
    52   1 H        0.924     0.047     2.357     2.401
    53   1 H        0.926     0.047     2.363     2.404
    54   1 H        0.926     0.057     2.230     2.335
    55   1 H        0.924     0.054     2.267     2.354
    56   1 H        0.924     0.056     2.248     2.345
    57   1 H        0.925     0.081     1.964     2.192
    58   1 H        0.925     0.081     1.973     2.196
    59   1 H        0.924     0.050     2.326     2.385
    60   1 H        0.924     0.052     2.291     2.367
    61   1 H        0.926     0.049     2.336     2.390
    62   1 H        0.924     0.037     2.493     2.469
    63   1 H        0.925     0.050     2.324     2.384
    64   1 H        0.924     0.054     2.277     2.360
    65   1 H        0.924     0.052     2.294     2.368
    66   1 H        0.925     0.036     2.505     2.475
    67   1 H        0.925     0.045     2.389     2.417
    68   1 H        0.925     0.057     2.235     2.338
    69   1 H        0.925     0.036     2.497     2.471
    70   1 H        0.925     0.040     2.444     2.445
    71   1 H        0.925     0.057     2.234     2.338
    72   1 H        0.860     0.217     1.024     1.585

Wiberg/Mayer (AO) data.
largest (>0.10) Wiberg bond orders for each atom

     #   Z sym  total        # sym  WBO       # sym  WBO       # sym  WBO
 ---------------------------------------------------------------------------
     1   7 N    3.325 --     2 C    1.369    47 H    0.936    72 H    0.921
     2   6 C    3.512 --     1 N    1.369     3 C    1.032    16 C    1.011
     3   6 C    3.981 --     2 C    1.032    14 C    0.965     4 C    0.949
                            31 C    0.926
     4   6 C    3.928 --    13 C    1.426     5 C    1.364     3 C    0.949
     5   6 C    3.961 --     6 C    1.403     4 C    1.364    34 H    0.957
     6   6 C    3.909 --     5 C    1.403     9 C    1.219     7 O    1.102
     7   8 O    2.260 --     6 C    1.102     8 C    0.978
     8   6 C    3.932 --     7 O    0.978    36 H    0.977    35 H    0.974
                            37 H    0.973
     9   6 C    3.907 --    12 C    1.395     6 C    1.219    10 O    1.106
    10   8 O    2.259 --     9 C    1.106    11 C    0.977
    11   6 C    3.931 --    39 H    0.977    10 O    0.977    40 H    0.974
                            38 H    0.973
    12   6 C    3.963 --    13 C    1.400     9 C    1.395    41 H    0.964
    13   6 C    3.959 --     4 C    1.426    12 C    1.400    42 H    0.961
    14   6 C    3.987 --    15 C    1.008    43 H    0.973    44 H    0.970
                             3 C    0.965
    15   6 C    3.978 --    14 C    1.008    46 H    0.976    45 H    0.975
                            16 C    0.961
    16   6 C    3.978 --     2 C    1.011    17 N    0.999    15 C    0.961
                            48 H    0.922
    17   7 N    3.134 --    30 C    1.011    18 C    1.009    16 C    0.999
    18   6 C    3.968 --    17 N    1.009    50 H    0.970    49 H    0.969
                            19 C    0.962
    19   6 C    3.981 --    20 C    1.015    51 H    0.972    52 H    0.968
                            18 C    0.962
    20   6 C    3.936 --    21 C    1.400    29 C    1.378    19 C    1.015
    21   6 C    3.938 --    22 C    1.420    20 C    1.400    53 H    0.968
    22   6 C    3.955 --    21 C    1.420    23 C    1.380    54 H    0.963
    23   6 C    3.882 --    22 C    1.380    26 C    1.217    24 O    1.108
    24   8 O    2.247 --    23 C    1.108    25 C    0.977
    25   6 C    3.928 --    57 H    0.977    24 O    0.977    55 H    0.973
                            56 H    0.972
    26   6 C    3.890 --    29 C    1.395    23 C    1.217    27 O    1.102
    27   8 O    2.248 --    26 C    1.102    28 C    0.979
    28   6 C    3.932 --    27 O    0.979    58 H    0.977    59 H    0.973
                            60 H    0.973
    29   6 C    3.956 --    26 C    1.395    20 C    1.378    61 H    0.962
    30   6 C    3.973 --    17 N    1.011    64 H    0.978    63 H    0.975
                            62 H    0.967
    31   6 C    3.966 --    33 C    1.011    32 C    1.010    65 H    0.961
                             3 C    0.926
    32   6 C    3.992 --    31 C    1.010    68 H    0.981    67 H    0.981
                            66 H    0.977
    33   6 C    3.992 --    31 C    1.011    69 H    0.985    71 H    0.982
                            70 H    0.980
    34   1 H    0.996 --     5 C    0.957
    35   1 H    0.994 --     8 C    0.974
    36   1 H    0.993 --     8 C    0.977
    37   1 H    0.994 --     8 C    0.973
    38   1 H    0.993 --    11 C    0.973
    39   1 H    0.993 --    11 C    0.977
    40   1 H    0.993 --    11 C    0.974
    41   1 H    0.996 --    12 C    0.964
    42   1 H    0.998 --    13 C    0.961
    43   1 H    0.995 --    14 C    0.973
    44   1 H    0.996 --    14 C    0.970
    45   1 H    0.997 --    15 C    0.975
    46   1 H    0.996 --    15 C    0.976
    47   1 H    0.949 --     1 N    0.936
    48   1 H    0.970 --    16 C    0.922
    49   1 H    0.995 --    18 C    0.969
    50   1 H    0.995 --    18 C    0.970
    51   1 H    0.996 --    19 C    0.972
    52   1 H    0.996 --    19 C    0.968
    53   1 H    0.997 --    21 C    0.968
    54   1 H    0.995 --    22 C    0.963
    55   1 H    0.991 --    25 C    0.973
    56   1 H    0.991 --    25 C    0.972
    57   1 H    0.993 --    25 C    0.977
    58   1 H    0.993 --    28 C    0.977
    59   1 H    0.992 --    28 C    0.973
    60   1 H    0.992 --    28 C    0.973
    61   1 H    0.996 --    29 C    0.962
    62   1 H    0.989 --    30 C    0.967
    63   1 H    0.997 --    30 C    0.975
    64   1 H    0.994 --    30 C    0.978
    65   1 H    0.995 --    31 C    0.961
    66   1 H    0.998 --    32 C    0.977
    67   1 H    0.998 --    32 C    0.981
    68   1 H    0.995 --    32 C    0.981
    69   1 H    0.998 --    33 C    0.985
    70   1 H    0.998 --    33 C    0.980
    71   1 H    0.996 --    33 C    0.982
    72   1 H    0.953 --     1 N    0.921
 ---------------------------------------------------------------------------

molecular dipole:
                 x           y           z       tot (Debye)
 q only:       -0.559       0.906       0.894
   full:       -0.484       0.961       0.853       3.491

           -------------------------------------------------
          | TOTAL ENERGY             -100.028251980506 Eh   |
          | GRADIENT NORM               0.002057668775 Eh/α |
          | HOMO-LUMO GAP               1.447717035456 eV   |
           -------------------------------------------------

 * finished run on 2024/04/06 at 11:15:28.414
