   * xtb version 6.6.1 (8d0f1dd) compiled by 'conda@1efc2f54142f' on 2023-08-01
          program call               : xtb xtbopt.xyz --opt crude --input .xc2 --gfn2

   ID    Z sym.   atoms
    1    7 N      1, 17
    2    6 C      2-6, 8, 9, 11-16, 18-23, 25, 26, 28-33
    3    8 O      7, 10, 24, 27
    4    1 H      34-72
########################################################################
[WARNING] Please study the warnings concerning your input carefully
-1- readin_getIntValue: could not parse ''
########################################################################

          :  Hamiltonian                  GFN2-xTB          :
 * total energy  :   -99.3999373 Eh     change       -0.1612932E-10 Eh
 * total energy  :   -99.4506705 Eh     change       -0.5073325E-01 Eh
 * total energy  :   -99.4509596 Eh     change       -0.2891173E-03 Eh
   *** GEOMETRY OPTIMIZATION CONVERGED AFTER 3 ITERATIONS ***

 final structure:
================
72
 xtb: 6.6.1 (8d0f1dd)
N           -1.59405719126512        1.38532303729916        2.11876158408375
C           -1.55453514039258        1.24637621254001        0.79918142517409
C           -2.73573848528299        1.25100808206110       -0.10198731019585
C           -3.62634965221970        0.02175133310110        0.09271303634821
C           -4.69625870921607       -0.16213334697986       -0.78600730050756
C           -5.53901849432192       -1.25518395237613       -0.68431344206964
O           -6.59994508122475       -1.49619168954954       -1.47973988386654
C           -6.93966405638050       -0.56193815421864       -2.47683717101679
C           -5.30560320826436       -2.22618189664682        0.32702376573373
O           -6.16168646726090       -3.26529685206847        0.34343710584573
C           -5.99896022028994       -4.27096007926801        1.31659147030007
C           -4.24659656657964       -2.03316040499678        1.19738740810494
C           -3.42095530885565       -0.92150292005871        1.08374200387070
C           -2.07441606327247        1.17256731824103       -1.50487805763901
C           -0.73362772257910        0.47934105970515       -1.27839995665958
C           -0.25849180536421        1.06847593100643        0.06714234630598
N            0.71761116388677        0.35717733361463        0.86338211386025
C            2.10187887183147        0.72331834474531        0.66357121605430
C            2.68276930977053        0.43605720091519       -0.74048738834609
C            4.17964789957620        0.50225229003023       -0.69209655634606
C            4.85223525306562        1.69419998322181       -0.91350434024426
C            6.23297337673218        1.76058741179250       -0.81182933205933
C            6.97278435513913        0.63338585375954       -0.48248753502199
O            8.31167462546201        0.58314361932682       -0.34626644518997
C            9.06527573274229        1.76019241349215       -0.52192343708955
C            6.29339557337320       -0.59683688574217       -0.26204443372597
O            7.08629714483031       -1.64467873613373        0.04175709630185
C            6.50449679109492       -2.90893917232820        0.25140761388366
C            4.91239828449854       -0.63688127627096       -0.36582190949022
C            0.49722448880750       -1.06452115767563        1.02027742509021
C           -3.59782697700297        2.55001384109171        0.05065671060833
C           -4.54976584128087        2.51941923996435        1.24718790229539
C           -2.73983367291779        3.81226438866392        0.12862156807933
H           -4.87661806761418        0.57000889125008       -1.55540530747054
H           -7.15252601340626        0.42229974401916       -2.04800066835813
H           -7.84026245141474       -0.95171250243677       -2.94682051527592
H           -6.15024353966164       -0.47169414404425       -3.22979246661500
H           -6.11816183940177       -3.87198791479903        2.32859971452701
H           -6.78554076328941       -4.99688391198593        1.12056746099445
H           -5.02421224552869       -4.76063274864822        1.22863775467431
H           -4.04881951845404       -2.74605604425413        1.98111765793511
H           -2.61713553877891       -0.82224101669647        1.79503625012937
H           -2.68981944658624        0.62670754722868       -2.21533817015160
H           -1.90907819349731        2.17485492378707       -1.89797868762025
H           -0.88483220956220       -0.59491851732053       -1.17841386974233
H           -0.03244280224318        0.66055360357117       -2.08938462290600
H           -0.74042896485903        1.35665366962038        2.64169484634327
H            0.16103377899680        2.06820544804232       -0.12117264571773
H            2.68839774208590        0.17205028317537        1.40246718417910
H            2.21177627350329        1.78970344299875        0.88081779713459
H            2.29792943779001        1.16696734066099       -1.45249711253716
H            2.36860037952725       -0.55865311733877       -1.05962451967652
H            4.30002873668870        2.58423423799599       -1.17406642359943
H            6.72762645162326        2.70066217119742       -0.99366103705204
H            8.76893556639425        2.53514526407002        0.19156236929089
H            8.97302535258782        2.14705159989731       -1.54128374732995
H           10.09916351894454        1.47512686786615       -0.33657528789298
H            7.33375034089263       -3.58107776497132        0.46349012023747
H            5.81971732763391       -2.89954550073760        1.10556237326201
H            5.97370972181630       -3.25893358041560       -0.63951404547987
H            4.38625965024683       -1.56400879412457       -0.19959464562616
H            0.83688816883937       -1.65746558179366        0.16281018549857
H           -0.56279173130888       -1.25630873581214        1.16730324604979
H            1.03997412127135       -1.40386238589806        1.90286306075782
H           -4.20587877772679        2.61012720913780       -0.85636057103459
H           -4.02698239959592        2.70700174527195        2.18293923742846
H           -5.07743775698657        1.57214889167759        1.31855070359450
H           -5.28904711691871        3.30873220179328        1.13439551333093
H           -2.15770667008806        3.83824344939600        1.04711118426593
H           -2.05732628077423        3.89647302715846       -0.71251466368165
H           -3.38666626044371        4.68581851443890        0.11743260182154
H           -2.48367459054486        1.47890333923769        2.58208729643462

          :  Hamiltonian                  GFN2-xTB          :
         :: total energy             -99.450959649936 Eh    ::
         :: gradient norm              0.009815404189 Eh/a0 ::
         :: HOMO-LUMO gap              1.495912482931 eV    ::
         :: SCC energy              -100.809627959509 Eh    ::
         :: -> dispersion             -0.076563334043 Eh    ::
         :: repulsion energy           1.357738902296 Eh    ::

    * Orbital Energies and Occupations

         #    Occupation            Energy/Eh            Energy/eV
      -------------------------------------------------------------
         1        2.0000           -0.8054320             -21.9169
       ...           ...                  ...                  ...
        78        1.9990           -0.5330400             -14.5048
        79        1.9989           -0.5304599             -14.4345
        80        1.9987           -0.5279171             -14.3654
        81        1.9985           -0.5263798             -14.3235
        82        1.9984           -0.5251433             -14.2899
        83        1.9978           -0.5202026             -14.1554
        84        1.9975           -0.5176272             -14.0854
        85        1.9963           -0.5117195             -13.9246
        86        1.9839           -0.4882467             -13.2859
        87        1.9751           -0.4813146             -13.0972
        88        1.9306           -0.4647254             -12.6458
        89        1.8912           -0.4572726             -12.4430
        90        1.7970           -0.4465892             -12.1523 (HOMO)
        91        0.4314           -0.3916154             -10.6564 (LUMO)
        92        0.0042           -0.3144355              -8.5562
        93        0.0035           -0.3116514              -8.4805
        94        0.0022           -0.3038821              -8.2691
        95        0.0018           -0.3012551              -8.1976
        96        0.0000           -0.1886386              -5.1331
        97        0.0000           -0.1787466              -4.8639
        98                         -0.1196955              -3.2571
        99                         -0.1020456              -2.7768
       100                         -0.0765548              -2.0832
       101                         -0.0683659              -1.8603
       ...                                ...                  ...
       171                          0.5844219              15.9029
      -------------------------------------------------------------
                  HL-Gap            0.0549738 Eh            1.4959 eV

     #   Z          covCN         q      C6AA      α(0)
     1   7 N        2.634    -0.185    25.012     7.428
     2   6 C        2.927     0.078    26.253     8.403
     3   6 C        3.916     0.003    20.468     6.430
     4   6 C        2.970    -0.000    28.030     8.684
     5   6 C        2.922    -0.079    29.966     8.977
     6   6 C        2.863     0.132    25.108     8.213
     7   8 O        1.706    -0.228    17.778     5.693
     8   6 C        3.645     0.027    20.454     6.500
     9   6 C        2.865     0.132    25.117     8.215
    10   8 O        1.706    -0.226    17.756     5.689
    11   6 C        3.646     0.027    20.460     6.501
    12   6 C        2.915    -0.072    29.804     8.952
    13   6 C        2.921    -0.057    29.428     8.896
    14   6 C        3.844    -0.072    21.840     6.648
    15   6 C        3.834    -0.072    21.844     6.650
    16   6 C        3.818     0.029    20.074     6.376
    17   7 N        2.727    -0.153    24.305     7.322
    18   6 C        3.752    -0.003    20.691     6.487
    19   6 C        3.806    -0.070    21.832     6.652
    20   6 C        2.969     0.004    27.925     8.668
    21   6 C        2.922    -0.047    29.163     8.856
    22   6 C        2.914    -0.067    29.666     8.931
    23   6 C        2.865     0.133    25.095     8.211
    24   8 O        1.706    -0.223    17.694     5.679
    25   6 C        3.645     0.026    20.476     6.503
    26   6 C        2.863     0.133    25.094     8.211
    27   8 O        1.706    -0.226    17.742     5.687
    28   6 C        3.645     0.028    20.439     6.498
    29   6 C        2.920    -0.078    29.955     8.975
    30   6 C        3.700    -0.044    21.536     6.637
    31   6 C        3.850    -0.016    20.832     6.492
    32   6 C        3.755    -0.115    22.760     6.803
    33   6 C        3.755    -0.115    22.758     6.802
    34   1 H        0.926     0.053     2.286     2.365
    35   1 H        0.924     0.051     2.309     2.376
    36   1 H        0.925     0.082     1.963     2.191
    37   1 H        0.924     0.050     2.319     2.382
    38   1 H        0.924     0.052     2.290     2.366
    39   1 H        0.925     0.081     1.965     2.192
    40   1 H        0.924     0.052     2.301     2.372
    41   1 H        0.926     0.053     2.288     2.365
    42   1 H        0.926     0.032     2.561     2.502
    43   1 H        0.925     0.058     2.226     2.333
    44   1 H        0.925     0.052     2.292     2.368
    45   1 H        0.925     0.052     2.299     2.371
    46   1 H        0.925     0.052     2.292     2.367
    47   1 H        0.861     0.216     1.030     1.590
    48   1 H        0.923     0.074     2.047     2.237
    49   1 H        0.924     0.053     2.287     2.365
    50   1 H        0.924     0.043     2.409     2.427
    51   1 H        0.924     0.043     2.415     2.430
    52   1 H        0.924     0.047     2.360     2.403
    53   1 H        0.926     0.046     2.370     2.408
    54   1 H        0.926     0.057     2.235     2.338
    55   1 H        0.924     0.054     2.271     2.357
    56   1 H        0.924     0.056     2.252     2.347
    57   1 H        0.925     0.081     1.967     2.193
    58   1 H        0.925     0.080     1.976     2.198
    59   1 H        0.924     0.049     2.330     2.387
    60   1 H        0.924     0.052     2.294     2.369
    61   1 H        0.926     0.048     2.342     2.393
    62   1 H        0.924     0.037     2.493     2.469
    63   1 H        0.925     0.049     2.331     2.388
    64   1 H        0.924     0.053     2.284     2.364
    65   1 H        0.924     0.052     2.293     2.368
    66   1 H        0.925     0.036     2.509     2.477
    67   1 H        0.925     0.045     2.388     2.417
    68   1 H        0.925     0.057     2.237     2.339
    69   1 H        0.925     0.036     2.503     2.474
    70   1 H        0.925     0.040     2.444     2.445
    71   1 H        0.925     0.057     2.233     2.337
    72   1 H        0.860     0.220     1.012     1.575

Wiberg/Mayer (AO) data.
largest (>0.10) Wiberg bond orders for each atom

     #   Z sym  total        # sym  WBO       # sym  WBO       # sym  WBO
 ---------------------------------------------------------------------------
     1   7 N    3.347 --     2 C    1.395    47 H    0.929    72 H    0.920
     2   6 C    3.533 --     1 N    1.395     3 C    1.028    16 C    1.008
     3   6 C    3.982 --     2 C    1.028    14 C    0.965     4 C    0.949
                            31 C    0.927
     4   6 C    3.930 --    13 C    1.427     5 C    1.364     3 C    0.949
     5   6 C    3.962 --     6 C    1.404     4 C    1.364    34 H    0.958
     6   6 C    3.910 --     5 C    1.404     9 C    1.220     7 O    1.102
     7   8 O    2.260 --     6 C    1.102     8 C    0.978
     8   6 C    3.932 --     7 O    0.978    36 H    0.977    35 H    0.974
                            37 H    0.973
     9   6 C    3.908 --    12 C    1.396     6 C    1.220    10 O    1.105
    10   8 O    2.260 --     9 C    1.105    11 C    0.977
    11   6 C    3.931 --    39 H    0.977    10 O    0.977    40 H    0.974
                            38 H    0.974
    12   6 C    3.964 --    13 C    1.399     9 C    1.396    41 H    0.964
    13   6 C    3.960 --     4 C    1.427    12 C    1.399    42 H    0.961
    14   6 C    3.988 --    15 C    1.008    43 H    0.973    44 H    0.970
                             3 C    0.965
    15   6 C    3.979 --    14 C    1.008    46 H    0.976    45 H    0.975
                            16 C    0.962
    16   6 C    3.979 --     2 C    1.008    17 N    1.000    15 C    0.962
                            48 H    0.923
    17   7 N    3.139 --    30 C    1.011    18 C    1.008    16 C    1.000
    18   6 C    3.968 --    17 N    1.008    50 H    0.970    49 H    0.969
                            19 C    0.963
    19   6 C    3.982 --    20 C    1.015    51 H    0.972    52 H    0.968
                            18 C    0.963
    20   6 C    3.937 --    21 C    1.401    29 C    1.378    19 C    1.015
    21   6 C    3.940 --    22 C    1.419    20 C    1.401    53 H    0.968
    22   6 C    3.956 --    21 C    1.419    23 C    1.381    54 H    0.963
    23   6 C    3.884 --    22 C    1.381    26 C    1.217    24 O    1.108
    24   8 O    2.247 --    23 C    1.108    25 C    0.977
    25   6 C    3.929 --    57 H    0.977    24 O    0.977    55 H    0.973
                            56 H    0.972
    26   6 C    3.891 --    29 C    1.396    23 C    1.217    27 O    1.102
    27   8 O    2.248 --    26 C    1.102    28 C    0.979
    28   6 C    3.932 --    27 O    0.979    58 H    0.977    59 H    0.973
                            60 H    0.973
    29   6 C    3.956 --    26 C    1.396    20 C    1.378    61 H    0.962
    30   6 C    3.974 --    17 N    1.011    64 H    0.978    63 H    0.975
                            62 H    0.968
    31   6 C    3.967 --    33 C    1.011    32 C    1.010    65 H    0.962
                             3 C    0.927
    32   6 C    3.992 --    31 C    1.010    68 H    0.981    67 H    0.981
                            66 H    0.977
    33   6 C    3.992 --    31 C    1.011    69 H    0.985    71 H    0.982
                            70 H    0.980
    34   1 H    0.996 --     5 C    0.958
    35   1 H    0.994 --     8 C    0.974
    36   1 H    0.993 --     8 C    0.977
    37   1 H    0.994 --     8 C    0.973
    38   1 H    0.993 --    11 C    0.974
    39   1 H    0.993 --    11 C    0.977
    40   1 H    0.994 --    11 C    0.974
    41   1 H    0.996 --    12 C    0.964
    42   1 H    0.999 --    13 C    0.961
    43   1 H    0.995 --    14 C    0.973
    44   1 H    0.996 --    14 C    0.970
    45   1 H    0.997 --    15 C    0.975
    46   1 H    0.996 --    15 C    0.976
    47   1 H    0.953 --     1 N    0.929
    48   1 H    0.971 --    16 C    0.923
    49   1 H    0.996 --    18 C    0.969
    50   1 H    0.996 --    18 C    0.970
    51   1 H    0.997 --    19 C    0.972
    52   1 H    0.996 --    19 C    0.968
    53   1 H    0.997 --    21 C    0.968
    54   1 H    0.995 --    22 C    0.963
    55   1 H    0.991 --    25 C    0.973
    56   1 H    0.991 --    25 C    0.972
    57   1 H    0.993 --    25 C    0.977
    58   1 H    0.993 --    28 C    0.977
    59   1 H    0.993 --    28 C    0.973
    60   1 H    0.992 --    28 C    0.973
    61   1 H    0.996 --    29 C    0.962
    62   1 H    0.990 --    30 C    0.968
    63   1 H    0.997 --    30 C    0.975
    64   1 H    0.994 --    30 C    0.978
    65   1 H    0.995 --    31 C    0.962
    66   1 H    0.998 --    32 C    0.977
    67   1 H    0.998 --    32 C    0.981
    68   1 H    0.995 --    32 C    0.981
    69   1 H    0.998 --    33 C    0.985
    70   1 H    0.998 --    33 C    0.980
    71   1 H    0.996 --    33 C    0.982
    72   1 H    0.951 --     1 N    0.920
 ---------------------------------------------------------------------------

molecular dipole:
                 x           y           z       tot (Debye)
 q only:       -0.602       0.954       0.973
   full:       -0.523       1.009       0.937       3.743

           -------------------------------------------------
          | TOTAL ENERGY              -99.450959649936 Eh   |
          | GRADIENT NORM               0.009815404189 Eh/α |
          | HOMO-LUMO GAP               1.495912482931 eV   |
           -------------------------------------------------

 * finished run on 2024/04/06 at 11:15:29.222
