   * xtb version 6.6.1 (8d0f1dd) compiled by 'conda@1efc2f54142f' on 2023-08-01
          program call               : xtb struc.xyz --opt loose --input .xc1 --gfn2

   ID    Z sym.   atoms
    1    6 C      1, 3, 5-7, 10, 11, 14
    2    7 N      2, 4, 9, 13
    3    8 O      8, 12
    4    1 H      15-25
constraining bond 3 22 to    5.7133300 Å, actual value:    4.3173805 Å

          :  Hamiltonian                  GFN2-xTB          :
 * total energy  :   -45.7272805 Eh     change       -0.6650680E-10 Eh
 * total energy  :   -50.1697899 Eh     change       -0.4442509E+01 Eh
 * total energy  :   -55.8997106 Eh     change       -0.5729921E+01 Eh
 * total energy  :   -63.1910457 Eh     change       -0.7291335E+01 Eh
 * total energy  :   -72.4073549 Eh     change       -0.9216309E+01 Eh
 * total energy  :   -83.5624518 Eh     change       -0.1115510E+02 Eh
 * total energy  :   -83.0338720 Eh     change        0.5285798E+00 Eh
 * total energy  :   -88.7004958 Eh     change       -0.5666624E+01 Eh
 * total energy  :   -88.2650930 Eh     change        0.4354028E+00 Eh
 * total energy  :   -90.1645289 Eh     change       -0.1899436E+01 Eh
 * total energy  :   -90.5920571 Eh     change       -0.2154551E-03 Eh
 * total energy  :   -90.5921424 Eh     change       -0.8531554E-04 Eh
 * total energy  :   -90.5923280 Eh     change       -0.1856606E-03 Eh
 * total energy  :   -90.5924213 Eh     change       -0.9324802E-04 Eh
 * total energy  :   -90.5924859 Eh     change       -0.6459964E-04 Eh
 * total energy  :   -90.5925518 Eh     change       -0.6590178E-04 Eh
 * total energy  :   -90.5925812 Eh     change       -0.2941460E-04 Eh
 * total energy  :   -90.5925795 Eh     change        0.1695398E-05 Eh
 * total energy  :   -90.5926090 Eh     change       -0.2953138E-04 Eh
   *** GEOMETRY OPTIMIZATION CONVERGED AFTER 61 ITERATIONS ***

 final structure:
================
25
 xtb: 6.6.1 (8d0f1dd)
C            3.18350614452976        1.26078545509290       -0.04648099279132
N            2.31971284939859        0.12005670454310       -0.00250378822344
C            0.94580910393000       -2.32245237721777        1.09659061577406
N            1.24489370049664       -2.35804445226773       -0.27528958417281
C            0.38680775565033       -1.27498577211293        0.13920747341537
C            0.99202919824403        0.07186883072856        0.05641838652575
C            0.15512295621135        1.25804332947006        0.08230127553198
O            0.58276924036376        2.39380573341596        0.15743220769330
N           -1.21997337144330        1.02443473351794       -0.00027661327226
C           -2.10290106214208        2.18485539476761        0.01984108807216
C           -1.85056344725846       -0.16844298339354       -0.17498066457237
O           -3.03120157576334       -0.28789020379097       -0.34310948540907
N           -1.02276401475370       -1.35004520689282       -0.13333115651076
C           -1.64477532057293       -2.51333676698854       -0.27050956407746
H            3.86603187955550        1.23357450540898        0.80693522165860
H            3.78677344191200        1.22511558771144       -0.95635182999924
H            2.60920876652599        2.18370509401013       -0.01990402018493
H            2.78705274609337       -0.78244322484041       -0.05337454698290
H           -1.48801567031461        3.08120864105110        0.01660443725302
H           -2.75522198543377        2.16416685969303       -0.85227871549508
H           -2.72245011124297        2.15853196224608        0.91613904252661
H            0.97166811862165       -2.45933800093200        1.42003726818500
H           -1.12278100286549       -3.44708657828182       -0.18440847070786
H           -2.70707055896743       -2.48527460265877       -0.43919131508657
H            0.99676373332600       -3.09257412067650       -0.92834465125285

          :  Hamiltonian                  GFN2-xTB          :
         :: total energy             -90.592609049500 Eh    ::
         :: gradient norm              0.003518491267 Eh/a0 ::
         :: HOMO-LUMO gap              0.211666417948 eV    ::
         :: SCC energy               -42.598966433851 Eh    ::
         :: -> dispersion             -0.022488696567 Eh    ::
         :: repulsion energy           3.326003375224 Eh    ::

    * Orbital Energies and Occupations

         #    Occupation            Energy/Eh            Energy/eV
      -------------------------------------------------------------
         1        2.0000           -0.9047837             -24.6204
       ...           ...                  ...                  ...
        25        2.0000           -0.6771293             -18.4256
        26        1.9999           -0.6686189             -18.1940
        27        1.9998           -0.6526209             -17.7587
        28        1.9998           -0.6460516             -17.5800
        29        1.9996           -0.6372651             -17.3409
        30        1.9995           -0.6328300             -17.2202
        31        1.9990           -0.6232813             -16.9603
        32        1.9972           -0.6064147             -16.5014
        33        1.9961           -0.6009427             -16.3525
        34        1.9939           -0.5941004             -16.1663
        35        1.9764           -0.5724628             -15.5775
        36        1.9654           -0.5663194             -15.4103
        37        0.9504           -0.5007771             -13.6268 (HOMO)
        38        0.7131           -0.4929985             -13.4152 (LUMO)
        39        0.4087           -0.4808261             -13.0839
        40        0.0011           -0.3839795             -10.4486
        41        0.0001           -0.3365996              -9.1593
        42        0.0000           -0.2466279              -6.7111
        43                         -0.2185455              -5.9469
        44                         -0.1843279              -5.0158
        45                         -0.1643047              -4.4710
        46                         -0.1553982              -4.2286
        47                         -0.0722193              -1.9652
        48                         -0.0570980              -1.5537
       ...                                ...                  ...
        67                         18.9054753             514.4442
      -------------------------------------------------------------
                  HL-Gap            0.0077786 Eh            0.2117 eV

     #   Z          covCN         q      C6AA      α(0)
     1   6 C        3.686    -0.088    22.398     6.775
     2   7 N        2.688    -0.033    21.892     6.949
     3   6 C        2.816    -0.064    29.578     8.911
     4   7 N        2.683    -0.185    24.999     7.426
     5   6 C        3.796     0.128    18.512     6.127
     6   6 C        2.883     0.017    27.631     8.618
     7   6 C        2.764     0.259    22.640     7.792
     8   8 O        0.859    -0.355    20.801     6.115
     9   7 N        2.738    -0.072    22.642     7.067
    10   6 C        3.713    -0.065    21.890     6.685
    11   6 C        2.734     0.313    21.674     7.622
    12   8 O        0.859    -0.341    20.528     6.075
    13   7 N        2.733    -0.023    21.693     6.917
    14   6 C        2.805    -0.022    28.532     8.751
    15   1 H        0.924     0.113     1.675     2.024
    16   1 H        0.924     0.110     1.699     2.038
    17   1 H        0.925     0.138     1.474     1.898
    18   1 H        0.860     0.220     1.011     1.575
    19   1 H        0.925     0.120     1.610     1.984
    20   1 H        0.925     0.105     1.737     2.061
    21   1 H        0.925     0.102     1.770     2.080
    22   1 H        0.934     0.161     1.319     1.796
    23   1 H        0.926     0.107     1.720     2.051
    24   1 H        0.926     0.148     1.405     1.854
    25   1 H        0.860     0.207     1.071     1.621

Wiberg/Mayer (AO) data.
largest (>0.10) Wiberg bond orders for each atom

     #   Z sym  total        # sym  WBO       # sym  WBO       # sym  WBO
 ---------------------------------------------------------------------------
     1   6 C    3.903 --     2 N    1.015    17 H    0.952    16 H    0.943
                            15 H    0.940
     2   7 N    3.410 --     6 C    1.396     1 C    1.015    18 H    0.910
     3   6 C    3.081 --     4 N    1.149    22 H    0.969     5 C    0.871
     4   7 N    3.076 --     3 C    1.149     5 C    0.925    25 H    0.906
     5   6 C    3.902 --     6 C    1.031    13 N    0.977     4 N    0.925
                             3 C    0.871
     6   6 C    3.698 --     2 N    1.396     7 C    1.085     5 C    1.031
     7   6 C    3.893 --     8 O    1.645     6 C    1.085     9 N    1.077
     8   8 O    1.928 --     7 C    1.645     9 N    0.126
     9   7 N    3.537 --    11 C    1.168     7 C    1.077    10 C    0.964
                            12 O    0.143     8 O    0.126
    10   6 C    3.901 --    19 H    0.965     9 N    0.964    20 H    0.962
                            21 H    0.959
    11   6 C    3.917 --    12 O    1.712     9 N    1.168    13 N    0.954
    12   8 O    2.030 --    11 C    1.712     9 N    0.143
    13   7 N    3.540 --    14 C    1.425     5 C    0.977    11 C    0.954
    14   6 C    3.445 --    13 N    1.425    23 H    0.964    24 H    0.951
    15   1 H    0.967 --     1 C    0.940
    16   1 H    0.969 --     1 C    0.943
    17   1 H    0.978 --     1 C    0.952
    18   1 H    0.950 --     2 N    0.910
    19   1 H    0.983 --    10 C    0.965
    20   1 H    0.981 --    10 C    0.962
    21   1 H    0.980 --    10 C    0.959
    22   1 H    0.974 --     3 C    0.969
    23   1 H    0.988 --    14 C    0.964
    24   1 H    0.977 --    14 C    0.951
    25   1 H    0.927 --     4 N    0.906
 ---------------------------------------------------------------------------

molecular dipole:
                 x           y           z       tot (Debye)
 q only:        1.715      -1.618      -0.062
   full:        1.682      -2.259      -0.178       7.172

           -------------------------------------------------
          | TOTAL ENERGY              -90.592609049500 Eh   |
          | GRADIENT NORM               0.003518491267 Eh/α |
          | HOMO-LUMO GAP               0.211666417948 eV   |
           -------------------------------------------------

 * finished run on 2024/06/05 at 19:58:06.334
