   * xtb version 6.6.1 (8d0f1dd) compiled by 'conda@1efc2f54142f' on 2023-08-01
          program call               : xtb xtbopt.xyz --opt crude --input .xc2 --gfn2

   ID    Z sym.   atoms
    1    6 C      1, 3, 5-7, 10, 11, 14
    2    7 N      2, 4, 9, 13
    3    8 O      8, 12
    4    1 H      15-25
########################################################################
[WARNING] Please study the warnings concerning your input carefully
-1- readin_getIntValue: could not parse ''
########################################################################

          :  Hamiltonian                  GFN2-xTB          :
 * total energy  :   -39.2727919 Eh     change       -0.5684342E-13 Eh
 * total energy  :   -41.9677806 Eh     change       -0.2694989E+01 Eh
 * total energy  :   -42.0537945 Eh     change       -0.8601390E-01 Eh
 * total energy  :   -42.0572345 Eh     change       -0.3440066E-02 Eh
 * total energy  :   -42.0604573 Eh     change       -0.3222751E-02 Eh
 * total energy  :   -42.0587974 Eh     change        0.1659911E-02 Eh
 * total energy  :   -42.0621489 Eh     change       -0.3351541E-02 Eh
 * total energy  :   -42.0624291 Eh     change       -0.2801412E-03 Eh
 * total energy  :   -42.0626292 Eh     change       -0.2001750E-03 Eh
 * total energy  :   -42.0626648 Eh     change       -0.3556187E-04 Eh
 * total energy  :   -42.0628879 Eh     change       -0.2231228E-03 Eh
 * total energy  :   -42.0630499 Eh     change       -0.1619527E-03 Eh
 * total energy  :   -42.0632713 Eh     change       -0.2214603E-03 Eh
 * total energy  :   -42.0635285 Eh     change       -0.2571949E-03 Eh
   *** GEOMETRY OPTIMIZATION CONVERGED AFTER 14 ITERATIONS ***

 final structure:
================
25
 xtb: 6.6.1 (8d0f1dd)
C            3.18890549549444        1.29290067571797        0.03028507528160
N            2.32598890487117        0.15374959672209       -0.03299401710230
C            1.10490299246143       -2.25801846882063        0.91762761260447
N            1.23473950117583       -2.35147472425951       -0.42759095114577
C            0.40328719997092       -1.24523984411160        0.07107429001746
C            0.99762702351054        0.10304600503197       -0.04365380850944
C            0.15733460478803        1.28543114907639       -0.08223655599403
O            0.57791370200585        2.42603277473377       -0.13902864018915
N           -1.21886211332021        1.04198247050693       -0.03803544174402
C           -2.10870461775474        2.19771690787333       -0.01866753124900
C           -1.85309894023194       -0.16010960001301       -0.06533549111263
O           -3.04452617621966       -0.29172840450118       -0.07775762185664
N           -1.01214610263865       -1.33807072252166       -0.08913065164413
C           -1.64444610687551       -2.49974023917582       -0.20406585545733
H            3.81471341275827        1.21363314335158        0.92104465997725
H            3.84951084733150        1.30433628667790       -0.83837691560863
H            2.61425259030368        2.21499534837052        0.06074314706058
H            2.79494927165174       -0.74798485479561       -0.02746235480408
H           -1.49983694246899        3.09452948081986        0.07241220858981
H           -2.69330320608853        2.23359622832895       -0.93931343505423
H           -2.79642367437311        2.11185109937998        0.82320187371924
H            0.82180491220734       -2.95156938734800        1.69131207819367
H           -1.11649336731150       -3.43246169309691       -0.20027447954841
H           -2.71734699952952       -2.46988400792616       -0.28081970217989
H            0.97968930238253       -3.10928067841745       -1.05178587434771

          :  Hamiltonian                  GFN2-xTB          :
         :: total energy             -42.063528538086 Eh    ::
         :: gradient norm              0.009653813164 Eh/a0 ::
         :: HOMO-LUMO gap              0.310289405293 eV    ::
         :: SCC energy               -42.565822787051 Eh    ::
         :: -> dispersion             -0.022406717445 Eh    ::
         :: repulsion energy           0.502129060666 Eh    ::

    * Orbital Energies and Occupations

         #    Occupation            Energy/Eh            Energy/eV
      -------------------------------------------------------------
         1        2.0000           -0.8972246             -24.4147
       ...           ...                  ...                  ...
        25        2.0000           -0.6756056             -18.3842
        26        1.9999           -0.6659525             -18.1215
        27        1.9998           -0.6497405             -17.6803
        28        1.9997           -0.6413965             -17.4533
        29        1.9996           -0.6345342             -17.2666
        30        1.9995           -0.6324493             -17.2098
        31        1.9989           -0.6196848             -16.8625
        32        1.9973           -0.6059022             -16.4874
        33        1.9960           -0.5998185             -16.3219
        34        1.9942           -0.5936872             -16.1551
        35        1.9771           -0.5718723             -15.5614
        36        1.9650           -0.5650554             -15.3759
        37        1.0450           -0.5026867             -13.6788 (HOMO)
        38        0.6950           -0.4912837             -13.3685 (LUMO)
        39        0.3318           -0.4756906             -12.9442
        40        0.0012           -0.3832397             -10.4285
        41        0.0001           -0.3342205              -9.0946
        42        0.0000           -0.2354831              -6.4078
        43                         -0.2146310              -5.8404
        44                         -0.1793055              -4.8792
        45                         -0.1632521              -4.4423
        46                         -0.1526992              -4.1552
        47                         -0.0851290              -2.3165
        48                         -0.0614475              -1.6721
       ...                                ...                  ...
        67                          0.5281558              14.3719
      -------------------------------------------------------------
                  HL-Gap            0.0114029 Eh            0.3103 eV

     #   Z          covCN         q      C6AA      α(0)
     1   6 C        3.686    -0.089    22.406     6.776
     2   7 N        2.689    -0.031    21.843     6.941
     3   6 C        2.816    -0.032    28.794     8.792
     4   7 N        2.678    -0.150    24.255     7.314
     5   6 C        3.797     0.130    18.482     6.122
     6   6 C        2.883     0.022    27.514     8.599
     7   6 C        2.763     0.259    22.637     7.792
     8   8 O        0.858    -0.355    20.799     6.115
     9   7 N        2.738    -0.072    22.636     7.066
    10   6 C        3.713    -0.065    21.875     6.683
    11   6 C        2.736     0.314    21.673     7.622
    12   8 O        0.859    -0.341    20.537     6.076
    13   7 N        2.733    -0.021    21.662     6.912
    14   6 C        2.806    -0.024    28.588     8.760
    15   1 H        0.924     0.110     1.694     2.035
    16   1 H        0.924     0.112     1.676     2.024
    17   1 H        0.925     0.138     1.478     1.901
    18   1 H        0.860     0.222     1.002     1.568
    19   1 H        0.925     0.120     1.613     1.986
    20   1 H        0.924     0.103     1.761     2.075
    21   1 H        0.924     0.103     1.755     2.072
    22   1 H        0.926     0.101     1.771     2.081
    23   1 H        0.926     0.102     1.768     2.079
    24   1 H        0.926     0.147     1.414     1.859
    25   1 H        0.860     0.198     1.118     1.656

Wiberg/Mayer (AO) data.
largest (>0.10) Wiberg bond orders for each atom

     #   Z sym  total        # sym  WBO       # sym  WBO       # sym  WBO
 ---------------------------------------------------------------------------
     1   6 C    3.904 --     2 N    1.016    17 H    0.953    16 H    0.942
                            15 H    0.942
     2   7 N    3.419 --     6 C    1.397     1 C    1.016    18 H    0.909
     3   6 C    3.125 --     4 N    1.212    22 H    0.939     5 C    0.864
     4   7 N    3.110 --     3 C    1.212    25 H    0.906     5 C    0.879
     5   6 C    3.884 --     6 C    1.038    13 N    0.992     4 N    0.879
                             3 C    0.864
     6   6 C    3.715 --     2 N    1.397     7 C    1.088     5 C    1.038
     7   6 C    3.894 --     8 O    1.645     6 C    1.088     9 N    1.075
     8   8 O    1.928 --     7 C    1.645     9 N    0.125
     9   7 N    3.541 --    11 C    1.173     7 C    1.075    10 C    0.964
                            12 O    0.145     8 O    0.125
    10   6 C    3.901 --    19 H    0.965     9 N    0.964    21 H    0.962
                            20 H    0.960
    11   6 C    3.917 --    12 O    1.712     9 N    1.173    13 N    0.947
    12   8 O    2.032 --    11 C    1.712     9 N    0.145
    13   7 N    3.549 --    14 C    1.417     5 C    0.992    11 C    0.947
    14   6 C    3.439 --    13 N    1.417    23 H    0.965    24 H    0.951
    15   1 H    0.969 --     1 C    0.942
    16   1 H    0.968 --     1 C    0.942
    17   1 H    0.979 --     1 C    0.953
    18   1 H    0.949 --     2 N    0.909
    19   1 H    0.983 --    10 C    0.965
    20   1 H    0.980 --    10 C    0.960
    21   1 H    0.981 --    10 C    0.962
    22   1 H    0.960 --     3 C    0.939
    23   1 H    0.989 --    14 C    0.965
    24   1 H    0.978 --    14 C    0.951
    25   1 H    0.928 --     4 N    0.906
 ---------------------------------------------------------------------------

molecular dipole:
                 x           y           z       tot (Debye)
 q only:        1.755      -1.601      -0.010
   full:        1.611      -2.390      -0.106       7.330

           -------------------------------------------------
          | TOTAL ENERGY              -42.063528538086 Eh   |
          | GRADIENT NORM               0.009653813164 Eh/α |
          | HOMO-LUMO GAP               0.310289405293 eV   |
           -------------------------------------------------

 * finished run on 2024/06/05 at 19:58:06.898
