   * xtb version 6.6.1 (8d0f1dd) compiled by 'conda@1efc2f54142f' on 2023-08-01
          program call               : xtb struc.xyz --opt loose --input .xc1 --gfn2

   ID    Z sym.   atoms
    1    6 C      1, 3, 5-7, 10, 11, 14
    2    7 N      2, 4, 9, 13
    3    8 O      8, 12
    4    1 H      15-25
constraining bond 8 21 to    4.6333300 Å, actual value:    3.5021541 Å

          :  Hamiltonian                  GFN2-xTB          :
 * total energy  :   -44.5325520 Eh     change       -0.6650680E-10 Eh
 * total energy  :   -48.4196474 Eh     change       -0.3887095E+01 Eh
 * total energy  :   -54.1443347 Eh     change       -0.5724687E+01 Eh
 * total energy  :   -61.8402918 Eh     change       -0.7695957E+01 Eh
 * total energy  :   -70.8855566 Eh     change       -0.9045265E+01 Eh
 * total energy  :   -54.0787146 Eh     change        0.1680684E+02 Eh
 * total energy  :   -67.0175296 Eh     change       -0.1293881E+02 Eh
 * total energy  :   -67.5720244 Eh     change       -0.5544948E+00 Eh
 * total energy  :   -69.3301369 Eh     change       -0.1758112E+01 Eh
 * total energy  :   -70.5625447 Eh     change       -0.1232408E+01 Eh
 * total energy  :   -72.2088005 Eh     change       -0.1731516E-04 Eh
 * total energy  :   -72.2088250 Eh     change       -0.2449584E-04 Eh
 * total energy  :   -72.2088387 Eh     change       -0.1368521E-04 Eh
 * total energy  :   -72.2088162 Eh     change        0.2252585E-04 Eh
 * total energy  :   -72.2088819 Eh     change       -0.6570528E-04 Eh
 * total energy  :   -72.2088991 Eh     change       -0.1720232E-04 Eh
 * total energy  :   -72.2085693 Eh     change        0.3297562E-03 Eh
 * total energy  :   -72.2089173 Eh     change       -0.3479511E-03 Eh
 * total energy  :   -72.2089253 Eh     change       -0.8063095E-05 Eh
   *** GEOMETRY OPTIMIZATION CONVERGED AFTER 91 ITERATIONS ***

 final structure:
================
25
 xtb: 6.6.1 (8d0f1dd)
C            3.27398723309418        1.04551583223289        0.06141068501619
N            2.32654716076439       -0.03226680166820        0.00576252472526
C            2.58661368416627       -1.33562186602802       -0.00745201211075
N            1.42625567043670       -2.03939073939196       -0.03991683530660
C            0.40040450002836       -1.14887690588491       -0.04591528516185
C            0.95990585288878        0.13288016078994       -0.01539545388475
C            0.16704478750103        1.29201431753650       -0.01109244144723
O           -1.51235544290259        3.23545709364679        0.72230795940016
N           -1.14315460037230        1.03212546480765       -0.03773651825989
C           -2.06528013754201        2.20165595142813        0.00401768251634
C           -1.77459832530948       -0.21616402570199       -0.08732440979937
O           -2.96665930887219       -0.34000025278385       -0.13514952018239
N           -0.92729822065357       -1.34205679431273       -0.08175047418260
C           -1.51768023849080       -2.66593989239005       -0.11737875742769
H            3.65475098413103        1.16653231729196        1.07706779646125
H            4.11072504219559        0.85230136128313       -0.60795550566412
H            2.76525395514406        1.96162196570998       -0.23257324096580
H            3.56294972555945       -1.77700836717164        0.00298780580197
H           -2.27280929313981        2.47956305160899       -1.04400472574115
H           -2.99836430204133        1.85304016304403        0.46318069634673
H           -1.21579444095842        3.48255078186891        0.59508963012538
H           -1.24023089118805       -3.23015115272695        0.77332916427400
H           -1.20146797614906       -3.19960565476142       -1.01401208927096
H           -2.59965217284639       -2.54231349547756       -0.13903271594317
H            1.36133826865588       -3.04762397135006       -0.05729234141755

          :  Hamiltonian                  GFN2-xTB          :
         :: total energy             -72.208925331429 Eh    ::
         :: gradient norm              0.002809287389 Eh/a0 ::
         :: HOMO-LUMO gap              1.764569057575 eV    ::
         :: SCC energy               -42.704574438930 Eh    ::
         :: -> dispersion             -0.022154771076 Eh    ::
         :: repulsion energy           2.397031608998 Eh    ::

    * Orbital Energies and Occupations

         #    Occupation            Energy/Eh            Energy/eV
      -------------------------------------------------------------
         1        2.0000           -0.9043280             -24.6080
       ...           ...                  ...                  ...
        25        2.0000           -0.6670494             -18.1513
        26        2.0000           -0.6602472             -17.9662
        27        2.0000           -0.6461747             -17.5833
        28        1.9999           -0.6329824             -17.2243
        29        1.9999           -0.6306039             -17.1596
        30        1.9998           -0.6236470             -16.9703
        31        1.9998           -0.6179793             -16.8161
        32        1.9995           -0.6066071             -16.5066
        33        1.9983           -0.5864145             -15.9572
        34        1.9933           -0.5646577             -15.3651
        35        1.9909           -0.5597393             -15.2313
        36        1.9812           -0.5481352             -14.9155
        37        1.7765           -0.5072257             -13.8023 (HOMO)
        38        0.2338           -0.4423790             -12.0377 (LUMO)
        39        0.0240           -0.4045290             -11.0078
        40        0.0031           -0.3721489             -10.1267
        41        0.0000           -0.2840146              -7.7284
        42                         -0.2027090              -5.5160
        43                         -0.1910671              -5.1992
        44                         -0.1371326              -3.7316
        45                         -0.1243584              -3.3840
        46                         -0.0724222              -1.9707
        47                         -0.0445326              -1.2118
        48                         -0.0336471              -0.9156
       ...                                ...                  ...
        67                          5.2361191             142.4821
      -------------------------------------------------------------
                  HL-Gap            0.0648467 Eh            1.7646 eV

     #   Z          covCN         q      C6AA      α(0)
     1   6 C        3.692    -0.089    22.399     6.772
     2   7 N        2.828     0.069    20.043     6.649
     3   6 C        3.052     0.050    26.834     8.496
     4   7 N        2.784    -0.063    22.450     7.037
     5   6 C        3.048     0.113    25.458     8.275
     6   6 C        3.123     0.021    27.348     8.564
     7   6 C        1.921    -0.112    34.213     9.446
     8   8 O        1.662    -0.421    21.256     6.224
     9   7 N        2.758    -0.031    21.836     6.940
    10   6 C        3.675     0.124    18.769     6.207
    11   6 C        2.723     0.310    21.728     7.631
    12   8 O        0.859    -0.369    21.064     6.153
    13   7 N        2.738    -0.044    22.096     6.981
    14   6 C        3.697    -0.071    22.034     6.714
    15   1 H        0.924     0.108     1.712     2.046
    16   1 H        0.925     0.102     1.763     2.076
    17   1 H        0.925     0.122     1.599     1.977
    18   1 H        0.926     0.117     1.635     2.000
    19   1 H        0.923     0.075     2.035     2.231
    20   1 H        0.924     0.109     1.708     2.044
    21   1 H        0.857     0.366     0.548     1.159
    22   1 H        0.924     0.082     1.956     2.187
    23   1 H        0.924     0.082     1.961     2.190
    24   1 H        0.925     0.125     1.573     1.961
    25   1 H        0.860     0.224     0.993     1.561

Wiberg/Mayer (AO) data.
largest (>0.10) Wiberg bond orders for each atom

     #   Z sym  total        # sym  WBO       # sym  WBO       # sym  WBO
 ---------------------------------------------------------------------------
     1   6 C    3.925 --     2 N    0.990    17 H    0.968    16 H    0.967
                            15 H    0.955
     2   7 N    3.646 --     3 C    1.385     6 C    1.136     1 C    0.990
     3   6 C    3.805 --     2 N    1.385     4 N    1.255    18 H    0.955
     4   7 N    3.584 --     3 C    1.255     5 C    1.203    25 H    0.920
     5   6 C    3.906 --     6 C    1.284    13 N    1.226     4 N    1.203
     6   6 C    3.898 --     5 C    1.284     7 C    1.236     2 N    1.136
     7   6 C    2.781 --     9 N    1.357     6 C    1.236
     8   8 O    2.022 --    10 C    1.064    21 H    0.861
     9   7 N    3.600 --     7 C    1.357    11 C    1.075    10 C    0.916
                            12 O    0.116
    10   6 C    3.912 --     8 O    1.064    20 H    0.948    19 H    0.941
                             9 N    0.916
    11   6 C    3.937 --    12 O    1.707     9 N    1.075    13 N    1.055
    12   8 O    2.047 --    11 C    1.707    13 N    0.132     9 N    0.116
    13   7 N    3.563 --     5 C    1.226    11 C    1.055    14 C    0.974
                            12 O    0.132
    14   6 C    3.926 --    13 N    0.974    22 H    0.970    23 H    0.970
                            24 H    0.965
    15   1 H    0.983 --     1 C    0.955
    16   1 H    0.987 --     1 C    0.967
    17   1 H    0.985 --     1 C    0.968
    18   1 H    0.985 --     3 C    0.955
    19   1 H    0.985 --    10 C    0.941
    20   1 H    0.983 --    10 C    0.948
    21   1 H    0.866 --     8 O    0.861
    22   1 H    0.991 --    14 C    0.970
    23   1 H    0.991 --    14 C    0.970
    24   1 H    0.984 --    14 C    0.965
    25   1 H    0.949 --     4 N    0.920
 ---------------------------------------------------------------------------

molecular dipole:
                 x           y           z       tot (Debye)
 q only:        2.779      -1.405      -0.205
   full:        3.079      -2.128      -0.347       9.555

           -------------------------------------------------
          | TOTAL ENERGY              -72.208925331429 Eh   |
          | GRADIENT NORM               0.002809287389 Eh/α |
          | HOMO-LUMO GAP               1.764569057575 eV   |
           -------------------------------------------------

 * finished run on 2024/06/05 at 19:59:28.900
