   * xtb version 6.6.1 (8d0f1dd) compiled by 'conda@1efc2f54142f' on 2023-08-01
          program call               : xtb xtbopt.xyz --opt crude --input .xc2 --gfn2

   ID    Z sym.   atoms
    1    7 N      1, 17
    2    6 C      2-6, 8, 9, 11-16, 18-23, 25, 26, 28-33
    3    8 O      7, 10, 24, 27
    4    1 H      34-72

          :  Hamiltonian                  GFN2-xTB          :
 * total energy  :   -99.3553863 Eh     change       -0.5684342E-11 Eh
   *** GEOMETRY OPTIMIZATION CONVERGED AFTER 1 ITERATIONS ***

 final structure:
================
72
 xtb: 6.6.1 (8d0f1dd)
N           -1.63299877351756        3.56757568096890        1.87686666981686
C           -1.85229852870030        2.52051759194006        1.08243578606607
C           -3.35655462787863        2.12293933074521        0.70629462298423
C           -3.56106738364900        0.65152269587283        0.58225393884439
C           -4.15892524351908        0.15552510881663       -0.57779670879480
C           -4.40228923004183       -1.19992570886593       -0.73378330078366
O           -4.98107150022306       -1.77118705538750       -1.80888363587064
C           -5.48521525709575       -0.95205377017279       -2.83852734773354
C           -4.02666181684683       -2.10232271403480        0.30151990304372
O           -4.30048819882452       -3.39876600903243        0.06701822928213
C           -4.05580627972196       -4.34714172087045        1.08110296695661
C           -3.42075751491995       -1.59706672919269        1.44421715931004
C           -3.19350177252180       -0.23683318350008        1.58377815609205
C           -2.47115908629608        2.75795398259197       -0.29465476431773
C           -1.07326914861959        0.20031411692686       -3.29526555388603
C           -0.03993615227325        0.55307877386648       -2.51994572586388
N            0.34828505585614       -0.04506176523466       -1.35828314043135
C            1.66868307691534        0.21204358711513       -0.84687135114362
C            2.74304218257245       -0.65509073766423       -1.54148058976464
C            4.10834622198888       -0.36573330995370       -0.99316887549686
C            4.80431156055593        0.76811102895824       -1.39440428528124
C            6.06228605450824        1.04834160854565       -0.88849717403095
C            6.65902791645035        0.19780478332713        0.03446765538517
O            7.87324172136111        0.36211205100883        0.58412322828504
C            8.66082376569620        1.46907113613181        0.20890742424012
C            5.95369901850788       -0.96653317418238        0.45513351216796
O            6.60523724072708       -1.73887820433197        1.34273094297932
C            6.01391293347765       -2.93765995246649        1.78602015065993
C            4.69118766459685       -1.22046125329516       -0.06204865928763
C           -0.33702545583986       -1.22645055196857       -0.89960393190814
C           -4.50281964319276        2.86058074862907        1.38091077097463
C           -4.55955982815861        2.52694319699689        2.87251546163856
C           -4.45796976917140        4.37120826658650        1.18830314923557
H           -4.44388094124681        0.85249153521898       -1.34983828020138
H           -6.23788928255986       -0.25362141499694       -2.46112763732081
H           -5.94920731708644       -1.63171006839542       -3.55088291068697
H           -4.68649773430263       -0.39404195500903       -3.33729574307686
H           -4.60022935379851       -4.10171112328362        1.99768955820156
H           -4.41851097756022       -5.29537803643173        0.68875467892526
H           -2.98702285976006       -4.43114068339910        1.30149880365387
H           -3.12832624269214       -2.26083668355283        2.24139235154466
H           -2.72004714012226        0.12761828369210        2.48204182496082
H           -2.63048863068516        3.79365094654004       -0.54935646061098
H           -2.08201014929386        2.14369946100134       -1.09431532907248
H           -1.69919361481463       -0.64867280372049       -3.09149098030158
H           -1.30622258656941        0.77479764826641       -4.17168057968521
H           -1.21774573032492        1.63109951257220        1.15798196203928
H            0.56167557945811        1.41093419999344       -2.78963993574129
H            1.67976891118737        0.00900675212609        0.22737214839811
H            1.90938637948039        1.26744467319711       -0.99626534631965
H            2.71820919939246       -0.43941316890945       -2.61162436348340
H            2.49699635573247       -1.70789811396075       -1.39721878766260
H            4.36907072077937        1.43732206440977       -2.12065294488166
H            6.57912618670138        1.93230621740748       -1.22457919278124
H            8.17552404778617        2.41340101127268        0.47304060301785
H            8.88130838070889        1.45808650694005       -0.86251022329017
H            9.58834906493967        1.37065838373892        0.76965087933730
H            6.73721842624098       -3.38682428298765        2.46393955828058
H            5.08097529267227       -2.74869777635984        2.32613066305552
H            5.82403631834878       -3.62192254264826        0.95352026615853
H            4.15262595054731       -2.10259901775960        0.24698285294725
H           -0.20069672061903       -2.07010945011529       -1.58359040019127
H           -1.40572797861143       -1.02292466240795       -0.81404749958064
H            0.04121574879386       -1.50489285685989        0.08160448979492
H           -5.41957347568640        2.47220272366459        0.91475439840824
H           -3.65430666166509        2.88585031585605        3.35847715108223
H           -4.65564032779661        1.45574531068490        3.03392340935341
H           -5.41304836885051        3.01814139999331        3.33095398836206
H           -3.51549398996747        4.75932331442383        1.57204623754561
H           -4.56462410456299        4.64410757696094        0.14082807752393
H           -5.27417614981616        4.83029354298543        1.74016356330698
H           -1.00111982977931        3.41387493311777        2.64924930825161

          :  Hamiltonian                  GFN2-xTB          :
         :: total energy             -99.355386277110 Eh    ::
         :: gradient norm              0.004303146759 Eh/a0 ::
         :: HOMO-LUMO gap              0.765137636043 eV    ::
         :: SCC energy              -100.747527531594 Eh    ::
         :: -> dispersion             -0.070495124807 Eh    ::
         :: repulsion energy           1.390666735075 Eh    ::

    * Orbital Energies and Occupations

         #    Occupation            Energy/Eh            Energy/eV
      -------------------------------------------------------------
         1        2.0000           -0.8180228             -22.2595
       ...           ...                  ...                  ...
        78        1.9975           -0.5359488             -14.5839
        79        1.9969           -0.5328205             -14.4988
        80        1.9956           -0.5274398             -14.3524
        81        1.9947           -0.5243073             -14.2671
        82        1.9937           -0.5215533             -14.1922
        83        1.9924           -0.5185105             -14.1094
        84        1.9904           -0.5149435             -14.0123
        85        1.9733           -0.4985536             -13.5663
        86        1.9656           -0.4944801             -13.4555
        87        1.8666           -0.4721971             -12.8491
        88        1.8140           -0.4664817             -12.6936
        89        1.7983           -0.4650556             -12.6548
        90        1.6837           -0.4568931             -12.4327 (HOMO)
        91        0.9482           -0.4287749             -11.6676 (LUMO)
        92        0.0024           -0.3240744              -8.8185
        93        0.0020           -0.3211973              -8.7402
        94        0.0016           -0.3179830              -8.6528
        95        0.0015           -0.3163638              -8.6087
        96        0.0003           -0.2916501              -7.9362
        97        0.0000           -0.1986820              -5.4064
        98        0.0000           -0.1929051              -5.2492
        99        0.0000           -0.1734891              -4.7209
       100                         -0.1010100              -2.7486
       101                         -0.0715839              -1.9479
       ...                                ...                  ...
       171                          0.5674842              15.4420
      -------------------------------------------------------------
                  HL-Gap            0.0281183 Eh            0.7651 eV

     #   Z          covCN         q      C6AA      α(0)
     1   7 N        1.773    -0.312    28.910     7.962
     2   6 C        3.774     0.099    18.976     6.207
     3   6 C        3.909     0.028    20.052     6.365
     4   6 C        2.970    -0.000    28.033     8.685
     5   6 C        2.920    -0.077    29.914     8.969
     6   6 C        2.862     0.132    25.115     8.214
     7   8 O        1.706    -0.225    17.733     5.686
     8   6 C        3.644     0.025    20.487     6.506
     9   6 C        2.864     0.131    25.126     8.216
    10   8 O        1.706    -0.222    17.682     5.677
    11   6 C        3.645     0.024    20.500     6.507
    12   6 C        2.913    -0.071    29.758     8.945
    13   6 C        2.920    -0.046    29.131     8.851
    14   6 C        3.809    -0.068    21.804     6.647
    15   6 C        2.838    -0.120    31.048     9.131
    16   6 C        2.841     0.020    27.554     8.602
    17   7 N        2.732    -0.048    22.169     6.993
    18   6 C        3.752    -0.007    20.755     6.497
    19   6 C        3.807    -0.071    21.848     6.654
    20   6 C        2.967     0.009    27.821     8.652
    21   6 C        2.922    -0.044    29.083     8.844
    22   6 C        2.912    -0.065    29.607     8.922
    23   6 C        2.864     0.136    25.022     8.199
    24   8 O        1.706    -0.213    17.535     5.654
    25   6 C        3.645     0.023    20.531     6.512
    26   6 C        2.862     0.136    25.026     8.200
    27   8 O        1.706    -0.216    17.592     5.663
    28   6 C        3.645     0.025    20.496     6.507
    29   6 C        2.919    -0.076    29.897     8.966
    30   6 C        3.699    -0.054    21.714     6.664
    31   6 C        3.852    -0.003    20.601     6.456
    32   6 C        3.756    -0.113    22.712     6.795
    33   6 C        3.755    -0.123    22.919     6.826
    34   1 H        0.926     0.057     2.234     2.337
    35   1 H        0.924     0.057     2.239     2.340
    36   1 H        0.925     0.084     1.940     2.178
    37   1 H        0.924     0.053     2.288     2.365
    38   1 H        0.924     0.058     2.217     2.328
    39   1 H        0.925     0.084     1.938     2.177
    40   1 H        0.924     0.052     2.291     2.367
    41   1 H        0.926     0.058     2.227     2.333
    42   1 H        0.926     0.053     2.277     2.360
    43   1 H        0.926     0.086     1.918     2.166
    44   1 H        0.926     0.053     2.281     2.362
    45   1 H        0.926     0.047     2.358     2.401
    46   1 H        0.926     0.055     2.263     2.353
    47   1 H        0.924     0.014     2.819     2.625
    48   1 H        0.925     0.052     2.291     2.367
    49   1 H        0.924     0.053     2.287     2.365
    50   1 H        0.924     0.061     2.183     2.311
    51   1 H        0.924     0.058     2.217     2.329
    52   1 H        0.924     0.053     2.280     2.361
    53   1 H        0.926     0.053     2.281     2.362
    54   1 H        0.926     0.063     2.168     2.302
    55   1 H        0.924     0.059     2.211     2.325
    56   1 H        0.924     0.060     2.196     2.317
    57   1 H        0.925     0.086     1.921     2.167
    58   1 H        0.925     0.085     1.930     2.173
    59   1 H        0.924     0.053     2.277     2.360
    60   1 H        0.924     0.057     2.235     2.338
    61   1 H        0.926     0.053     2.278     2.360
    62   1 H        0.924     0.062     2.175     2.306
    63   1 H        0.924     0.061     2.186     2.312
    64   1 H        0.925     0.059     2.213     2.326
    65   1 H        0.923     0.055     2.262     2.352
    66   1 H        0.925     0.056     2.244     2.342
    67   1 H        0.925     0.041     2.429     2.437
    68   1 H        0.925     0.056     2.245     2.343
    69   1 H        0.925     0.083     1.947     2.182
    70   1 H        0.925     0.045     2.377     2.411
    71   1 H        0.925     0.057     2.230     2.335
    72   1 H        0.860     0.150     1.398     1.852

Wiberg/Mayer (AO) data.
largest (>0.10) Wiberg bond orders for each atom

     #   Z sym  total        # sym  WBO       # sym  WBO       # sym  WBO
 ---------------------------------------------------------------------------
     1   7 N    2.395 --     2 C    1.355    72 H    0.947
     2   6 C    3.857 --     1 N    1.355    47 H    0.940    14 C    0.845
                             3 C    0.688
     3   6 C    3.750 --     4 C    1.003    14 C    0.999    31 C    0.978
                             2 C    0.688
     4   6 C    3.934 --    13 C    1.396     5 C    1.366     3 C    1.003
     5   6 C    3.946 --     6 C    1.394     4 C    1.366    34 H    0.962
     6   6 C    3.893 --     5 C    1.394     9 C    1.215     7 O    1.105
     7   8 O    2.249 --     6 C    1.105     8 C    0.976
     8   6 C    3.927 --    36 H    0.976     7 O    0.976    35 H    0.973
                            37 H    0.972
     9   6 C    3.886 --    12 C    1.380     6 C    1.215    10 O    1.110
    10   8 O    2.251 --     9 C    1.110    11 C    0.975
    11   6 C    3.927 --    39 H    0.976    10 O    0.975    38 H    0.973
                            40 H    0.972
    12   6 C    3.956 --    13 C    1.417     9 C    1.380    41 H    0.963
    13   6 C    3.937 --    12 C    1.417     4 C    1.396    42 H    0.965
    14   6 C    3.856 --     3 C    0.999    44 H    0.968    43 H    0.965
                             2 C    0.845
    15   6 C    3.798 --    16 C    1.733    46 H    0.977    45 H    0.974
    16   6 C    3.940 --    15 C    1.733    17 N    1.199    48 H    0.957
    17   7 N    3.346 --    16 C    1.199    30 C    1.008    18 C    1.005
    18   6 C    3.961 --    17 N    1.005    49 H    0.969    50 H    0.967
                            19 C    0.959
    19   6 C    3.970 --    20 C    1.016    52 H    0.973    51 H    0.967
                            18 C    0.959
    20   6 C    3.923 --    29 C    1.387    21 C    1.385    19 C    1.016
    21   6 C    3.926 --    22 C    1.430    20 C    1.385    53 H    0.967
    22   6 C    3.948 --    21 C    1.430    23 C    1.369    54 H    0.962
    23   6 C    3.870 --    22 C    1.369    26 C    1.208    24 O    1.121
    24   8 O    2.249 --    23 C    1.121    25 C    0.974
    25   6 C    3.923 --    57 H    0.976    24 O    0.974    56 H    0.971
                            55 H    0.971
    26   6 C    3.877 --    29 C    1.384    23 C    1.208    27 O    1.114
    27   8 O    2.250 --    26 C    1.114    28 C    0.976
    28   6 C    3.927 --    27 O    0.976    58 H    0.976    59 H    0.972
                            60 H    0.972
    29   6 C    3.948 --    20 C    1.387    26 C    1.384    61 H    0.961
    30   6 C    3.967 --    17 N    1.008    64 H    0.980    63 H    0.970
                            62 H    0.966
    31   6 C    3.968 --    33 C    1.008    32 C    0.995     3 C    0.978
                            65 H    0.938
    32   6 C    3.972 --    31 C    0.995    68 H    0.982    67 H    0.981
                            66 H    0.976
    33   6 C    3.965 --    31 C    1.008    70 H    0.979    71 H    0.978
                            69 H    0.961
    34   1 H    0.995 --     5 C    0.962
    35   1 H    0.991 --     8 C    0.973
    36   1 H    0.992 --     8 C    0.976
    37   1 H    0.991 --     8 C    0.972
    38   1 H    0.991 --    11 C    0.973
    39   1 H    0.992 --    11 C    0.976
    40   1 H    0.991 --    11 C    0.972
    41   1 H    0.995 --    12 C    0.963
    42   1 H    0.996 --    13 C    0.965
    43   1 H    0.989 --    14 C    0.965
    44   1 H    0.990 --    14 C    0.968
    45   1 H    0.997 --    15 C    0.974
    46   1 H    0.996 --    15 C    0.977
    47   1 H    0.973 --     2 C    0.940
    48   1 H    0.997 --    16 C    0.957
    49   1 H    0.993 --    18 C    0.969
    50   1 H    0.993 --    18 C    0.967
    51   1 H    0.993 --    19 C    0.967
    52   1 H    0.996 --    19 C    0.973
    53   1 H    0.996 --    21 C    0.967
    54   1 H    0.994 --    22 C    0.962
    55   1 H    0.988 --    25 C    0.971
    56   1 H    0.988 --    25 C    0.971
    57   1 H    0.992 --    25 C    0.976
    58   1 H    0.992 --    28 C    0.976
    59   1 H    0.990 --    28 C    0.972
    60   1 H    0.990 --    28 C    0.972
    61   1 H    0.995 --    29 C    0.961
    62   1 H    0.981 --    30 C    0.966
    63   1 H    0.989 --    30 C    0.970
    64   1 H    0.996 --    30 C    0.980
    65   1 H    0.974 --    31 C    0.938
    66   1 H    0.993 --    32 C    0.976
    67   1 H    0.996 --    32 C    0.981
    68   1 H    0.994 --    32 C    0.982
    69   1 H    0.985 --    33 C    0.961
    70   1 H    0.994 --    33 C    0.979
    71   1 H    0.992 --    33 C    0.978
    72   1 H    0.968 --     1 N    0.947
 ---------------------------------------------------------------------------

molecular dipole:
                 x           y           z       tot (Debye)
 q only:        0.487      -0.187      -0.257
   full:        0.647      -0.496      -0.243       2.162

           -------------------------------------------------
          | TOTAL ENERGY              -99.355386277110 Eh   |
          | GRADIENT NORM               0.004303146759 Eh/α |
          | HOMO-LUMO GAP               0.765137636043 eV   |
           -------------------------------------------------

 * finished run on 2024/04/06 at 11:12:02.101
