   * xtb version 6.6.1 (8d0f1dd) compiled by 'conda@1efc2f54142f' on 2023-08-01
          program call               : xtb xtbopt.xyz --opt crude --input .xc2 --gfn2

   ID    Z sym.   atoms
    1    7 N      1, 17
    2    6 C      2-6, 8, 9, 11-16, 18-23, 25, 26, 28-33
    3    8 O      7, 10, 24, 27
    4    1 H      34-72

          :  Hamiltonian                  GFN2-xTB          :
 * total energy  :   -99.2492236 Eh     change       -0.8242296E-12 Eh
   *** GEOMETRY OPTIMIZATION CONVERGED AFTER 1 ITERATIONS ***

 final structure:
================
72
 xtb: 6.6.1 (8d0f1dd)
N           -1.83427454680238        2.89991046447165        2.17201971933717
C           -1.76762583868665        2.23488953201653        1.11897006938884
C           -2.92167610231817        1.99068147526095        0.18443920627827
C           -3.37787360493868        0.54450573584339        0.29177233683419
C           -4.28351275678323        0.03462185137541       -0.64089705655403
C           -4.75145071757072       -1.26670787457869       -0.55940964444460
O           -5.62671339535990       -1.83399209822139       -1.41221546552850
C           -6.21218463433532       -1.04991555664037       -2.42564206667016
C           -4.29810213671531       -2.10900282774408        0.49366712226387
O           -4.80212346437481       -3.35731246499487        0.49389891040726
C           -4.47654656793623       -4.23034036824114        1.55074282771980
C           -3.40040367317909       -1.59530028594952        1.41676497290013
C           -2.94745053280675       -0.28552029702188        1.31616904336748
C           -2.37987664976206        2.28284571635320       -1.23911761736142
C           -1.46978484874108        1.18107009716112       -1.81530876804098
C           -0.14776393173955        1.09679629726614       -1.15933793295816
N            0.42543278685936       -0.00078518204345       -0.72557392759761
C            1.78465844773723        0.03331730664794       -0.23308767183361
C            2.74360145792031       -0.76269202927486       -1.12762921932445
C            4.16041055998898       -0.45648990710559       -0.73673330539402
C            4.69032285926113        0.80054732645213       -0.82230082911858
C            5.95654929483411        1.17312904524376       -0.50083848757789
C            6.82290090220464        0.18398516291644       -0.02182379417502
O            8.09962124402021        0.37254142644386        0.33789749542092
C            8.67299728565852        1.65591189685167        0.23087474679079
C            6.33126350986795       -1.14720373100718        0.10699958365719
O            7.22817808211640       -2.03399659832455        0.58373246157235
C            6.84526656177562       -3.37903409845455        0.75448549056932
C            5.02235673334193       -1.44425010334193       -0.24590792139411
C           -0.23941847390353       -1.28424247613393       -0.70847887619816
C           -4.15154727318243        2.90157677139622        0.48455580736797
C           -4.78273162917257        2.56342041939688        1.83315360165024
C           -3.82146211543248        4.38976259516494        0.42811850886311
H           -4.64005113711752        0.67134681315088       -1.43328383290087
H           -6.75447693967980       -0.19633676294555       -2.00825616751548
H           -6.91357112347499       -1.70784832018196       -2.93475204992786
H           -5.46525348853561       -0.69556773880535       -3.14344116822048
H           -4.77511917605698       -3.81653694036821        2.51820871664370
H           -5.03823678425865       -5.14241045059872        1.35919842879588
H           -3.40652884820593       -4.46072258279608        1.56574308619706
H           -3.05205672187394       -2.20527586392587        2.23418398427800
H           -2.26985440982235        0.08767010777535        2.06813645074344
H           -3.22119228680403        2.41327616309714       -1.91890123354639
H           -1.82578359859857        3.22185028747431       -1.21669948174058
H           -1.99243184371011        0.22557899671891       -1.80563592705484
H           -1.28117218713129        1.45225196037842       -2.86140317470436
H           -0.83182255077510        1.78516375150017        0.73654876584826
H            0.46764096675187        1.99498599700305       -1.13699069492531
H            1.81001001192650       -0.36040154640311        0.78700493762570
H            2.12123404747879        1.08693711006312       -0.21584502586661
H            2.58789644000682       -0.45894143629942       -2.16548447847564
H            2.55760934024667       -1.83433256808253       -1.04725547339180
H            2.14969535189995        2.81119831761128       -0.51169039651033
H            6.28564938211949        2.19359950914583       -0.61070042518035
H            8.15492866557499        2.37895454501911        0.86787758113211
H            8.67055867012342        2.00939587740829       -0.80444826661263
H            9.70066945438611        1.54490191518004        0.57207301071853
H            7.72421122227365       -3.88420649759106        1.15020765751222
H            6.02180252369954       -3.47270672366084        1.46956765860610
H            6.56119109562114       -3.83887181726570       -0.19693185370248
H            4.65037517468192       -2.45309873468030       -0.15697666586033
H           -0.32004815395218       -1.69675611812639       -1.71603025767330
H           -1.23959634305830       -1.19411518112680       -0.28052962089183
H            0.33598730780104       -1.97362435638290       -0.09584515469946
H           -4.89148928475530        2.68816233762943       -0.29560344692510
H           -4.07618023638823        2.75902972006801        2.63352398539653
H           -5.08668169880630        1.52037225825021        1.87701756926669
H           -5.66228228511384        3.18235175210844        1.98887418549607
H           -3.07739307124790        4.64079176653510        1.17799576435410
H           -3.45771450182103        4.68893628585518       -0.55109986969373
H           -4.72072371751899        4.96259633077324        0.63921802791283
H           -0.98432050072977        3.03381413781075        2.70973037787956

          :  Hamiltonian                  GFN2-xTB          :
         :: total energy             -99.249223557177 Eh    ::
         :: gradient norm              0.001178251238 Eh/a0 ::
         :: HOMO-LUMO gap              0.382330645124 eV    ::
         :: SCC energy              -100.618725487395 Eh    ::
         :: -> dispersion             -0.078013146152 Eh    ::
         :: repulsion energy           1.368169975207 Eh    ::

    * Orbital Energies and Occupations

         #    Occupation            Energy/Eh            Energy/eV
      -------------------------------------------------------------
         1        2.0000           -0.8165664             -22.2199
       ...           ...                  ...                  ...
        78        1.9978           -0.5349379             -14.5564
        79        1.9977           -0.5343639             -14.5408
        80        1.9973           -0.5319546             -14.4752
        81        1.9967           -0.5284399             -14.3796
        82        1.9943           -0.5198392             -14.1455
        83        1.9931           -0.5169240             -14.0662
        84        1.9919           -0.5142958             -13.9947
        85        1.9770           -0.4977070             -13.5433
        86        1.9730           -0.4951843             -13.4747
        87        1.9107           -0.4757250             -12.9451
        88        1.8453           -0.4664633             -12.6931
        89        1.7901           -0.4611543             -12.5486
        90        1.3536           -0.4389179             -11.9436 (HOMO)
        91        0.9260           -0.4248675             -11.5612 (LUMO)
        92        0.2485           -0.3962983             -10.7838
        93        0.0101           -0.3436308              -9.3507
        94        0.0030           -0.3240882              -8.8189
        95        0.0026           -0.3221634              -8.7665
        96        0.0025           -0.3211387              -8.7386
        97        0.0011           -0.3088143              -8.4033
        98        0.0000           -0.1986524              -5.4056
        99        0.0000           -0.1906835              -5.1888
       100                         -0.1364251              -3.7123
       101                         -0.0725269              -1.9736
       ...                                ...                  ...
       171                          0.5641191              15.3505
      -------------------------------------------------------------
                  HL-Gap            0.0140504 Eh            0.3823 eV

     #   Z          covCN         q      C6AA      α(0)
     1   7 N        1.774    -0.257    27.507     7.766
     2   6 C        2.827     0.102    25.727     8.311
     3   6 C        3.907     0.007    20.407     6.421
     4   6 C        2.974     0.004    27.940     8.670
     5   6 C        2.920    -0.080    30.008     8.983
     6   6 C        2.862     0.130    25.144     8.219
     7   8 O        1.706    -0.226    17.751     5.688
     8   6 C        3.644     0.026    20.473     6.504
     9   6 C        2.864     0.129    25.163     8.222
    10   8 O        1.706    -0.224    17.724     5.684
    11   6 C        3.645     0.025    20.482     6.504
    12   6 C        2.913    -0.074    29.845     8.958
    13   6 C        2.921    -0.052    29.299     8.876
    14   6 C        3.812    -0.065    21.740     6.637
    15   6 C        3.802    -0.070    21.833     6.652
    16   6 C        2.846     0.023    27.481     8.591
    17   7 N        2.729     0.034    20.661     6.751
    18   6 C        3.759    -0.028    21.127     6.553
    19   6 C        3.807    -0.063    21.704     6.632
    20   6 C        2.964     0.018    27.603     8.618
    21   6 C        2.026    -0.051    32.373     9.189
    22   6 C        2.908    -0.054    29.341     8.882
    23   6 C        2.875     0.139    24.963     8.191
    24   8 O        1.706    -0.208    17.457     5.641
    25   6 C        3.645     0.022    20.534     6.513
    26   6 C        2.859     0.130    25.153     8.221
    27   8 O        1.706    -0.220    17.656     5.673
    28   6 C        3.644     0.025    20.498     6.508
    29   6 C        2.933    -0.075    29.870     8.963
    30   6 C        3.700    -0.075    22.111     6.725
    31   6 C        3.853    -0.007    20.661     6.465
    32   6 C        3.756    -0.120    22.850     6.816
    33   6 C        3.755    -0.119    22.839     6.814
    34   1 H        0.926     0.054     2.266     2.354
    35   1 H        0.924     0.056     2.247     2.344
    36   1 H        0.925     0.083     1.944     2.180
    37   1 H        0.924     0.049     2.330     2.387
    38   1 H        0.924     0.057     2.230     2.335
    39   1 H        0.925     0.083     1.945     2.181
    40   1 H        0.924     0.050     2.319     2.382
    41   1 H        0.926     0.055     2.260     2.351
    42   1 H        0.926     0.042     2.418     2.432
    43   1 H        0.925     0.063     2.165     2.301
    44   1 H        0.924     0.061     2.186     2.312
    45   1 H        0.925     0.066     2.131     2.283
    46   1 H        0.924     0.090     1.879     2.144
    47   1 H        0.922     0.016     2.800     2.617
    48   1 H        0.925     0.109     1.702     2.040
    49   1 H        0.924     0.066     2.129     2.282
    50   1 H        0.922     0.111     1.690     2.033
    51   1 H        0.924     0.066     2.128     2.281
    52   1 H        0.924     0.053     2.287     2.365
    53   1 H        0.000    -0.296    54.401    13.486
    54   1 H        0.926     0.082     1.959     2.189
    55   1 H        0.924     0.061     2.182     2.310
    56   1 H        0.924     0.062     2.177     2.307
    57   1 H        0.925     0.087     1.905     2.159
    58   1 H        0.925     0.085     1.923     2.169
    59   1 H        0.924     0.053     2.282     2.362
    60   1 H        0.924     0.056     2.251     2.346
    61   1 H        0.926     0.062     2.173     2.305
    62   1 H        0.924     0.080     1.976     2.198
    63   1 H        0.924     0.081     1.965     2.192
    64   1 H        0.925     0.083     1.951     2.184
    65   1 H        0.924     0.040     2.456     2.451
    66   1 H        0.925     0.072     2.064     2.247
    67   1 H        0.925     0.036     2.499     2.472
    68   1 H        0.925     0.054     2.270     2.356
    69   1 H        0.925     0.062     2.170     2.304
    70   1 H        0.925     0.038     2.473     2.459
    71   1 H        0.925     0.057     2.237     2.339
    72   1 H        0.860     0.166     1.297     1.784

Wiberg/Mayer (AO) data.
largest (>0.10) Wiberg bond orders for each atom

     #   Z sym  total        # sym  WBO       # sym  WBO       # sym  WBO
 ---------------------------------------------------------------------------
     1   7 N    3.045 --     2 C    1.965    72 H    0.937
     2   6 C    3.934 --     1 N    1.965     3 C    0.992    47 H    0.896
     3   6 C    3.972 --     2 C    0.992     4 C    0.970    14 C    0.959
                            31 C    0.938
     4   6 C    3.944 --    13 C    1.408     5 C    1.368     3 C    0.970
     5   6 C    3.959 --     6 C    1.398     4 C    1.368    34 H    0.958
     6   6 C    3.900 --     5 C    1.398     9 C    1.217     7 O    1.105
     7   8 O    2.255 --     6 C    1.105     8 C    0.977
     8   6 C    3.929 --     7 O    0.977    36 H    0.976    35 H    0.973
                            37 H    0.973
     9   6 C    3.896 --    12 C    1.389     6 C    1.217    10 O    1.107
    10   8 O    2.253 --     9 C    1.107    11 C    0.976
    11   6 C    3.929 --    39 H    0.976    10 O    0.976    40 H    0.973
                            38 H    0.973
    12   6 C    3.959 --    13 C    1.404     9 C    1.389    41 H    0.963
    13   6 C    3.949 --     4 C    1.408    12 C    1.404    42 H    0.963
    14   6 C    3.972 --    15 C    0.977    44 H    0.971    43 H    0.968
                             3 C    0.959
    15   6 C    3.985 --    16 C    1.062    14 C    0.977    45 H    0.961
                            46 H    0.925
    16   6 C    3.676 --    17 N    1.487    15 C    1.062    48 H    0.924
    17   7 N    3.559 --    16 C    1.487    30 C    0.992    18 C    0.980
    18   6 C    3.892 --    17 N    0.980    19 C    0.974    49 H    0.959
                            50 H    0.905
    19   6 C    3.971 --    20 C    1.002    18 C    0.974    52 H    0.972
                            51 H    0.962
    20   6 C    3.895 --    21 C    1.414    29 C    1.333    19 C    1.002
    21   6 C    3.075 --    22 C    1.474    20 C    1.414
    22   6 C    3.926 --    21 C    1.474    23 C    1.315    54 H    0.943
    23   6 C    3.833 --    22 C    1.315    26 C    1.217    24 O    1.122
    24   8 O    2.259 --    23 C    1.122    25 C    0.970
    25   6 C    3.919 --    57 H    0.975    56 H    0.971    55 H    0.971
                            24 O    0.970
    26   6 C    3.885 --    29 C    1.393    23 C    1.217    27 O    1.105
    27   8 O    2.241 --    26 C    1.105    28 C    0.976
    28   6 C    3.927 --    27 O    0.976    58 H    0.976    59 H    0.972
                            60 H    0.972
    29   6 C    3.901 --    26 C    1.393    20 C    1.333    61 H    0.951
    30   6 C    3.950 --    17 N    0.992    64 H    0.977    62 H    0.965
                            63 H    0.959
    31   6 C    3.968 --    33 C    1.009    32 C    1.008    65 H    0.958
                             3 C    0.938
    32   6 C    3.973 --    31 C    1.008    67 H    0.981    68 H    0.980
                            66 H    0.971
    33   6 C    3.978 --    31 C    1.009    70 H    0.982    71 H    0.979
                            69 H    0.975
    34   1 H    0.996 --     5 C    0.958
    35   1 H    0.992 --     8 C    0.973
    36   1 H    0.992 --     8 C    0.976
    37   1 H    0.993 --     8 C    0.973
    38   1 H    0.992 --    11 C    0.973
    39   1 H    0.992 --    11 C    0.976
    40   1 H    0.992 --    11 C    0.973
    41   1 H    0.995 --    12 C    0.963
    42   1 H    0.997 --    13 C    0.963
    43   1 H    0.995 --    14 C    0.968
    44   1 H    0.995 --    14 C    0.971
    45   1 H    0.994 --    15 C    0.961
    46   1 H    0.976 --    15 C    0.925
    47   1 H    0.981 --     2 C    0.896
    48   1 H    0.988 --    16 C    0.924
    49   1 H    0.989 --    18 C    0.959
    50   1 H    0.988 --    18 C    0.905
    51   1 H    0.991 --    19 C    0.962
    52   1 H    0.994 --    19 C    0.972
    53   1 H    0.106
    54   1 H    0.975 --    22 C    0.943
    55   1 H    0.989 --    25 C    0.971
    56   1 H    0.989 --    25 C    0.971
    57   1 H    0.991 --    25 C    0.975
    58   1 H    0.992 --    28 C    0.976
    59   1 H    0.991 --    28 C    0.972
    60   1 H    0.991 --    28 C    0.972
    61   1 H    0.983 --    29 C    0.951
    62   1 H    0.986 --    30 C    0.965
    63   1 H    0.989 --    30 C    0.959
    64   1 H    0.993 --    30 C    0.977
    65   1 H    0.990 --    31 C    0.958
    66   1 H    0.989 --    32 C    0.971
    67   1 H    0.996 --    32 C    0.981
    68   1 H    0.993 --    32 C    0.980
    69   1 H    0.991 --    33 C    0.975
    70   1 H    0.996 --    33 C    0.982
    71   1 H    0.993 --    33 C    0.979
    72   1 H    0.966 --     1 N    0.937
 ---------------------------------------------------------------------------

molecular dipole:
                 x           y           z       tot (Debye)
 q only:        0.239      -1.245      -0.623
   full:        0.583      -1.368      -0.746       4.229

           -------------------------------------------------
          | TOTAL ENERGY              -99.249223557177 Eh   |
          | GRADIENT NORM               0.001178251238 Eh/α |
          | HOMO-LUMO GAP               0.382330645124 eV   |
           -------------------------------------------------

 * finished run on 2024/04/06 at 11:14:43.786
