   * xtb version 6.6.1 (8d0f1dd) compiled by 'conda@1efc2f54142f' on 2023-08-01
          program call               : xtb struc.xyz --opt loose --input .xc1 --gfn2

   ID    Z sym.   atoms
    1    6 C      1, 3, 5-7, 10, 11, 14
    2    7 N      2, 4, 9, 13
    3    8 O      8, 12
    4    1 H      15-25
constraining bond 2 18 to    4.0600000 Å, actual value:    2.1303834 Å

          :  Hamiltonian                  GFN2-xTB          :
 * total energy  :   -35.6117644 Eh     change       -0.2401990E-09 Eh
 * total energy  :   -38.5113474 Eh     change       -0.2899583E+01 Eh
 * total energy  :   -40.6285927 Eh     change       -0.2117245E+01 Eh
 * total energy  :   -41.6475066 Eh     change       -0.1018914E+01 Eh
 * total energy  :   -41.9067760 Eh     change       -0.2592694E+00 Eh
 * total energy  :   -41.9270704 Eh     change       -0.2029441E-01 Eh
 * total energy  :   -41.9421155 Eh     change       -0.1504509E-01 Eh
 * total energy  :   -41.9733573 Eh     change       -0.3124178E-01 Eh
 * total energy  :   -41.9995146 Eh     change       -0.2615735E-01 Eh
 * total energy  :   -42.0110439 Eh     change       -0.1152928E-01 Eh
 * total energy  :   -42.1256688 Eh     change       -0.4576911E-03 Eh
 * total energy  :   -42.1258610 Eh     change       -0.1921588E-03 Eh
 * total energy  :   -42.1259581 Eh     change       -0.9708794E-04 Eh
 * total energy  :   -42.1260136 Eh     change       -0.5558396E-04 Eh
 * total energy  :   -42.1260648 Eh     change       -0.5116950E-04 Eh
 * total energy  :   -42.1261159 Eh     change       -0.5112979E-04 Eh
 * total energy  :   -42.1261649 Eh     change       -0.4896842E-04 Eh
 * total energy  :   -42.1262057 Eh     change       -0.4078077E-04 Eh
 * total energy  :   -42.1262403 Eh     change       -0.3461079E-04 Eh
   *** GEOMETRY OPTIMIZATION CONVERGED AFTER 34 ITERATIONS ***

 final structure:
================
25
 xtb: 6.6.1 (8d0f1dd)
C            3.16495255314728        1.25879278279715        0.01645069141313
N            2.23812564531021        0.16227685254263        0.00002165565140
C            2.55744173097228       -1.13792286548911       -0.00867607047068
N            1.40343239538167       -1.84613086094438       -0.00840669361469
C            0.33938806359125       -0.99423124588297        0.00031744874141
C            0.86712241252499        0.29330205630033        0.00674406329768
C            0.02296022405540        1.45920449584035       -0.00042606104984
O            0.39109111701133        2.61433085342014       -0.01167940907084
N           -1.33333543432724        1.11052520876329        0.00237292665587
C           -2.29828863059285        2.19554521706920       -0.00042351358092
C           -1.87635262089221       -0.16234821709940        0.00283226477456
O           -3.06653014347583       -0.34427242225431        0.00379551368864
N           -0.98399825966195       -1.24816202172838        0.00073285708543
C           -1.52099715413075       -2.59220037476676       -0.00343666683759
H            3.66992447005369        1.31153096952378        0.98336073141805
H            3.92101229100521        1.11771045366854       -0.75640440564688
H            2.62350677854511        2.18919714176659       -0.15399548223167
H            4.30769423805359       -3.32949553524896       -0.00858094262484
H           -1.75011448857901        3.13625863997508        0.00766548197866
H           -2.92883654075169        2.13342729739991       -0.88891572325985
H           -2.94244829703925        2.12475034462690        0.87749517785322
H           -1.19701373517928       -3.13667754918661        0.88495221279710
H           -1.20589300201098       -3.12807386159881       -0.90028397556272
H           -2.60843408775175       -2.51448707643271        0.00215614866394
H            1.36602198884074       -2.85461174146145       -0.01649661216861

          :  Hamiltonian                  GFN2-xTB          :
         :: total energy             -42.126240295320 Eh    ::
         :: gradient norm              0.002796609439 Eh/a0 ::
         :: HOMO-LUMO gap              1.275609899560 eV    ::
         :: SCC energy               -42.628393794474 Eh    ::
         :: -> dispersion             -0.022548035166 Eh    ::
         :: repulsion energy           0.502053592090 Eh    ::

    * Orbital Energies and Occupations

         #    Occupation            Energy/Eh            Energy/eV
      -------------------------------------------------------------
         1        2.0000           -0.8990228             -24.4637
       ...           ...                  ...                  ...
        25        1.9974           -0.6707774             -18.2528
        26        1.9972           -0.6691074             -18.2073
        27        1.9935           -0.6486389             -17.6504
        28        1.9899           -0.6382916             -17.3688
        29        1.9847           -0.6283780             -17.0990
        30        1.9782           -0.6198555             -16.8671
        31        1.9771           -0.6187157             -16.8361
        32        1.9644           -0.6080420             -16.5457
        33        1.9475           -0.5986035             -16.2888
        34        1.8984           -0.5823199             -15.8457
        35        1.8897           -0.5802609             -15.7897
        36        1.7310           -0.5570083             -15.1570
        37        1.7001           -0.5539972             -15.0750 (HOMO)
        38        0.8813           -0.5071194             -13.7994 (LUMO)
        39        0.0543           -0.4277843             -11.6406
        40        0.0154           -0.3973657             -10.8129
        41        0.0066           -0.3771178             -10.2619
        42        0.0002           -0.2991235              -8.1396
        43        0.0000           -0.2153640              -5.8604
        44        0.0000           -0.1697103              -4.6181
        45        0.0000           -0.1464630              -3.9855
        46        0.0000           -0.1371594              -3.7323
        47                         -0.0712469              -1.9387
        48                         -0.0431581              -1.1744
       ...                                ...                  ...
        67                          0.5285315              14.3821
      -------------------------------------------------------------
                  HL-Gap            0.0468778 Eh            1.2756 eV

     #   Z          covCN         q      C6AA      α(0)
     1   6 C        3.692    -0.083    22.271     6.753
     2   7 N        2.844     0.077    19.902     6.626
     3   6 C        2.067    -0.049    32.270     9.176
     4   7 N        2.809    -0.058    22.350     7.021
     5   6 C        3.016     0.114    25.473     8.279
     6   6 C        3.090    -0.010    28.168     8.699
     7   6 C        2.765     0.269    22.450     7.760
     8   8 O        0.858    -0.333    20.393     6.055
     9   7 N        2.746    -0.070    22.593     7.060
    10   6 C        3.709    -0.061    21.822     6.677
    11   6 C        2.729     0.317    21.618     7.612
    12   8 O        0.860    -0.336    20.433     6.061
    13   7 N        2.737    -0.043    22.067     6.977
    14   6 C        3.697    -0.071    22.028     6.714
    15   1 H        0.924     0.116     1.644     2.005
    16   1 H        0.924     0.117     1.636     2.001
    17   1 H        0.925     0.126     1.566     1.957
    18   1 H        0.000     0.070     5.189     4.165
    19   1 H        0.925     0.128     1.552     1.948
    20   1 H        0.924     0.116     1.643     2.005
    21   1 H        0.924     0.117     1.641     2.003
    22   1 H        0.924     0.097     1.813     2.106
    23   1 H        0.924     0.097     1.813     2.105
    24   1 H        0.924     0.132     1.520     1.928
    25   1 H        0.860     0.220     1.011     1.575

Wiberg/Mayer (AO) data.
largest (>0.10) Wiberg bond orders for each atom

     #   Z sym  total        # sym  WBO       # sym  WBO       # sym  WBO
 ---------------------------------------------------------------------------
     1   6 C    3.880 --     2 N    1.000    17 H    0.951    16 H    0.948
                            15 H    0.940
     2   7 N    3.625 --     3 C    1.355     6 C    1.158     1 C    1.000
     3   6 C    2.836 --     2 N    1.355     4 N    1.282
     4   7 N    3.569 --     3 C    1.282     5 C    1.197    25 H    0.923
     5   6 C    3.879 --     6 C    1.311    13 N    1.198     4 N    1.197
     6   6 C    3.809 --     5 C    1.311     2 N    1.158     7 C    1.085
     7   6 C    3.919 --     8 O    1.657     6 C    1.085     9 N    1.083
     8   8 O    1.942 --     7 C    1.657     9 N    0.119
     9   7 N    3.485 --    11 C    1.120     7 C    1.083    10 C    0.979
                             8 O    0.119    12 O    0.118
    10   6 C    3.855 --     9 N    0.979    19 H    0.951    21 H    0.942
                            20 H    0.941
    11   6 C    3.940 --    12 O    1.674     9 N    1.120    13 N    1.056
    12   8 O    1.973 --    11 C    1.674     9 N    0.118    13 N    0.108
    13   7 N    3.487 --     5 C    1.198    11 C    1.056    14 C    0.979
                            12 O    0.108
    14   6 C    3.894 --    13 N    0.979    22 H    0.958    23 H    0.958
                            24 H    0.956
    15   1 H    0.964 --     1 C    0.940
    16   1 H    0.968 --     1 C    0.948
    17   1 H    0.972 --     1 C    0.951
    18   1 H    0.038
    19   1 H    0.970 --    10 C    0.951
    20   1 H    0.959 --    10 C    0.941
    21   1 H    0.959 --    10 C    0.942
    22   1 H    0.974 --    14 C    0.958
    23   1 H    0.974 --    14 C    0.958
    24   1 H    0.976 --    14 C    0.956
    25   1 H    0.950 --     4 N    0.923
 ---------------------------------------------------------------------------

molecular dipole:
                 x           y           z       tot (Debye)
 q only:        1.439      -1.473       0.007
   full:        1.227      -1.726       0.015       5.383

           -------------------------------------------------
          | TOTAL ENERGY              -42.126240295320 Eh   |
          | GRADIENT NORM               0.002796609439 Eh/α |
          | HOMO-LUMO GAP               1.275609899560 eV   |
           -------------------------------------------------

 * finished run on 2024/06/05 at 19:58:43.781
