   * xtb version 6.6.1 (8d0f1dd) compiled by 'conda@1efc2f54142f' on 2023-08-01
          program call               : xtb struc.xyz --opt loose --input .xc1 --gfn2

   ID    Z sym.   atoms
    1    6 C      1, 3, 5-7, 10, 11, 14
    2    7 N      2, 4, 9, 13
    3    8 O      8, 12
    4    1 H      15-25
constraining bond 3 6 to    5.0000000 Å, actual value:    2.1783507 Å

          :  Hamiltonian                  GFN2-xTB          :
 * total energy  :   -13.8160991 Eh     change       -0.6650680E-10 Eh
 * total energy  :   -24.8345322 Eh     change       -0.1101843E+02 Eh
 * total energy  :   -31.6755362 Eh     change       -0.6841004E+01 Eh
 * total energy  :   -36.2702786 Eh     change       -0.4594742E+01 Eh
 * total energy  :   -39.7227732 Eh     change       -0.3452495E+01 Eh
 * total energy  :   -41.1104062 Eh     change       -0.1387633E+01 Eh
 * total energy  :   -41.3600646 Eh     change       -0.2496584E+00 Eh
 * total energy  :   -41.4617332 Eh     change       -0.1016686E+00 Eh
 * total energy  :   -41.5181610 Eh     change       -0.5642779E-01 Eh
 * total energy  :   -41.5613074 Eh     change       -0.4314638E-01 Eh
 * total energy  :   -42.1656584 Eh     change       -0.1341073E-03 Eh
 * total energy  :   -42.1658095 Eh     change       -0.1511629E-03 Eh
 * total energy  :   -42.1659021 Eh     change       -0.9253434E-04 Eh
 * total energy  :   -42.1660085 Eh     change       -0.1064712E-03 Eh
 * total energy  :   -42.1660888 Eh     change       -0.8025219E-04 Eh
 * total energy  :   -42.1661802 Eh     change       -0.9141200E-04 Eh
 * total energy  :   -42.1661627 Eh     change        0.1747610E-04 Eh
 * total energy  :   -42.1662868 Eh     change       -0.1240615E-03 Eh
 * total energy  :   -42.1663338 Eh     change       -0.4702217E-04 Eh
   *** GEOMETRY OPTIMIZATION CONVERGED AFTER 131 ITERATIONS ***

 final structure:
================
25
 xtb: 6.6.1 (8d0f1dd)
C            3.12741830681425        0.16582313848563       -0.17664012193647
N            1.67452284898714        0.09113311302101        0.04435964170907
C            4.17676054433396       -0.80210516820237        0.46817982830010
N            0.95082540354689       -1.01188345089069       -0.05573858057538
C           -0.32853579101965       -0.65219500817611       -0.07462327058314
C           -0.53837421300539        0.76162444325844       -0.02440079733378
C            0.83692833957823        1.29152261306550        0.06402073553128
O            1.28167439268498        2.40546634534888        0.13163745564743
N           -1.84892234045686        1.00313255198244       -0.02889226819062
C           -2.54478059970421        2.25175215273048        0.03206380176406
C           -2.51811181843645       -0.25236982047737       -0.09869537285485
O           -3.70169389387616       -0.40458647058061       -0.12634212648549
N           -1.53733408017551       -1.25430168005417       -0.12637257962343
C           -1.83991478846509       -2.65632112476961       -0.19223580535200
H            4.17474246118474       -0.69856874397648        1.55109416906658
H            3.26318624894352        0.07325669438489       -1.26413009681589
H            3.38468317465571        1.19419812633317        0.10125854121841
H            5.14525847919447       -0.51340221449740        0.08081083181801
H           -1.82861164501782        3.06565221997000        0.12415787521883
H           -3.15074309575732        2.38424695896497       -0.86815152446420
H           -3.22746290594213        2.24961373015794        0.88572007863813
H           -1.42759126419124       -3.17277884027781        0.67629865609821
H           -1.40574134732150       -3.09354761162662       -1.09316372811803
H           -2.92335590791597       -2.76957142210905       -0.21128187654772
H            3.96560500567411       -1.83755199059696        0.21223815162525

          :  Hamiltonian                  GFN2-xTB          :
         :: total energy             -42.166333797813 Eh    ::
         :: gradient norm              0.002592589840 Eh/a0 ::
         :: HOMO-LUMO gap              0.609341816346 eV    ::
         :: SCC energy               -42.655121530799 Eh    ::
         :: -> dispersion             -0.020734048535 Eh    ::
         :: repulsion energy           0.488547420243 Eh    ::

    * Orbital Energies and Occupations

         #    Occupation            Energy/Eh            Energy/eV
      -------------------------------------------------------------
         1        2.0000           -0.9095066             -24.7489
       ...           ...                  ...                  ...
        25        1.9997           -0.6778248             -18.4446
        26        1.9990           -0.6578595             -17.9013
        27        1.9977           -0.6443129             -17.5326
        28        1.9970           -0.6397008             -17.4071
        29        1.9957           -0.6340824             -17.2543
        30        1.9948           -0.6311770             -17.1752
        31        1.9931           -0.6266041             -17.0508
        32        1.9809           -0.6103427             -16.6083
        33        1.9755           -0.6063664             -16.5001
        34        1.9705           -0.6034123             -16.4197
        35        1.9435           -0.5929038             -16.1337
        36        1.8600           -0.5778301             -15.7236
        37        1.4776           -0.5533345             -15.0570 (HOMO)
        38        0.8150           -0.5309416             -14.4477 (LUMO)
        39        0.0004           -0.4033919             -10.9769
        40        0.0000           -0.3651344              -9.9358
        41        0.0000           -0.3412452              -9.2858
        42                         -0.2538694              -6.9081
        43                         -0.1992242              -5.4212
        44                         -0.1969489              -5.3593
        45                         -0.1143057              -3.1104
        46                         -0.0879105              -2.3922
        47                         -0.0647305              -1.7614
        48                         -0.0467490              -1.2721
       ...                                ...                  ...
        67                          0.5532378              15.0544
      -------------------------------------------------------------
                  HL-Gap            0.0223929 Eh            0.6093 eV

     #   Z          covCN         q      C6AA      α(0)
     1   6 C        3.727    -0.016    20.957     6.536
     2   7 N        2.947     0.056    20.262     6.685
     3   6 C        3.745    -0.118    22.838     6.817
     4   7 N        1.934    -0.131    24.609     7.356
     5   6 C        3.169     0.118    25.059     8.179
     6   6 C        3.070     0.009    27.748     8.637
     7   6 C        2.838     0.254    22.739     7.815
     8   8 O        0.856    -0.279    19.402     5.906
     9   7 N        2.788     0.015    20.992     6.805
    10   6 C        3.689    -0.070    22.037     6.719
    11   6 C        2.907     0.310    21.745     7.646
    12   8 O        0.857    -0.300    19.789     5.964
    13   7 N        2.786    -0.023    21.693     6.917
    14   6 C        3.688    -0.070    22.032     6.718
    15   1 H        0.925     0.097     1.810     2.104
    16   1 H        0.923     0.116     1.645     2.006
    17   1 H        0.924     0.118     1.631     1.997
    18   1 H        0.925     0.103     1.761     2.075
    19   1 H        0.925     0.115     1.653     2.010
    20   1 H        0.924     0.125     1.574     1.962
    21   1 H        0.924     0.125     1.575     1.962
    22   1 H        0.924     0.113     1.672     2.022
    23   1 H        0.924     0.113     1.673     2.023
    24   1 H        0.925     0.122     1.598     1.977
    25   1 H        0.925     0.098     1.806     2.102

Wiberg/Mayer (AO) data.
largest (>0.10) Wiberg bond orders for each atom

     #   Z sym  total        # sym  WBO       # sym  WBO       # sym  WBO
 ---------------------------------------------------------------------------
     1   6 C    3.877 --     3 C    0.994     2 N    0.974    17 H    0.946
                            16 H    0.910
     2   7 N    3.420 --     4 N    1.248     7 C    0.983     1 C    0.974
     3   6 C    3.891 --     1 C    0.994    18 H    0.960    25 H    0.960
                            15 H    0.953
     4   7 N    2.772 --     5 C    1.345     2 N    1.248
     5   6 C    3.861 --     4 N    1.345    13 N    1.199     6 C    1.159
     6   6 C    3.710 --     9 N    1.293     5 C    1.159     7 C    1.050
     7   6 C    3.855 --     8 O    1.739     6 C    1.050     2 N    0.983
     8   8 O    1.923 --     7 C    1.739
     9   7 N    3.499 --     6 C    1.293    11 C    1.016    10 C    1.000
    10   6 C    3.898 --     9 N    1.000    19 H    0.970    21 H    0.939
                            20 H    0.937
    11   6 C    3.919 --    12 O    1.731    13 N    1.078     9 N    1.016
    12   8 O    1.984 --    11 C    1.731    13 N    0.113
    13   7 N    3.493 --     5 C    1.199    11 C    1.078    14 C    0.989
                            12 O    0.113
    14   6 C    3.892 --    13 N    0.989    24 H    0.965    22 H    0.948
                            23 H    0.948
    15   1 H    0.961 --     3 C    0.953
    16   1 H    0.934 --     1 C    0.910
    17   1 H    0.971 --     1 C    0.946
    18   1 H    0.976 --     3 C    0.960
    19   1 H    0.984 --    10 C    0.970
    20   1 H    0.961 --    10 C    0.937
    21   1 H    0.962 --    10 C    0.939
    22   1 H    0.965 --    14 C    0.948
    23   1 H    0.965 --    14 C    0.948
    24   1 H    0.981 --    14 C    0.965
    25   1 H    0.968 --     3 C    0.960
 ---------------------------------------------------------------------------

molecular dipole:
                 x           y           z       tot (Debye)
 q only:        0.563      -0.628      -0.118
   full:        0.497      -0.478      -0.153       1.796

           -------------------------------------------------
          | TOTAL ENERGY              -42.166333797813 Eh   |
          | GRADIENT NORM               0.002592589840 Eh/α |
          | HOMO-LUMO GAP               0.609341816346 eV   |
           -------------------------------------------------

 * finished run on 2024/06/05 at 19:59:11.930
