   * xtb version 6.6.1 (8d0f1dd) compiled by 'conda@1efc2f54142f' on 2023-08-01
          program call               : xtb xtbopt.xyz --opt crude --input .xc2 --gfn2

   ID    Z sym.   atoms
    1    6 C      1, 3, 5-7, 10, 11, 14
    2    7 N      2, 4, 9, 13
    3    8 O      8, 12
    4    1 H      15-25
########################################################################
[WARNING] Please study the warnings concerning your input carefully
-1- readin_getIntValue: could not parse ''
########################################################################

          :  Hamiltonian                  GFN2-xTB          :
 * total energy  :   -42.1665605 Eh     change       -0.7815970E-13 Eh
 * total energy  :   -42.1725276 Eh     change       -0.5967050E-02 Eh
 * total energy  :   -42.1751213 Eh     change       -0.2593776E-02 Eh
 * total energy  :   -42.1760482 Eh     change       -0.9269101E-03 Eh
 * total energy  :   -42.1767218 Eh     change       -0.6735431E-03 Eh
 * total energy  :   -42.1770689 Eh     change       -0.3471531E-03 Eh
   *** GEOMETRY OPTIMIZATION CONVERGED AFTER 6 ITERATIONS ***

 final structure:
================
25
 xtb: 6.6.1 (8d0f1dd)
C            3.11978185977758        0.26629232912478       -0.28354723203342
N            1.70180640793210        0.17932257949124       -0.10543970783701
C            3.88019094808078       -0.79567050526902        0.49607558454014
N            1.04644987608805       -0.97155839980488       -0.15541914939524
C           -0.24466331124662       -0.67167334605986       -0.07202812675793
C           -0.45614776329520        0.73297395975202        0.01998390353940
C            0.86274196448851        1.33119696530255        0.01157650338724
O            1.27436885336087        2.46231895292733        0.08555468737251
N           -1.77095024215826        0.97132071019264        0.03508359124939
C           -2.46249763869268        2.22163828828956        0.07148336250205
C           -2.43525055575884       -0.28303441206934       -0.04256344550781
O           -3.61828560187774       -0.43983522914833       -0.06437901004180
N           -1.44893293130143       -1.28175907248935       -0.09672858134326
C           -1.76346768696685       -2.68013687386296       -0.18710312370298
H            3.73149941732266       -0.66925416694848        1.56867155479133
H            3.34388126877040        0.15636842768070       -1.35694289002317
H            3.41244192043533        1.28095615454197        0.01081694679408
H            4.94208562132969       -0.70479792040447        0.27476190809634
H           -1.74189938269825        3.03339355169928        0.15068930610031
H           -3.06019872966827        2.33740751612355       -0.83646697718924
H           -3.15034214741482        2.23970747077734        0.91996855240078
H           -1.35542988631286       -3.21837434047418        0.67005687735934
H           -1.34060473266722       -3.10690713889690       -1.09825759906900
H           -2.84878116244281       -2.77823306333055       -0.20184755260770
H            3.54263514922865       -1.79342389567665        0.21717223513001

          :  Hamiltonian                  GFN2-xTB          :
         :: total energy             -42.177068936726 Eh    ::
         :: gradient norm              0.005820795355 Eh/a0 ::
         :: HOMO-LUMO gap              0.547393898940 eV    ::
         :: SCC energy               -42.677238159321 Eh    ::
         :: -> dispersion             -0.021105463115 Eh    ::
         :: repulsion energy           0.500132610545 Eh    ::

    * Orbital Energies and Occupations

         #    Occupation            Energy/Eh            Energy/eV
      -------------------------------------------------------------
         1        2.0000           -0.9120679             -24.8186
       ...           ...                  ...                  ...
        25        1.9997           -0.6804770             -18.5167
        26        1.9991           -0.6607976             -17.9812
        27        1.9976           -0.6453739             -17.5615
        28        1.9971           -0.6428190             -17.4920
        29        1.9955           -0.6354815             -17.2923
        30        1.9938           -0.6305376             -17.1578
        31        1.9926           -0.6276415             -17.0790
        32        1.9772           -0.6097810             -16.5930
        33        1.9745           -0.6079961             -16.5444
        34        1.9722           -0.6066193             -16.5070
        35        1.9374           -0.5934537             -16.1487
        36        1.8534           -0.5792826             -15.7631
        37        1.4543           -0.5546310             -15.0923 (HOMO)
        38        0.8559           -0.5345146             -14.5449 (LUMO)
        39        0.0003           -0.4021085             -10.9419
        40        0.0000           -0.3664802              -9.9724
        41        0.0000           -0.3360735              -9.1450
        42                         -0.2231436              -6.0720
        43                         -0.1909317              -5.1955
        44                         -0.1786996              -4.8627
        45                         -0.1088520              -2.9620
        46                         -0.0506678              -1.3787
        47                         -0.0450729              -1.2265
        48                         -0.0403858              -1.0990
       ...                                ...                  ...
        67                          0.5655947              15.3906
      -------------------------------------------------------------
                  HL-Gap            0.0201164 Eh            0.5474 eV

     #   Z          covCN         q      C6AA      α(0)
     1   6 C        3.738    -0.013    20.883     6.521
     2   7 N        3.006     0.069    20.034     6.648
     3   6 C        3.751    -0.123    22.923     6.828
     4   7 N        1.947    -0.138    24.746     7.377
     5   6 C        3.176     0.120    24.990     8.163
     6   6 C        3.119     0.009    27.637     8.610
     7   6 C        2.827     0.251    22.796     7.824
     8   8 O        0.856    -0.289    19.589     5.934
     9   7 N        2.790     0.011    21.060     6.816
    10   6 C        3.689    -0.070    22.044     6.720
    11   6 C        2.909     0.311    21.740     7.645
    12   8 O        0.857    -0.298    19.755     5.959
    13   7 N        2.788    -0.023    21.684     6.916
    14   6 C        3.688    -0.070    22.036     6.719
    15   1 H        0.924     0.093     1.847     2.126
    16   1 H        0.923     0.119     1.619     1.990
    17   1 H        0.924     0.120     1.614     1.986
    18   1 H        0.925     0.102     1.770     2.081
    19   1 H        0.925     0.117     1.640     2.002
    20   1 H        0.924     0.125     1.571     1.960
    21   1 H        0.924     0.126     1.562     1.955
    22   1 H        0.924     0.113     1.668     2.020
    23   1 H        0.924     0.113     1.670     2.021
    24   1 H        0.925     0.123     1.592     1.973
    25   1 H        0.925     0.101     1.780     2.086

Wiberg/Mayer (AO) data.
largest (>0.10) Wiberg bond orders for each atom

     #   Z sym  total        # sym  WBO       # sym  WBO       # sym  WBO
 ---------------------------------------------------------------------------
     1   6 C    3.884 --     3 C    1.000     2 N    0.991    17 H    0.940
                            16 H    0.905
     2   7 N    3.439 --     4 N    1.231     7 C    1.013     1 C    0.991
     3   6 C    3.887 --     1 C    1.000    18 H    0.959    25 H    0.953
                            15 H    0.953
     4   7 N    2.758 --     5 C    1.345     2 N    1.231
     5   6 C    3.859 --     4 N    1.345    13 N    1.203     6 C    1.159
     6   6 C    3.706 --     9 N    1.282     5 C    1.159     7 C    1.066
     7   6 C    3.864 --     8 O    1.700     6 C    1.066     2 N    1.013
     8   8 O    1.882 --     7 C    1.700
     9   7 N    3.492 --     6 C    1.282    11 C    1.021    10 C    1.002
    10   6 C    3.896 --     9 N    1.002    19 H    0.969    21 H    0.938
                            20 H    0.935
    11   6 C    3.918 --    12 O    1.732    13 N    1.072     9 N    1.021
    12   8 O    1.982 --    11 C    1.732    13 N    0.111
    13   7 N    3.490 --     5 C    1.203    11 C    1.072    14 C    0.989
                            12 O    0.111
    14   6 C    3.891 --    13 N    0.989    24 H    0.965    23 H    0.947
                            22 H    0.947
    15   1 H    0.962 --     3 C    0.953
    16   1 H    0.932 --     1 C    0.905
    17   1 H    0.967 --     1 C    0.940
    18   1 H    0.973 --     3 C    0.959
    19   1 H    0.983 --    10 C    0.969
    20   1 H    0.959 --    10 C    0.935
    21   1 H    0.961 --    10 C    0.938
    22   1 H    0.964 --    14 C    0.947
    23   1 H    0.965 --    14 C    0.947
    24   1 H    0.981 --    14 C    0.965
    25   1 H    0.964 --     3 C    0.953
 ---------------------------------------------------------------------------

molecular dipole:
                 x           y           z       tot (Debye)
 q only:        0.525      -0.692      -0.124
   full:        0.453      -0.541      -0.148       1.833

           -------------------------------------------------
          | TOTAL ENERGY              -42.177068936726 Eh   |
          | GRADIENT NORM               0.005820795355 Eh/α |
          | HOMO-LUMO GAP               0.547393898940 eV   |
           -------------------------------------------------

 * finished run on 2024/06/05 at 19:59:12.221
