   * xtb version 6.6.1 (8d0f1dd) compiled by 'conda@1efc2f54142f' on 2023-08-01
          program call               : xtb struc.xyz --opt loose --input .xc1 --gfn2

   ID    Z sym.   atoms
    1    7 N      1, 17
    2    6 C      2-6, 8, 9, 11-16, 18-23, 25, 26, 28-33
    3    8 O      7, 10, 24, 27
    4    1 H      34-72
constraining bond 9 13 to    5.0000000 Å, actual value:    2.4130552 Å

          :  Hamiltonian                  GFN2-xTB          :
 * total energy  :   -98.2092023 Eh     change       -0.4035485E-08 Eh
 * total energy  :   -98.4601062 Eh     change       -0.2509039E+00 Eh
 * total energy  :   -98.6184833 Eh     change       -0.1583772E+00 Eh
 * total energy  :   -98.7097426 Eh     change       -0.9125922E-01 Eh
 * total energy  :   -98.7714091 Eh     change       -0.6166655E-01 Eh
 * total energy  :   -98.8227291 Eh     change       -0.5131996E-01 Eh
 * total energy  :   -98.8764444 Eh     change       -0.5371534E-01 Eh
 * total energy  :   -98.9036338 Eh     change       -0.2718940E-01 Eh
 * total energy  :   -98.9264620 Eh     change       -0.2282819E-01 Eh
 * total energy  :   -98.9458906 Eh     change       -0.1942864E-01 Eh
 * total energy  :   -99.2918513 Eh     change       -0.2023401E-03 Eh
 * total energy  :   -99.2920191 Eh     change       -0.1677429E-03 Eh
 * total energy  :   -99.2920344 Eh     change       -0.1530478E-04 Eh
 * total energy  :   -99.2922546 Eh     change       -0.2201957E-03 Eh
 * total energy  :   -99.2922930 Eh     change       -0.3843520E-04 Eh
 * total energy  :   -99.2924321 Eh     change       -0.1391088E-03 Eh
 * total energy  :   -99.2924871 Eh     change       -0.5492800E-04 Eh
 * total energy  :   -99.2925509 Eh     change       -0.6381243E-04 Eh
 * total energy  :   -99.2926008 Eh     change       -0.4991452E-04 Eh
   *** GEOMETRY OPTIMIZATION CONVERGED AFTER 155 ITERATIONS ***

 final structure:
================
72
 xtb: 6.6.1 (8d0f1dd)
N           -1.63654847236181        3.56217020000340        0.51228898870717
C           -2.30625453128844        2.51571679112077        0.71751947058254
C           -2.94861634670201        1.55488684135483       -0.28906793941759
C           -3.43305178981117        0.80680741314216        0.95356933175229
C           -4.31201879454870       -0.27673024098962        1.19881258971486
C           -5.10309257746824       -1.13308092410151        0.45985525290272
O           -6.01300684352952       -1.92102220991399        1.06212783446817
C           -6.34493597686742       -1.80730029344130        2.42473348249805
C           -5.20746637741582       -1.47828953656118       -1.00949617195287
O           -6.48131755062855       -1.39191585591680       -1.42393460362892
C           -6.79055129589337       -1.83584439884510       -2.72573591868371
C           -4.13963918165249       -1.86615712283244       -1.71020559559353
C           -2.79543660969300        1.70598798736663        1.81231895217255
C           -1.89230509543491        0.80418775129219       -1.15656185320254
C           -1.01584983586409       -0.08390760143362       -0.39043156215115
C            0.03108728820196        0.42909904404013        0.51407643371667
N            0.91211583262389       -0.60987520253796        0.99153288782499
C            2.31344158963947       -0.26897089142831        1.05752723946936
C            2.96396889705648       -0.38685118528824       -0.33409461464740
C            4.42413519597813       -0.05048720938234       -0.27219217735160
C            4.86255928076100        1.25205210623118       -0.47250181671559
C            6.20896747037353        1.56983350075387       -0.40438912464364
C            7.15353349854152        0.58950808238836       -0.12718167866880
O            8.48128027683616        0.77911767394773       -0.04468649844165
C            9.01202532347038        2.06472082715539       -0.27232946276640
C            6.71433638044208       -0.74840981469248        0.09109769261697
O            7.69134184085720       -1.63467863507711        0.35437082386076
C            7.36108534130042       -2.98700676532663        0.56719154906829
C            5.35991174172085       -1.03983656683369        0.01602422789678
C            0.39130466818973       -1.38755137577158        2.08424827104708
C           -4.05085287900598        2.15990111057022       -1.17081159294873
C           -5.11747335265017        2.84076880474936       -0.31308543262712
C           -3.47072320067051        3.16101120052482       -2.16651278466720
H           -4.45349804152252       -0.39723589346098        2.26947508524234
H           -5.53190941915151       -2.15291888941546        3.07003737524164
H           -7.20777588948601       -2.45716083055862        2.56222482678754
H           -6.61631788004258       -0.78252824749376        2.68986823074027
H           -6.52067434965835       -2.88741259971452       -2.85951931249496
H           -7.86681846207810       -1.72011078699101       -2.83048824093502
H           -6.28274339334982       -1.22977689118917       -3.48223824291905
H           -4.19545111982068       -2.18203271842841       -2.73375035102347
H           -2.74011868238756        1.79442770821305        2.88114993005491
H           -2.42780959572045        0.23813567644809       -1.91894770794578
H           -1.30430180858231        1.59683760603101       -1.62964620015877
H           -3.18116065566236       -1.91849378780159       -1.23463005227805
H           -1.14805935341673       -1.15224138946084       -0.44020632171968
H           -0.46325338798561        0.94234951711532        1.36957528395803
H            0.61157026104782        1.21075439791976        0.00933701641266
H            2.81083013483907       -0.96165275839174        1.73825850477912
H            2.46738189224882        0.74953901746115        1.44342620971568
H            2.45875364291856        0.28717582200760       -1.02660723979015
H            2.82412884953770       -1.40785216444566       -0.69029251492693
H            4.14969215747205        2.03099571826411       -0.69600747840358
H            6.51794880616128        2.58829537394917       -0.57430170037111
H            8.64031655157943        2.78692083031102        0.46067881816883
H            8.78362095631244        2.41797504509749       -1.28229289148249
H           10.08952700305995        1.95964583229368       -0.16123872383379
H            8.30755409986807       -3.49470531237938        0.74268701857782
H            6.71702612131084       -3.10855178946010        1.44365453436104
H            6.87285274952577       -3.42300285763465       -0.30962130915753
H            5.01700594852547       -2.05071071230165        0.17051128843588
H           -0.64461879161117       -1.65042760581646        1.87704965631708
H            0.42624738642363       -0.84707946106386        3.03981862150083
H            0.96855475433024       -2.30474968459937        2.18462935745818
H           -4.52582124222111        1.33381421583815       -1.71451608633331
H           -4.68624930295883        3.66964575061150        0.24355071839300
H           -5.56266171424777        2.14110475943543        0.39065272521347
H           -5.90739887751948        3.23043940866061       -0.94956836302380
H           -2.85506467021342        3.88809841606611       -1.64253325648261
H           -2.86679667791205        2.66859878411599       -2.92379598741576
H           -4.27581023316085        3.68827938353306       -2.67121716458518
H           -1.31413608400424        4.08189713559438        1.32202258629374

          :  Hamiltonian                  GFN2-xTB          :
         :: total energy             -99.292600792327 Eh    ::
         :: gradient norm              0.003118803743 Eh/a0 ::
         :: HOMO-LUMO gap              0.997773661986 eV    ::
         :: SCC energy              -100.647282815032 Eh    ::
         :: -> dispersion             -0.072455174823 Eh    ::
         :: repulsion energy           1.351324197435 Eh    ::

    * Orbital Energies and Occupations

         #    Occupation            Energy/Eh            Energy/eV
      -------------------------------------------------------------
         1        2.0000           -0.8238334             -22.4176
       ...           ...                  ...                  ...
        78        1.9973           -0.5312905             -14.4572
        79        1.9968           -0.5282502             -14.3744
        80        1.9964           -0.5266937             -14.3321
        81        1.9944           -0.5194172             -14.1341
        82        1.9934           -0.5169902             -14.0680
        83        1.9909           -0.5118730             -13.9288
        84        1.9902           -0.5106480             -13.8954
        85        1.9630           -0.4893732             -13.3165
        86        1.9412           -0.4818519             -13.1119
        87        1.8688           -0.4685378             -12.7496
        88        1.8532           -0.4666214             -12.6974
        89        1.8171           -0.4628282             -12.5942
        90        1.7293           -0.4558350             -12.4039 (HOMO)
        91        0.7733           -0.4191675             -11.4061 (LUMO)
        92        0.1085           -0.3812141             -10.3734
        93        0.0015           -0.3129486              -8.5158
        94        0.0014           -0.3109354              -8.4610
        95        0.0011           -0.3079990              -8.3811
        96        0.0002           -0.2795743              -7.6076
        97        0.0000           -0.2436723              -6.6307
        98        0.0000           -0.1884224              -5.1272
        99                         -0.1015121              -2.7623
       100                         -0.0857700              -2.3339
       101                         -0.0822228              -2.2374
       ...                                ...                  ...
       171                          0.7006631              19.0660
      -------------------------------------------------------------
                  HL-Gap            0.0366675 Eh            0.9978 eV

     #   Z          covCN         q      C6AA      α(0)
     1   7 N        1.772    -0.308    28.783     7.944
     2   6 C        3.233     0.124    24.508     8.035
     3   6 C        4.173     0.004    20.425     6.419
     4   6 C        3.304     0.019    25.764     8.119
     5   6 C        2.888    -0.084    30.113     8.997
     6   6 C        2.830     0.143    24.885     8.174
     7   8 O        1.711    -0.209    17.467     5.643
     8   6 C        3.636     0.022    20.586     6.528
     9   6 C        2.844     0.150    24.748     8.153
    10   8 O        1.706    -0.227    17.760     5.690
    11   6 C        3.650     0.025    20.469     6.499
    12   6 C        2.839    -0.140    31.567     9.208
    13   6 C        3.158    -0.077    29.586     8.893
    14   6 C        3.803    -0.067    21.781     6.644
    15   6 C        2.889    -0.041    29.017     8.831
    16   6 C        3.752     0.000    20.639     6.479
    17   7 N        2.730    -0.112    23.435     7.190
    18   6 C        3.750    -0.001    20.663     6.483
    19   6 C        3.809    -0.073    21.897     6.661
    20   6 C        2.967     0.011    27.774     8.645
    21   6 C        2.922    -0.043    29.079     8.843
    22   6 C        2.913    -0.065    29.615     8.924
    23   6 C        2.864     0.136    25.031     8.201
    24   8 O        1.706    -0.214    17.549     5.656
    25   6 C        3.645     0.023    20.524     6.511
    26   6 C        2.862     0.136    25.021     8.199
    27   8 O        1.706    -0.216    17.591     5.663
    28   6 C        3.645     0.024    20.500     6.507
    29   6 C        2.919    -0.076    29.889     8.965
    30   6 C        3.701    -0.050    21.628     6.650
    31   6 C        3.851    -0.008    20.680     6.468
    32   6 C        3.756    -0.108    22.611     6.780
    33   6 C        3.756    -0.120    22.849     6.815
    34   1 H        0.925     0.061     2.183     2.311
    35   1 H        0.924     0.058     2.219     2.330
    36   1 H        0.925     0.088     1.897     2.154
    37   1 H        0.924     0.061     2.186     2.312
    38   1 H        0.924     0.058     2.218     2.329
    39   1 H        0.925     0.081     1.969     2.194
    40   1 H        0.924     0.054     2.269     2.356
    41   1 H        0.926     0.064     2.151     2.293
    42   1 H        0.926     0.042     2.428     2.437
    43   1 H        0.925     0.068     2.112     2.273
    44   1 H        0.924     0.089     1.892     2.151
    45   1 H        0.926     0.053     2.281     2.362
    46   1 H        0.926     0.060     2.202     2.320
    47   1 H        0.921     0.070     2.090     2.261
    48   1 H        0.924     0.078     1.998     2.210
    49   1 H        0.924     0.056     2.242     2.341
    50   1 H        0.923     0.038     2.472     2.459
    51   1 H        0.924     0.055     2.264     2.353
    52   1 H        0.924     0.061     2.184     2.311
    53   1 H        0.926     0.052     2.295     2.369
    54   1 H        0.926     0.062     2.179     2.309
    55   1 H        0.924     0.059     2.216     2.328
    56   1 H        0.924     0.059     2.206     2.323
    57   1 H        0.925     0.085     1.928     2.171
    58   1 H        0.925     0.084     1.934     2.175
    59   1 H        0.924     0.055     2.261     2.352
    60   1 H        0.924     0.057     2.234     2.338
    61   1 H        0.926     0.056     2.250     2.346
    62   1 H        0.925     0.057     2.236     2.338
    63   1 H        0.923     0.041     2.438     2.442
    64   1 H        0.925     0.063     2.165     2.301
    65   1 H        0.924     0.037     2.484     2.465
    66   1 H        0.925     0.046     2.366     2.405
    67   1 H        0.925     0.035     2.520     2.483
    68   1 H        0.925     0.054     2.272     2.357
    69   1 H        0.925     0.067     2.114     2.274
    70   1 H        0.925     0.042     2.421     2.433
    71   1 H        0.925     0.055     2.261     2.352
    72   1 H        0.860     0.158     1.347     1.818

Wiberg/Mayer (AO) data.
largest (>0.10) Wiberg bond orders for each atom

     #   Z sym  total        # sym  WBO       # sym  WBO       # sym  WBO
 ---------------------------------------------------------------------------
     1   7 N    2.890 --     2 C    1.786    72 H    0.933
     2   6 C    3.926 --     1 N    1.786    13 C    1.109     3 C    0.940
     3   6 C    3.893 --     4 C    0.967    31 C    0.958     2 C    0.940
                            14 C    0.895
     4   6 C    3.903 --    13 C    1.504     5 C    1.261     3 C    0.967
     5   6 C    3.915 --     6 C    1.511     4 C    1.261    34 H    0.942
     6   6 C    3.814 --     5 C    1.511     7 O    1.143     9 C    0.984
     7   8 O    2.297 --     6 C    1.143     8 C    0.972
     8   6 C    3.926 --    36 H    0.973     7 O    0.972    37 H    0.971
                            35 H    0.968
     9   6 C    3.918 --    12 C    1.746    10 O    1.107     6 C    0.984
    10   8 O    2.265 --     9 C    1.107    11 C    0.972    12 C    0.129
    11   6 C    3.927 --    39 H    0.977    38 H    0.973    40 H    0.973
                            10 O    0.972
    12   6 C    3.897 --     9 C    1.746    45 H    0.972    41 H    0.968
                            10 O    0.129
    13   6 C    3.829 --     4 C    1.504     2 C    1.109    42 H    0.965
    14   6 C    3.973 --    15 C    1.112    43 H    0.960    44 H    0.932
                             3 C    0.895
    15   6 C    3.262 --    14 C    1.112    16 C    1.080    46 H    0.966
    16   6 C    3.965 --    15 C    1.080    17 N    1.007    48 H    0.932
                            47 H    0.887
    17   7 N    3.105 --    30 C    1.017    16 C    1.007    18 C    1.007
    18   6 C    3.962 --    17 N    1.007    49 H    0.971    19 C    0.970
                            50 H    0.958
    19   6 C    3.976 --    20 C    1.015    18 C    0.970    52 H    0.969
                            51 H    0.968
    20   6 C    3.923 --    21 C    1.389    29 C    1.385    19 C    1.015
    21   6 C    3.925 --    22 C    1.426    20 C    1.389    53 H    0.967
    22   6 C    3.947 --    21 C    1.426    23 C    1.372    54 H    0.962
    23   6 C    3.869 --    22 C    1.372    26 C    1.207    24 O    1.119
    24   8 O    2.247 --    23 C    1.119    25 C    0.975
    25   6 C    3.924 --    57 H    0.976    24 O    0.975    56 H    0.971
                            55 H    0.971
    26   6 C    3.877 --    29 C    1.386    23 C    1.207    27 O    1.114
    27   8 O    2.249 --    26 C    1.114    28 C    0.976
    28   6 C    3.926 --    58 H    0.976    27 O    0.976    59 H    0.972
                            60 H    0.971
    29   6 C    3.948 --    26 C    1.386    20 C    1.385    61 H    0.961
    30   6 C    3.966 --    17 N    1.017    62 H    0.978    64 H    0.977
                            63 H    0.963
    31   6 C    3.973 --    33 C    1.006    32 C    1.002     3 C    0.958
                            65 H    0.957
    32   6 C    3.981 --    31 C    1.002    66 H    0.983    67 H    0.982
                            68 H    0.982
    33   6 C    3.978 --    31 C    1.006    70 H    0.981    71 H    0.979
                            69 H    0.976
    34   1 H    0.993 --     5 C    0.942
    35   1 H    0.991 --     8 C    0.968
    36   1 H    0.991 --     8 C    0.973
    37   1 H    0.992 --     8 C    0.971
    38   1 H    0.993 --    11 C    0.973
    39   1 H    0.992 --    11 C    0.977
    40   1 H    0.993 --    11 C    0.973
    41   1 H    0.994 --    12 C    0.968
    42   1 H    0.992 --    13 C    0.965
    43   1 H    0.989 --    14 C    0.960
    44   1 H    0.963 --    14 C    0.932
    45   1 H    0.997 --    12 C    0.972
    46   1 H    0.995 --    15 C    0.966
    47   1 H    0.935 --    16 C    0.887
    48   1 H    0.966 --    16 C    0.932
    49   1 H    0.995 --    18 C    0.971
    50   1 H    0.981 --    18 C    0.958
    51   1 H    0.995 --    19 C    0.968
    52   1 H    0.993 --    19 C    0.969
    53   1 H    0.996 --    21 C    0.967
    54   1 H    0.994 --    22 C    0.962
    55   1 H    0.989 --    25 C    0.971
    56   1 H    0.989 --    25 C    0.971
    57   1 H    0.992 --    25 C    0.976
    58   1 H    0.992 --    28 C    0.976
    59   1 H    0.990 --    28 C    0.972
    60   1 H    0.990 --    28 C    0.971
    61   1 H    0.995 --    29 C    0.961
    62   1 H    0.994 --    30 C    0.978
    63   1 H    0.976 --    30 C    0.963
    64   1 H    0.992 --    30 C    0.977
    65   1 H    0.990 --    31 C    0.957
    66   1 H    0.995 --    32 C    0.983
    67   1 H    0.997 --    32 C    0.982
    68   1 H    0.994 --    32 C    0.982
    69   1 H    0.991 --    33 C    0.976
    70   1 H    0.995 --    33 C    0.981
    71   1 H    0.993 --    33 C    0.979
    72   1 H    0.964 --     1 N    0.933
 ---------------------------------------------------------------------------

molecular dipole:
                 x           y           z       tot (Debye)
 q only:        0.322      -0.581       0.169
   full:        0.143      -0.575       0.771       2.472

           -------------------------------------------------
          | TOTAL ENERGY              -99.292600792327 Eh   |
          | GRADIENT NORM               0.003118803743 Eh/α |
          | HOMO-LUMO GAP               0.997773661986 eV   |
           -------------------------------------------------

 * finished run on 2024/04/06 at 11:13:08.670
