   * xtb version 6.6.1 (8d0f1dd) compiled by 'conda@1efc2f54142f' on 2023-08-01
          program call               : xtb xtbopt.xyz --opt crude --input .xc2 --gfn2

   ID    Z sym.   atoms
    1    7 N      1, 17
    2    6 C      2-6, 8, 9, 11-16, 18-23, 25, 26, 28-33
    3    8 O      7, 10, 24, 27
    4    1 H      34-72
########################################################################
[WARNING] Please study the warnings concerning your input carefully
-1- readin_getIntValue: could not parse ''
########################################################################

          :  Hamiltonian                  GFN2-xTB          :
 * total energy  :   -99.2947291 Eh     change       -0.2549427E-10 Eh
 * total energy  :   -99.2976602 Eh     change       -0.2931106E-02 Eh
 * total energy  :   -99.2992619 Eh     change       -0.1601743E-02 Eh
 * total energy  :   -99.2998992 Eh     change       -0.6372558E-03 Eh
 * total energy  :   -99.3003586 Eh     change       -0.4594168E-03 Eh
   *** GEOMETRY OPTIMIZATION CONVERGED AFTER 5 ITERATIONS ***

 final structure:
================
72
 xtb: 6.6.1 (8d0f1dd)
N           -1.68400318222540        3.49719695373405        0.48073499295280
C           -2.35332144213150        2.44955018564732        0.67163015585350
C           -2.98797229145087        1.48739095354719       -0.34128214346027
C           -3.47023473051086        0.73424881258281        0.90758401162045
C           -4.32768231970757       -0.32136974059179        1.27959108258272
C           -5.12892698542391       -1.14711641432767        0.54768871960591
O           -6.05802970812894       -1.95033616154553        1.08787663379524
C           -6.38169620101542       -1.86282901643145        2.45771249862866
C           -5.14166613550359       -1.33555015581224       -0.92436094691825
O           -6.40172970126418       -1.21211763040257       -1.40221958147528
C           -6.69825790939672       -1.71663720869746       -2.68466021686772
C           -4.06623403639066       -1.72651472873598       -1.61310498387033
C           -2.85103693741051        1.62556083441567        1.75115935387142
C           -1.90129577259196        0.76877064146595       -1.19726746349471
C           -1.02061687260447       -0.10672259867495       -0.41842152382825
C            0.02654360581687        0.42046821675535        0.47855104780892
N            0.90631187232685       -0.61205826786404        0.97412062965722
C            2.30672009048750       -0.26708158708408        1.04411313595005
C            2.96330763343251       -0.38857469096252       -0.34421271883569
C            4.42324438151796       -0.05198305265718       -0.27674143599893
C            4.86138532854831        1.25094982929806       -0.47487891780327
C            6.20735709965500        1.56968547799938       -0.40226506969378
C            7.15162807020660        0.58944791497817       -0.12404443663214
O            8.47885205287145        0.77914755971712       -0.03943485792947
C            9.01027716545942        2.06458147325067       -0.26576794713294
C            6.71261987528736       -0.74916713130539        0.09219234313268
O            7.68994141549560       -1.63442125013712        0.35616579557442
C            7.36147999204026       -2.98772779541397        0.56634697403915
C            5.35857983727832       -1.04115497732098        0.01396237748518
C            0.38263181479454       -1.36853365349375        2.08278307211283
C           -4.07806016895406        2.11999980467383       -1.21753934163315
C           -5.12864210857945        2.81146122617716       -0.34764621642831
C           -3.47774824272219        3.13032411341587       -2.19291338488664
H           -4.41648444445671       -0.39794194469201        2.35758023233185
H           -5.56007441117736       -2.21591998026797        3.08772244309720
H           -7.24349779495690       -2.51303270397504        2.59457858866687
H           -6.64726187944550       -0.83935501170132        2.73675522277017
H           -6.42276699943083       -2.77275775197628       -2.76107661265779
H           -7.77558359676553       -1.61150156601093       -2.79688039965426
H           -6.19288249727129       -1.14955989433015       -3.47071409577786
H           -4.10480308396681       -1.94805075535174       -2.66597833542445
H           -2.79674820362633        1.71747819623010        2.82150674263263
H           -2.40648692734687        0.19980398720669       -1.97783238130534
H           -1.32031212018588        1.57956721068647       -1.64680279848090
H           -3.12695999709947       -1.86670063764560       -1.11416879035833
H           -1.14778830325176       -1.17502274493904       -0.45197893705616
H           -0.46550378359856        0.94761789648021        1.32578042877944
H            0.60791741063168        1.19261668070126       -0.03888066346182
H            2.80266442474661       -0.95701899654253        1.72870153269447
H            2.45746924521527        0.75283930349403        1.42794333613495
H            2.46175437078692        0.28361382779326       -1.04115030743929
H            2.82486441185391       -1.41052214185567       -0.69816114614646
H            4.14866511937490        2.02947720647762       -0.70037323199780
H            6.51598410758037        2.58866392153214       -0.56957795127965
H            8.63985174995767        2.78599294568630        0.46865032385574
H            8.78114327175095        2.41956799968362       -1.27494622405505
H           10.08783877232499        1.95858269466196       -0.15593695458745
H            8.30834971557239       -3.49373539599656        0.74466819747278
H            6.71449071993624       -3.11154178388669        1.44025876123399
H            6.87739107145206       -3.42351166199205       -0.31284298950202
H            5.01573301125225       -2.05221593319579        0.16742420670714
H           -0.65357337676536       -1.63385256950095        1.88100419338791
H            0.41876035547466       -0.80898473921350        3.02861099492731
H            0.95917072831338       -2.28466532922666        2.20127434241003
H           -4.56989797300063        1.31598256072233       -1.77763896934123
H           -4.67919963414483        3.63037347424870        0.20994523815019
H           -5.57931489333657        2.11561614247203        0.35610447204716
H           -5.91701192497209        3.21906487964882       -0.97468868463636
H           -2.85741935394756        3.84142095884540       -1.65200559699936
H           -2.87426174774673        2.64468832605461       -2.95497465265116
H           -4.27258598056982        3.67730435574041       -2.69337085514156
H           -1.36883945141301        4.01087056036103        1.29728452543449

          :  Hamiltonian                  GFN2-xTB          :
         :: total energy             -99.300358581453 Eh    ::
         :: gradient norm              0.006215890969 Eh/a0 ::
         :: HOMO-LUMO gap              0.992908788218 eV    ::
         :: SCC energy              -100.664100015095 Eh    ::
         :: -> dispersion             -0.073258744659 Eh    ::
         :: repulsion energy           1.362488802433 Eh    ::

    * Orbital Energies and Occupations

         #    Occupation            Energy/Eh            Energy/eV
      -------------------------------------------------------------
         1        2.0000           -0.8242926             -22.4301
       ...           ...                  ...                  ...
        78        1.9973           -0.5316020             -14.4656
        79        1.9968           -0.5287802             -14.3888
        80        1.9965           -0.5276053             -14.3569
        81        1.9943           -0.5197390             -14.1428
        82        1.9938           -0.5182567             -14.1025
        83        1.9914           -0.5130294             -13.9602
        84        1.9911           -0.5125528             -13.9473
        85        1.9628           -0.4897090             -13.3257
        86        1.9448           -0.4832937             -13.1511
        87        1.8723           -0.4694131             -12.7734
        88        1.8525           -0.4669687             -12.7069
        89        1.8200           -0.4635296             -12.6133
        90        1.7288           -0.4562299             -12.4146 (HOMO)
        91        0.7778           -0.4197412             -11.4217 (LUMO)
        92        0.0937           -0.3791953             -10.3184
        93        0.0015           -0.3132671              -8.5244
        94        0.0013           -0.3112928              -8.4707
        95        0.0012           -0.3099562              -8.4343
        96        0.0002           -0.2791434              -7.5959
        97        0.0000           -0.2396293              -6.5206
        98        0.0000           -0.1887778              -5.1369
        99                         -0.1027692              -2.7965
       100                         -0.0951199              -2.5883
       101                         -0.0684220              -1.8619
       ...                                ...                  ...
       171                          0.7126943              19.3934
      -------------------------------------------------------------
                  HL-Gap            0.0364887 Eh            0.9929 eV

     #   Z          covCN         q      C6AA      α(0)
     1   7 N        1.772    -0.307    28.762     7.941
     2   6 C        3.234     0.124    24.509     8.035
     3   6 C        4.192     0.006    20.392     6.413
     4   6 C        3.305     0.019    25.739     8.112
     5   6 C        2.893    -0.086    30.140     9.001
     6   6 C        2.840     0.148    24.780     8.158
     7   8 O        1.708    -0.208    17.466     5.643
     8   6 C        3.641     0.021    20.569     6.521
     9   6 C        2.839     0.146    24.827     8.166
    10   8 O        1.706    -0.236    17.903     5.713
    11   6 C        3.644     0.026    20.471     6.503
    12   6 C        2.839    -0.135    31.457     9.192
    13   6 C        3.180    -0.077    29.450     8.859
    14   6 C        3.803    -0.067    21.789     6.646
    15   6 C        2.889    -0.042    29.031     8.834
    16   6 C        3.752     0.000    20.639     6.479
    17   7 N        2.730    -0.112    23.454     7.193
    18   6 C        3.750    -0.001    20.661     6.483
    19   6 C        3.809    -0.073    21.897     6.661
    20   6 C        2.967     0.011    27.773     8.644
    21   6 C        2.922    -0.043    29.077     8.843
    22   6 C        2.912    -0.065    29.615     8.924
    23   6 C        2.864     0.136    25.029     8.201
    24   8 O        1.706    -0.213    17.544     5.655
    25   6 C        3.645     0.023    20.525     6.511
    26   6 C        2.862     0.136    25.019     8.199
    27   8 O        1.706    -0.216    17.587     5.662
    28   6 C        3.645     0.024    20.502     6.508
    29   6 C        2.919    -0.076    29.889     8.965
    30   6 C        3.700    -0.050    21.627     6.650
    31   6 C        3.851    -0.008    20.678     6.468
    32   6 C        3.756    -0.107    22.608     6.779
    33   6 C        3.756    -0.120    22.856     6.816
    34   1 H        0.925     0.061     2.186     2.312
    35   1 H        0.924     0.059     2.215     2.328
    36   1 H        0.925     0.088     1.900     2.156
    37   1 H        0.924     0.061     2.182     2.310
    38   1 H        0.924     0.057     2.239     2.340
    39   1 H        0.925     0.081     1.972     2.196
    40   1 H        0.924     0.053     2.282     2.363
    41   1 H        0.926     0.064     2.152     2.294
    42   1 H        0.926     0.040     2.453     2.449
    43   1 H        0.925     0.069     2.096     2.264
    44   1 H        0.924     0.088     1.896     2.153
    45   1 H        0.926     0.055     2.262     2.352
    46   1 H        0.926     0.060     2.198     2.318
    47   1 H        0.921     0.069     2.092     2.262
    48   1 H        0.924     0.078     1.996     2.210
    49   1 H        0.924     0.056     2.241     2.341
    50   1 H        0.923     0.038     2.476     2.461
    51   1 H        0.924     0.054     2.265     2.354
    52   1 H        0.924     0.061     2.182     2.310
    53   1 H        0.926     0.052     2.294     2.369
    54   1 H        0.926     0.062     2.178     2.308
    55   1 H        0.924     0.059     2.215     2.327
    56   1 H        0.924     0.059     2.205     2.322
    57   1 H        0.925     0.085     1.927     2.171
    58   1 H        0.925     0.085     1.932     2.174
    59   1 H        0.924     0.055     2.259     2.351
    60   1 H        0.924     0.057     2.232     2.337
    61   1 H        0.926     0.056     2.248     2.345
    62   1 H        0.925     0.057     2.239     2.340
    63   1 H        0.923     0.041     2.441     2.443
    64   1 H        0.925     0.063     2.166     2.301
    65   1 H        0.924     0.039     2.468     2.457
    66   1 H        0.925     0.046     2.367     2.406
    67   1 H        0.925     0.035     2.518     2.482
    68   1 H        0.925     0.054     2.265     2.354
    69   1 H        0.925     0.068     2.108     2.270
    70   1 H        0.925     0.042     2.419     2.432
    71   1 H        0.925     0.055     2.256     2.349
    72   1 H        0.860     0.159     1.342     1.815

Wiberg/Mayer (AO) data.
largest (>0.10) Wiberg bond orders for each atom

     #   Z sym  total        # sym  WBO       # sym  WBO       # sym  WBO
 ---------------------------------------------------------------------------
     1   7 N    2.896 --     2 C    1.793    72 H    0.932
     2   6 C    3.924 --     1 N    1.793    13 C    1.101     3 C    0.938
     3   6 C    3.892 --     4 C    0.961    31 C    0.959     2 C    0.938
                            14 C    0.897
     4   6 C    3.912 --    13 C    1.530     5 C    1.248     3 C    0.961
     5   6 C    3.919 --     6 C    1.523     4 C    1.248    34 H    0.946
     6   6 C    3.835 --     5 C    1.523     7 O    1.142     9 C    0.999
     7   8 O    2.296 --     6 C    1.142     8 C    0.970
     8   6 C    3.925 --    36 H    0.975    37 H    0.972    35 H    0.970
                             7 O    0.970
     9   6 C    3.919 --    12 C    1.745    10 O    1.093     6 C    0.999
    10   8 O    2.250 --     9 C    1.093    11 C    0.974    12 C    0.122
    11   6 C    3.928 --    39 H    0.976    10 O    0.974    38 H    0.974
                            40 H    0.973
    12   6 C    3.900 --     9 C    1.745    45 H    0.970    41 H    0.969
                            10 O    0.122
    13   6 C    3.841 --     4 C    1.530     2 C    1.101    42 H    0.964
    14   6 C    3.973 --    15 C    1.110    43 H    0.956    44 H    0.935
                             3 C    0.897
    15   6 C    3.257 --    14 C    1.110    16 C    1.079    46 H    0.965
    16   6 C    3.965 --    15 C    1.079    17 N    1.007    48 H    0.932
                            47 H    0.889
    17   7 N    3.103 --    30 C    1.016    16 C    1.007    18 C    1.006
    18   6 C    3.962 --    17 N    1.006    49 H    0.971    19 C    0.971
                            50 H    0.958
    19   6 C    3.977 --    20 C    1.015    18 C    0.971    52 H    0.969
                            51 H    0.968
    20   6 C    3.923 --    21 C    1.389    29 C    1.385    19 C    1.015
    21   6 C    3.925 --    22 C    1.426    20 C    1.389    53 H    0.967
    22   6 C    3.947 --    21 C    1.426    23 C    1.372    54 H    0.962
    23   6 C    3.869 --    22 C    1.372    26 C    1.206    24 O    1.119
    24   8 O    2.247 --    23 C    1.119    25 C    0.974
    25   6 C    3.923 --    57 H    0.976    24 O    0.974    56 H    0.971
                            55 H    0.971
    26   6 C    3.876 --    29 C    1.386    23 C    1.206    27 O    1.114
    27   8 O    2.249 --    26 C    1.114    28 C    0.976
    28   6 C    3.926 --    58 H    0.976    27 O    0.976    59 H    0.972
                            60 H    0.971
    29   6 C    3.948 --    26 C    1.386    20 C    1.385    61 H    0.961
    30   6 C    3.966 --    17 N    1.016    62 H    0.978    64 H    0.977
                            63 H    0.963
    31   6 C    3.973 --    33 C    1.006    32 C    1.001     3 C    0.959
                            65 H    0.957
    32   6 C    3.981 --    31 C    1.001    66 H    0.982    67 H    0.982
                            68 H    0.982
    33   6 C    3.977 --    31 C    1.006    70 H    0.981    71 H    0.979
                            69 H    0.975
    34   1 H    0.993 --     5 C    0.946
    35   1 H    0.992 --     8 C    0.970
    36   1 H    0.991 --     8 C    0.975
    37   1 H    0.992 --     8 C    0.972
    38   1 H    0.993 --    11 C    0.974
    39   1 H    0.992 --    11 C    0.976
    40   1 H    0.993 --    11 C    0.973
    41   1 H    0.994 --    12 C    0.969
    42   1 H    0.992 --    13 C    0.964
    43   1 H    0.987 --    14 C    0.956
    44   1 H    0.966 --    14 C    0.935
    45   1 H    0.997 --    12 C    0.970
    46   1 H    0.995 --    15 C    0.965
    47   1 H    0.935 --    16 C    0.889
    48   1 H    0.966 --    16 C    0.932
    49   1 H    0.995 --    18 C    0.971
    50   1 H    0.980 --    18 C    0.958
    51   1 H    0.995 --    19 C    0.968
    52   1 H    0.993 --    19 C    0.969
    53   1 H    0.996 --    21 C    0.967
    54   1 H    0.994 --    22 C    0.962
    55   1 H    0.989 --    25 C    0.971
    56   1 H    0.989 --    25 C    0.971
    57   1 H    0.992 --    25 C    0.976
    58   1 H    0.992 --    28 C    0.976
    59   1 H    0.990 --    28 C    0.972
    60   1 H    0.990 --    28 C    0.971
    61   1 H    0.995 --    29 C    0.961
    62   1 H    0.994 --    30 C    0.978
    63   1 H    0.976 --    30 C    0.963
    64   1 H    0.992 --    30 C    0.977
    65   1 H    0.990 --    31 C    0.957
    66   1 H    0.995 --    32 C    0.982
    67   1 H    0.997 --    32 C    0.982
    68   1 H    0.993 --    32 C    0.982
    69   1 H    0.991 --    33 C    0.975
    70   1 H    0.995 --    33 C    0.981
    71   1 H    0.993 --    33 C    0.979
    72   1 H    0.964 --     1 N    0.932
 ---------------------------------------------------------------------------

molecular dipole:
                 x           y           z       tot (Debye)
 q only:        0.422      -0.558       0.211
   full:        0.243      -0.549       0.802       2.546

           -------------------------------------------------
          | TOTAL ENERGY              -99.300358581453 Eh   |
          | GRADIENT NORM               0.006215890969 Eh/α |
          | HOMO-LUMO GAP               0.992908788218 eV   |
           -------------------------------------------------

 * finished run on 2024/04/06 at 11:13:09.770
