   * xtb version 6.6.1 (8d0f1dd) compiled by 'conda@1efc2f54142f' on 2023-08-01
          program call               : xtb struc.xyz --opt loose --input .xc1 --gfn2

   ID    Z sym.   atoms
    1    6 C      1, 3, 5-7, 10, 11, 14
    2    7 N      2, 4, 9, 13
    3    8 O      8, 12
    4    1 H      15-25
constraining bond 6 17 to    3.7133300 Å, actual value:    2.5833586 Å

          :  Hamiltonian                  GFN2-xTB          :
 * total energy  :   -44.5276889 Eh     change       -0.6650680E-10 Eh
 * total energy  :   -48.3493095 Eh     change       -0.3821621E+01 Eh
 * total energy  :   -53.9883895 Eh     change       -0.5639080E+01 Eh
 * total energy  :   -59.2935197 Eh     change       -0.5305130E+01 Eh
 * total energy  :   -58.6506761 Eh     change        0.6428437E+00 Eh
 * total energy  :   -59.3940825 Eh     change       -0.7434064E+00 Eh
 * total energy  :   -59.4248736 Eh     change       -0.3079116E-01 Eh
 * total energy  :   -59.4866330 Eh     change       -0.6175939E-01 Eh
 * total energy  :   -59.4997175 Eh     change       -0.1308450E-01 Eh
 * total energy  :   -59.5299205 Eh     change       -0.3020301E-01 Eh
 * total energy  :   -59.7505756 Eh     change       -0.5510301E-03 Eh
 * total energy  :   -59.7511796 Eh     change       -0.6040080E-03 Eh
 * total energy  :   -59.7513848 Eh     change       -0.2051903E-03 Eh
 * total energy  :   -59.7515546 Eh     change       -0.1698340E-03 Eh
 * total energy  :   -59.7516508 Eh     change       -0.9613598E-04 Eh
 * total energy  :   -59.7517053 Eh     change       -0.5454190E-04 Eh
 * total energy  :   -59.7517499 Eh     change       -0.4462188E-04 Eh
 * total energy  :   -59.7517827 Eh     change       -0.3281239E-04 Eh
 * total energy  :   -59.7518082 Eh     change       -0.2549043E-04 Eh
   *** GEOMETRY OPTIMIZATION CONVERGED AFTER 61 ITERATIONS ***

 final structure:
================
25
 xtb: 6.6.1 (8d0f1dd)
C            3.29999846950007        1.07542083353340       -0.20944630176484
N            2.42487103745972        0.10420827289410       -0.13096104998057
C            2.55201881252529       -1.12046252529226        0.42258942240341
N            1.36823129499813       -1.79557388229608        0.35058030123758
C            0.44081006820457       -1.06644283629112       -0.28450347829986
C            1.06015889390289        0.23872193038276       -0.73770811459650
C            0.21243149711684        1.32158050858989        0.13206499170492
O            0.76253014644308        2.20727752752151        0.71435256709312
N           -1.11776128101186        1.09557967936077        0.01251547996787
C           -2.02991636798349        2.16018420545658        0.43062579591029
C           -1.73645355481127       -0.11399302754894       -0.34108820393361
O           -2.91284091629150       -0.20311558049384       -0.54056364120389
N           -0.89536506613503       -1.23954326204232       -0.33830365545192
C           -1.50357818537813       -2.55772571193858       -0.27665946621078
H            3.02538012519936        2.00091350183839       -0.67615979083363
H            4.27192421356733        0.95193671356686        0.22638865798242
H            1.04581569098240        0.35402046399996       -1.14593043427043
H            3.43677537157181       -1.49633405121405        0.88912783099169
H           -1.48564866738156        3.10071344507786        0.43693840037270
H           -2.85843823779138        2.20257121007281       -0.27333614308991
H           -2.42006858119304        1.95689893848478        1.42744714349876
H           -1.43037522807603       -2.97239910081158        0.73007815789510
H           -1.02427214567426       -3.22353066896486       -0.99245718296027
H           -2.55565760297834       -2.44633930743281       -0.53536942956122
H            1.22986172733467       -2.71632873485295        0.74094976100009

          :  Hamiltonian                  GFN2-xTB          :
         :: total energy             -59.751808233307 Eh    ::
         :: gradient norm              0.003529653161 Eh/a0 ::
         :: HOMO-LUMO gap              1.611103224793 eV    ::
         :: SCC energy               -42.698857067648 Eh    ::
         :: -> dispersion             -0.023137658186 Eh    ::
         :: repulsion energy           2.260688592540 Eh    ::

    * Orbital Energies and Occupations

         #    Occupation            Energy/Eh            Energy/eV
      -------------------------------------------------------------
         1        2.0000           -0.9145381             -24.8858
       ...           ...                  ...                  ...
        25        2.0000           -0.6789497             -18.4752
        26        2.0000           -0.6733403             -18.3225
        27        2.0000           -0.6669431             -18.1484
        28        2.0000           -0.6634442             -18.0532
        29        1.9999           -0.6409000             -17.4398
        30        1.9998           -0.6331341             -17.2285
        31        1.9998           -0.6285328             -17.1032
        32        1.9994           -0.6109120             -16.6238
        33        1.9992           -0.6080083             -16.5447
        34        1.9974           -0.5884176             -16.0117
        35        1.9959           -0.5813450             -15.8192
        36        1.9928           -0.5725127             -15.5789
        37        1.7293           -0.5128421             -13.9551 (HOMO)
        38        0.2637           -0.4536351             -12.3440 (LUMO)
        39        0.0183           -0.4093067             -11.1378
        40        0.0043           -0.3861807             -10.5085
        41        0.0004           -0.3472549              -9.4493
        42        0.0000           -0.2401701              -6.5354
        43                         -0.2013121              -5.4780
        44                         -0.1971394              -5.3644
        45                         -0.1605721              -4.3694
        46                         -0.1336045              -3.6356
        47                         -0.0928597              -2.5268
        48                         -0.0637146              -1.7338
       ...                                ...                  ...
        67                         10.4425773             284.1570
      -------------------------------------------------------------
                  HL-Gap            0.0592070 Eh            1.6111 eV

     #   Z          covCN         q      C6AA      α(0)
     1   6 C        2.787    -0.067    29.658     8.920
     2   7 N        2.780     0.090    19.689     6.590
     3   6 C        2.914     0.000    28.018     8.680
     4   7 N        2.729    -0.050    22.205     6.999
     5   6 C        2.976     0.085    26.105     8.381
     6   6 C        3.837    -0.064    21.704     6.628
     7   6 C        2.757     0.267    22.485     7.765
     8   8 O        0.857    -0.318    20.108     6.012
     9   7 N        2.734    -0.087    22.940     7.114
    10   6 C        3.708    -0.062    21.832     6.679
    11   6 C        2.723     0.315    21.650     7.617
    12   8 O        0.859    -0.337    20.459     6.064
    13   7 N        2.734    -0.064    22.474     7.041
    14   6 C        3.697    -0.072    22.057     6.718
    15   1 H        0.926     0.117     1.636     2.000
    16   1 H        0.926     0.109     1.708     2.044
    17   1 H        0.940     0.190     1.150     1.677
    18   1 H        0.927     0.115     1.651     2.009
    19   1 H        0.925     0.103     1.756     2.072
    20   1 H        0.925     0.112     1.683     2.029
    21   1 H        0.925     0.093     1.850     2.127
    22   1 H        0.924     0.082     1.960     2.189
    23   1 H        0.925     0.088     1.903     2.157
    24   1 H        0.925     0.126     1.564     1.956
    25   1 H        0.860     0.229     0.970     1.543

Wiberg/Mayer (AO) data.
largest (>0.10) Wiberg bond orders for each atom

     #   Z sym  total        # sym  WBO       # sym  WBO       # sym  WBO
 ---------------------------------------------------------------------------
     1   6 C    3.672 --     2 N    1.435    15 H    0.965    16 H    0.962
                             3 C    0.163
     2   7 N    3.711 --     1 C    1.435     3 C    1.240     6 C    0.958
     3   6 C    3.708 --     2 N    1.240     4 N    1.193    18 H    0.954
                             1 C    0.163     5 C    0.103
     4   7 N    3.559 --     5 C    1.281     3 C    1.193    25 H    0.916
     5   6 C    3.766 --     4 N    1.281    13 N    1.208     6 C    1.011
                             3 C    0.103
     6   6 C    3.920 --     5 C    1.011     2 N    0.958    17 H    0.923
                             7 C    0.797
     7   6 C    3.907 --     8 O    1.779     9 N    1.207     6 C    0.797
     8   8 O    2.136 --     7 C    1.779     9 N    0.158
     9   7 N    3.551 --     7 C    1.207    11 C    1.054    10 C    0.951
                             8 O    0.158    12 O    0.109
    10   6 C    3.912 --    19 H    0.974    21 H    0.969    20 H    0.966
                             9 N    0.951
    11   6 C    3.916 --    12 O    1.725     9 N    1.054    13 N    1.047
    12   8 O    2.043 --    11 C    1.725    13 N    0.116     9 N    0.109
    13   7 N    3.509 --     5 C    1.208    11 C    1.047    14 C    0.966
                            12 O    0.116
    14   6 C    3.921 --    23 H    0.974    22 H    0.969    13 N    0.966
                            24 H    0.964
    15   1 H    0.986 --     1 C    0.965
    16   1 H    0.987 --     1 C    0.962
    17   1 H    0.960 --     6 C    0.923
    18   1 H    0.986 --     3 C    0.954
    19   1 H    0.988 --    10 C    0.974
    20   1 H    0.986 --    10 C    0.966
    21   1 H    0.989 --    10 C    0.969
    22   1 H    0.989 --    14 C    0.969
    23   1 H    0.989 --    14 C    0.974
    24   1 H    0.983 --    14 C    0.964
    25   1 H    0.948 --     4 N    0.916
 ---------------------------------------------------------------------------

molecular dipole:
                 x           y           z       tot (Debye)
 q only:        1.896      -1.581      -0.080
   full:        2.152      -1.904      -0.004       7.304

           -------------------------------------------------
          | TOTAL ENERGY              -59.751808233307 Eh   |
          | GRADIENT NORM               0.003529653161 Eh/α |
          | HOMO-LUMO GAP               1.611103224793 eV   |
           -------------------------------------------------

 * finished run on 2024/06/05 at 19:59:12.908
