   * xtb version 6.6.1 (8d0f1dd) compiled by 'conda@1efc2f54142f' on 2023-08-01
          program call               : xtb xtbopt.xyz --opt crude --input .xc2 --gfn2

   ID    Z sym.   atoms
    1    6 C      1, 3, 5-7, 10, 11, 14
    2    7 N      2, 4, 9, 13
    3    8 O      8, 12
    4    1 H      15-25
########################################################################
[WARNING] Please study the warnings concerning your input carefully
-1- readin_getIntValue: could not parse ''
########################################################################

          :  Hamiltonian                  GFN2-xTB          :
 * total energy  :   -42.0743848 Eh     change       -0.5684342E-13 Eh
 * total energy  :   -42.0758791 Eh     change       -0.1494253E-02 Eh
 * total energy  :   -42.0773783 Eh     change       -0.1499265E-02 Eh
 * total energy  :   -42.0780516 Eh     change       -0.6732274E-03 Eh
 * total energy  :   -42.0782960 Eh     change       -0.2444317E-03 Eh
   *** GEOMETRY OPTIMIZATION CONVERGED AFTER 5 ITERATIONS ***

 final structure:
================
25
 xtb: 6.6.1 (8d0f1dd)
C            2.66253679691710        0.84889668107455       -1.07293615730342
N            1.99475336278903       -0.12153783204131       -0.23401196780854
C            2.69671620644000       -1.05609080667398        0.46591057015187
N            2.27956171404674       -1.91047481651911        1.28941911142241
C           -0.17787971888272       -1.10263045118335       -0.18651928202908
C            0.58728189825432        0.00671766078954       -0.08587964688329
C            0.10321297389762        1.29791104841639        0.25244653228649
O            0.68473085057375        2.29102616509935        0.56096697578825
N           -1.43722409492098        1.42630713164731        0.18317268482196
C           -1.95850972214358        2.59772142288208        0.89737765541349
C           -2.11199645901198        0.75871164275252       -0.63132959014846
O           -2.60559776250673        0.05440648126959       -1.40146211484533
N           -0.78427599057773       -2.07668566375378       -0.46088771251965
C           -1.40720500685020       -3.29328384767879       -0.20791391386593
H            2.78361862136048        1.80240548432892       -0.55204364669781
H            3.64387906390956        0.47240675200285       -1.35116380916348
H            2.07811629850297        1.01781894307031       -1.97820393181471
H            3.76207694200018       -1.05249738894680        0.25839647894511
H           -1.40164541707086        2.69547783328354        1.82732819959078
H           -1.80363551527450        3.49662257424728        0.30037076123101
H           -3.01715760514506        2.46451154670623        1.10232297914842
H           -1.45721541887569       -3.52156565163602        0.85925142299002
H           -0.84466302783250       -4.07450425250926       -0.72357291952055
H           -2.41118786492404       -3.26034020292035       -0.63546651110833
H            1.30214038943328       -1.94309191210358        1.55559944981811

          :  Hamiltonian                  GFN2-xTB          :
         :: total energy             -42.078295991141 Eh    ::
         :: gradient norm              0.005665765818 Eh/a0 ::
         :: HOMO-LUMO gap              1.754819794217 eV    ::
         :: SCC energy               -42.690123731058 Eh    ::
         :: -> dispersion             -0.021245275844 Eh    ::
         :: repulsion energy           0.611608752551 Eh    ::

    * Orbital Energies and Occupations

         #    Occupation            Energy/Eh            Energy/eV
      -------------------------------------------------------------
         1        2.0000           -0.9465298             -25.7564
       ...           ...                  ...                  ...
        25        2.0000           -0.6759653             -18.3940
        26        2.0000           -0.6649878             -18.0952
        27        1.9999           -0.6420696             -17.4716
        28        1.9998           -0.6350371             -17.2802
        29        1.9998           -0.6297225             -17.1356
        30        1.9996           -0.6215774             -16.9140
        31        1.9994           -0.6157783             -16.7562
        32        1.9992           -0.6112425             -16.6328
        33        1.9992           -0.6104469             -16.6111
        34        1.9982           -0.5985805             -16.2882
        35        1.9849           -0.5645534             -15.3623
        36        1.8586           -0.5280811             -14.3698
        37        1.8039           -0.5224288             -14.2160 (HOMO)
        38        0.2709           -0.4579404             -12.4612 (LUMO)
        39        0.0603           -0.4323386             -11.7645
        40        0.0223           -0.4162877             -11.3278
        41        0.0035           -0.3869598             -10.5297
        42        0.0005           -0.3547918              -9.6544
        43        0.0000           -0.3056936              -8.3183
        44        0.0000           -0.2453196              -6.6755
        45                         -0.1597126              -4.3460
        46                         -0.1172068              -3.1894
        47                         -0.0910411              -2.4774
        48                         -0.0416172              -1.1325
       ...                                ...                  ...
        67                          1.0053913              27.3581
      -------------------------------------------------------------
                  HL-Gap            0.0644884 Eh            1.7548 eV

     #   Z          covCN         q      C6AA      α(0)
     1   6 C        3.698    -0.069    21.997     6.708
     2   7 N        2.743    -0.026    21.745     6.926
     3   6 C        2.766     0.125    25.240     8.228
     4   7 N        1.774    -0.276    27.978     7.833
     5   6 C        1.910     0.084    28.992     8.696
     6   6 C        2.893    -0.008    28.225     8.710
     7   6 C        2.757     0.262    22.588     7.783
     8   8 O        0.857    -0.296    19.709     5.952
     9   7 N        2.716    -0.043    22.081     6.979
    10   6 C        3.701    -0.061    21.847     6.684
    11   6 C        1.792     0.304    24.352     7.976
    12   8 O        0.856    -0.142    17.152     5.553
    13   7 N        1.821    -0.003    22.007     6.951
    14   6 C        3.685    -0.056    21.796     6.684
    15   1 H        0.924     0.099     1.796     2.096
    16   1 H        0.925     0.090     1.875     2.141
    17   1 H        0.924     0.075     2.034     2.230
    18   1 H        0.925     0.098     1.800     2.098
    19   1 H        0.925     0.122     1.601     1.979
    20   1 H        0.925     0.114     1.663     2.017
    21   1 H        0.925     0.099     1.798     2.097
    22   1 H        0.924     0.103     1.754     2.071
    23   1 H        0.924     0.129     1.541     1.941
    24   1 H        0.924     0.122     1.596     1.976
    25   1 H        0.860     0.156     1.363     1.829

Wiberg/Mayer (AO) data.
largest (>0.10) Wiberg bond orders for each atom

     #   Z sym  total        # sym  WBO       # sym  WBO       # sym  WBO
 ---------------------------------------------------------------------------
     1   6 C    3.933 --     2 N    0.990    17 H    0.973    16 H    0.970
                            15 H    0.955
     2   7 N    3.422 --     3 C    1.188     6 C    1.003     1 C    0.990
                             4 N    0.137
     3   6 C    3.950 --     4 N    1.775     2 N    1.188    18 H    0.928
     4   7 N    2.900 --     3 C    1.775    25 H    0.930     2 N    0.137
     5   6 C    3.881 --    13 N    2.229     6 C    1.376
     6   6 C    3.864 --     5 C    1.376     7 C    1.174     2 N    1.003
                            13 N    0.111     8 O    0.102
     7   6 C    3.862 --     8 O    1.785     6 C    1.174     9 N    0.752
     8   8 O    2.161 --     7 C    1.785     6 C    0.102
     9   7 N    3.571 --    11 C    1.559    10 C    0.922     7 C    0.752
                            12 O    0.220
    10   6 C    3.883 --    21 H    0.975    19 H    0.967    20 H    0.963
                             9 N    0.922
    11   6 C    3.705 --    12 O    2.023     9 N    1.559
    12   8 O    2.341 --    11 C    2.023     9 N    0.220
    13   7 N    3.540 --     5 C    2.229    14 C    1.042     6 C    0.111
    14   6 C    3.928 --    13 N    1.042    22 H    0.947    24 H    0.941
                            23 H    0.931
    15   1 H    0.974 --     1 C    0.955
    16   1 H    0.988 --     1 C    0.970
    17   1 H    0.987 --     1 C    0.973
    18   1 H    0.979 --     3 C    0.928
    19   1 H    0.984 --    10 C    0.967
    20   1 H    0.986 --    10 C    0.963
    21   1 H    0.990 --    10 C    0.975
    22   1 H    0.979 --    14 C    0.947
    23   1 H    0.978 --    14 C    0.931
    24   1 H    0.979 --    14 C    0.941
    25   1 H    0.967 --     4 N    0.930
 ---------------------------------------------------------------------------

molecular dipole:
                 x           y           z       tot (Debye)
 q only:       -1.180      -0.620      -0.281
   full:       -1.482      -0.466      -0.401       4.080

           -------------------------------------------------
          | TOTAL ENERGY              -42.078295991141 Eh   |
          | GRADIENT NORM               0.005665765818 Eh/α |
          | HOMO-LUMO GAP               1.754819794217 eV   |
           -------------------------------------------------

 * finished run on 2024/06/05 at 20:00:11.795
