   * xtb version 6.6.1 (8d0f1dd) compiled by 'conda@1efc2f54142f' on 2023-08-01
          program call               : xtb struc.xyz --opt loose --input .xc1 --gfn2

   ID    Z sym.   atoms
    1    6 C      1, 3, 5-7, 10, 11, 14
    2    7 N      2, 4, 9, 13
    3    8 O      8, 12
    4    1 H      15-25
constraining bond 3 13 to    5.9200000 Å, actual value:    3.5082066 Å

          :  Hamiltonian                  GFN2-xTB          :
 * total energy  :   -31.8740613 Eh     change       -0.2401990E-09 Eh
 * total energy  :   -35.8424137 Eh     change       -0.3968352E+01 Eh
 * total energy  :   -38.6890672 Eh     change       -0.2846654E+01 Eh
 * total energy  :   -40.5927514 Eh     change       -0.1903684E+01 Eh
 * total energy  :   -41.5070453 Eh     change       -0.9142939E+00 Eh
 * total energy  :   -41.6713197 Eh     change       -0.1642743E+00 Eh
 * total energy  :   -41.6981672 Eh     change       -0.2684759E-01 Eh
 * total energy  :   -41.7586928 Eh     change       -0.6052560E-01 Eh
 * total energy  :   -41.7938389 Eh     change       -0.3514608E-01 Eh
 * total energy  :   -41.8238205 Eh     change       -0.2998156E-01 Eh
 * total energy  :   -42.0483588 Eh     change       -0.4205505E-03 Eh
 * total energy  :   -42.0486891 Eh     change       -0.3302557E-03 Eh
 * total energy  :   -42.0489443 Eh     change       -0.2552168E-03 Eh
 * total energy  :   -42.0491666 Eh     change       -0.2223126E-03 Eh
 * total energy  :   -42.0493053 Eh     change       -0.1387006E-03 Eh
 * total energy  :   -42.0493898 Eh     change       -0.8456120E-04 Eh
 * total energy  :   -42.0494721 Eh     change       -0.8221761E-04 Eh
 * total energy  :   -42.0495239 Eh     change       -0.5184771E-04 Eh
 * total energy  :   -42.0495706 Eh     change       -0.4670967E-04 Eh
   *** GEOMETRY OPTIMIZATION CONVERGED AFTER 106 ITERATIONS ***

 final structure:
================
25
 xtb: 6.6.1 (8d0f1dd)
C            2.57872276311923        1.53729875789095        1.05699539173570
N            2.63461606910109        0.25510428067379        0.38013168782652
C            3.60390409334648       -0.53433359394439        0.63742407590873
N            1.41825181518415       -2.01495799830198       -2.04914128401309
C            1.60339667449129       -1.04239476525237       -1.38616866979922
C            1.58233018798690       -0.03968982466006       -0.50826748672141
C            0.46434260874740        0.96977765342774       -0.71462189934676
O            0.71787535240854        2.06711790461998       -1.15976622177438
N           -0.79553863132947        0.53343769443574       -0.43856634584662
C           -1.91804478729411        1.36399431067702       -0.81026781728380
C           -1.02817655089535       -0.63002253493860        0.35112331268314
O           -0.07508774917700       -1.18513953389714        0.89823817509723
N           -2.29557235534514       -0.96467961565917        0.41076414510762
C           -2.82305571516007       -2.02913513098556        1.14728137181090
H            1.66636196392903        1.61126316438226        1.64943731169798
H            3.44245105437023        1.62213199528460        1.71365748055526
H            2.59242944224718        2.34858397440330        0.32767771313164
H            3.73365484548371       -1.51485539603812        0.21063488628304
H           -1.58939499787596        2.08659017879357       -1.55725217366786
H           -2.71180030204048        0.73267193214259       -1.20981281072941
H           -2.30596230490780        1.90074217631291        0.05898687442581
H           -2.11634719648780       -2.42666229488418        1.88921675379957
H           -3.11855680361249       -2.83943805183891        0.46813163029036
H           -3.73229029279108       -1.68378124555906        1.65301696973276
H            1.63192233060173       -2.30538549548347       -2.98768145300373

          :  Hamiltonian                  GFN2-xTB          :
         :: total energy             -42.049570619552 Eh    ::
         :: gradient norm              0.003563038094 Eh/a0 ::
         :: HOMO-LUMO gap              0.211526893235 eV    ::
         :: SCC energy               -42.602415979011 Eh    ::
         :: -> dispersion             -0.021729875312 Eh    ::
         :: repulsion energy           0.552611905167 Eh    ::

    * Orbital Energies and Occupations

         #    Occupation            Energy/Eh            Energy/eV
      -------------------------------------------------------------
         1        2.0000           -0.8869432             -24.1350
       ...           ...                  ...                  ...
        25        1.9970           -0.6629326             -18.0393
        26        1.9953           -0.6526992             -17.7608
        27        1.9917           -0.6389107             -17.3856
        28        1.9891           -0.6324299             -17.2093
        29        1.9881           -0.6304404             -17.1552
        30        1.9856           -0.6257872             -17.0285
        31        1.9825           -0.6211771             -16.9031
        32        1.9494           -0.5955657             -16.2062
        33        1.9034           -0.5796282             -15.7725
        34        1.8846           -0.5751680             -15.6511
        35        1.6938           -0.5494528             -14.9514
        36        1.5761           -0.5400166             -14.6946
        37        1.5070           -0.5353655             -14.5680 (HOMO)
        38        1.3757           -0.5275920             -14.3565 (LUMO)
        39        0.0878           -0.4356448             -11.8545
        40        0.0808           -0.4335877             -11.7985
        41        0.0196           -0.3991736             -10.8621
        42        0.0021           -0.3463585              -9.4249
        43        0.0009           -0.3260430              -8.8721
        44        0.0000           -0.1841308              -5.0105
        45        0.0000           -0.1506761              -4.1001
        46                         -0.1072957              -2.9197
        47                         -0.0796194              -2.1666
        48                         -0.0410150              -1.1161
       ...                                ...                  ...
        67                          0.9215701              25.0772
      -------------------------------------------------------------
                  HL-Gap            0.0077735 Eh            0.2115 eV

     #   Z          covCN         q      C6AA      α(0)
     1   6 C        3.723    -0.085    22.234     6.734
     2   7 N        2.732     0.146    18.766     6.434
     3   6 C        1.890    -0.056    32.633     9.226
     4   7 N        1.772    -0.115    24.238     7.290
     5   6 C        1.911     0.133    27.860     8.524
     6   6 C        2.903     0.022    27.520     8.602
     7   6 C        2.780     0.286    22.164     7.711
     8   8 O        0.858    -0.331    20.353     6.049
     9   7 N        2.746    -0.068    22.549     7.053
    10   6 C        3.700    -0.066    21.934     6.698
    11   6 C        2.705     0.327    21.440     7.579
    12   8 O        0.858    -0.400    21.690     6.244
    13   7 N        1.835    -0.188    25.889     7.540
    14   6 C        3.694    -0.032    21.318     6.606
    15   1 H        0.924     0.105     1.741     2.064
    16   1 H        0.925     0.124     1.585     1.969
    17   1 H        0.924     0.124     1.578     1.964
    18   1 H        0.926     0.115     1.656     2.013
    19   1 H        0.925     0.118     1.626     1.994
    20   1 H        0.925     0.115     1.655     2.012
    21   1 H        0.924     0.108     1.714     2.047
    22   1 H        0.923     0.112     1.676     2.025
    23   1 H        0.924     0.120     1.610     1.984
    24   1 H        0.924     0.123     1.589     1.971
    25   1 H        0.860     0.262     0.838     1.434

Wiberg/Mayer (AO) data.
largest (>0.10) Wiberg bond orders for each atom

     #   Z sym  total        # sym  WBO       # sym  WBO       # sym  WBO
 ---------------------------------------------------------------------------
     1   6 C    3.880 --     2 N    0.970    16 H    0.962    15 H    0.952
                            17 H    0.945
     2   7 N    3.696 --     3 C    1.639     6 C    1.037     1 C    0.970
     3   6 C    2.734 --     2 N    1.639    18 H    0.923
     4   7 N    3.283 --     5 C    2.197    25 H    0.883
     5   6 C    3.797 --     4 N    2.197     6 C    1.474
     6   6 C    3.676 --     5 C    1.474     2 N    1.037     7 C    0.898
     7   6 C    3.903 --     8 O    1.687     9 N    1.196     6 C    0.898
     8   8 O    1.975 --     7 C    1.687     9 N    0.139
     9   7 N    3.447 --     7 C    1.196    11 C    0.990    10 C    0.986
                             8 O    0.139
    10   6 C    3.872 --     9 N    0.986    19 H    0.955    20 H    0.944
                            21 H    0.943
    11   6 C    3.905 --    12 O    1.511    13 N    1.342     9 N    0.990
    12   8 O    1.753 --    11 C    1.511    13 N    0.105
    13   7 N    2.607 --    11 C    1.342    14 C    1.097    12 O    0.105
    14   6 C    3.838 --    13 N    1.097    24 H    0.909    22 H    0.905
                            23 H    0.899
    15   1 H    0.978 --     1 C    0.952
    16   1 H    0.976 --     1 C    0.962
    17   1 H    0.971 --     1 C    0.945
    18   1 H    0.945 --     3 C    0.923
    19   1 H    0.971 --    10 C    0.955
    20   1 H    0.964 --    10 C    0.944
    21   1 H    0.959 --    10 C    0.943
    22   1 H    0.908 --    14 C    0.905
    23   1 H    0.917 --    14 C    0.899
    24   1 H    0.924 --    14 C    0.909
    25   1 H    0.919 --     4 N    0.883
 ---------------------------------------------------------------------------

molecular dipole:
                 x           y           z       tot (Debye)
 q only:        0.560      -0.742      -0.573
   full:        0.499      -0.971      -0.770       3.395

           -------------------------------------------------
          | TOTAL ENERGY              -42.049570619552 Eh   |
          | GRADIENT NORM               0.003563038094 Eh/α |
          | HOMO-LUMO GAP               0.211526893235 eV   |
           -------------------------------------------------

 * finished run on 2024/06/05 at 19:58:46.286
