   * xtb version 6.6.1 (8d0f1dd) compiled by 'conda@1efc2f54142f' on 2023-08-01
          program call               : xtb struc.xyz --opt loose --input .xc1 --gfn2

   ID    Z sym.   atoms
    1    6 C      1, 3, 5-7, 10, 11, 14
    2    7 N      2, 4, 9, 13
    3    8 O      8, 12
    4    1 H      15-25
constraining bond 3 6 to    5.0000000 Å, actual value:    2.1783507 Å

          :  Hamiltonian                  GFN2-xTB          :
 * total energy  :   -28.0441706 Eh     change       -0.2401990E-09 Eh
 * total energy  :   -32.7917651 Eh     change       -0.4747594E+01 Eh
 * total energy  :   -36.0949090 Eh     change       -0.3303144E+01 Eh
 * total energy  :   -38.4206049 Eh     change       -0.2325696E+01 Eh
 * total energy  :   -40.3271026 Eh     change       -0.1906498E+01 Eh
 * total energy  :   -41.2551182 Eh     change       -0.9280156E+00 Eh
 * total energy  :   -41.4784487 Eh     change       -0.2233305E+00 Eh
 * total energy  :   -41.5594426 Eh     change       -0.8099395E-01 Eh
 * total energy  :   -41.6092621 Eh     change       -0.4981950E-01 Eh
 * total energy  :   -41.6594743 Eh     change       -0.5021217E-01 Eh
 * total energy  :   -41.9725963 Eh     change       -0.6051955E-03 Eh
 * total energy  :   -41.9730232 Eh     change       -0.4268707E-03 Eh
 * total energy  :   -41.9732300 Eh     change       -0.2068536E-03 Eh
 * total energy  :   -41.9734674 Eh     change       -0.2373510E-03 Eh
 * total energy  :   -41.9736744 Eh     change       -0.2070704E-03 Eh
 * total energy  :   -41.9738404 Eh     change       -0.1659497E-03 Eh
 * total energy  :   -41.9738940 Eh     change       -0.5360838E-04 Eh
 * total energy  :   -41.9739505 Eh     change       -0.5654033E-04 Eh
 * total energy  :   -41.9739696 Eh     change       -0.1911446E-04 Eh
   *** GEOMETRY OPTIMIZATION CONVERGED AFTER 56 ITERATIONS ***

 final structure:
================
25
 xtb: 6.6.1 (8d0f1dd)
C            3.30239307917105        2.04213750380525        0.00546581376712
N            2.13415751186549        1.29502293135060        0.00635454981095
C            1.90454551782554       -3.91348628964974        0.01322188816327
N            1.35856598125043       -1.28549934670237        0.00967957662554
C            0.20088066729189       -0.76192287906846        0.00478892403629
C           -0.10545844382201        0.66041393386116        0.00082943638971
C            0.88783175773264        1.73910625600724       -0.00022367413637
O            0.54894535768804        2.92926328992597       -0.00700667219926
N           -1.44146191906506        0.80250385685389       -0.00459143199105
C           -2.21008212475812        2.00989541399942       -0.01035476585227
C           -2.05773532223512       -0.46605520862819       -0.00366149451053
O           -3.23893711174238       -0.66947179424721       -0.00666064775044
N           -1.03665680225262       -1.39519385699083        0.00177146433341
C           -1.26548938115268       -2.81333904673211        0.00288064932066
H            3.87677408723697        1.81762218620529        0.91376042523405
H            3.92173760605404        1.73848205331637       -0.84839400353455
H            3.11454966130755        3.12598127669487       -0.04635889313099
H            2.99191688986802       -4.10426717810513        0.01556028296989
H           -1.53597427224564        2.86928941285017       -0.00514668610279
H           -2.84880963785666        2.03729955555624       -0.89769409421942
H           -2.86307839466394        2.03649302674971        0.86657995348185
H           -0.82482189267913       -3.27470533610523        0.89008036768026
H           -0.82371093695728       -3.27619796345777       -0.88300916242485
H           -2.34349136579106       -2.97982083968377        0.00215394115108
H            1.51384100203333       -2.34531241620645        0.01114587078860

          :  Hamiltonian                  GFN2-xTB          :
         :: total energy             -41.973969649071 Eh    ::
         :: gradient norm              0.002600751068 Eh/a0 ::
         :: HOMO-LUMO gap              0.910570480653 eV    ::
         :: SCC energy               -42.450309475952 Eh    ::
         :: -> dispersion             -0.020767540216 Eh    ::
         :: repulsion energy           0.476264172465 Eh    ::

    * Orbital Energies and Occupations

         #    Occupation            Energy/Eh            Energy/eV
      -------------------------------------------------------------
         1        2.0000           -0.9046672             -24.6172
       ...           ...                  ...                  ...
        25        1.9914           -0.6548478             -17.8193
        26        1.9899           -0.6509966             -17.7145
        27        1.9882           -0.6472730             -17.6132
        28        1.9828           -0.6382473             -17.3676
        29        1.9814           -0.6364757             -17.3194
        30        1.9536           -0.6143847             -16.7183
        31        1.9434           -0.6095101             -16.5856
        32        1.8764           -0.5901454             -16.0587
        33        1.8341           -0.5826171             -15.8538
        34        1.8025           -0.5780534             -15.7296
        35        1.6768           -0.5646393             -15.3646
        36        1.5818           -0.5571332             -15.1604
        37        1.4573           -0.5489958             -14.9389 (HOMO)
        38        0.7924           -0.5155329             -14.0284 (LUMO)
        39        0.6121           -0.5060925             -13.7715
        40        0.5407           -0.5019562             -13.6589
        41        0.0102           -0.4002348             -10.8909
        42        0.0019           -0.3604970              -9.8096
        43        0.0002           -0.3117751              -8.4838
        44        0.0000           -0.1925770              -5.2403
        45        0.0000           -0.1546110              -4.2072
        46                         -0.0908684              -2.4727
        47                         -0.0680337              -1.8513
        48                         -0.0424261              -1.1545
       ...                                ...                  ...
        67                          0.5324302              14.4882
      -------------------------------------------------------------
                  HL-Gap            0.0334628 Eh            0.9106 eV

     #   Z          covCN         q      C6AA      α(0)
     1   6 C        3.690    -0.039    21.464     6.630
     2   7 N        1.839    -0.127    24.534     7.340
     3   6 C        0.997    -0.156    41.141    10.781
     4   7 N        1.770    -0.227    26.776     7.662
     5   6 C        2.908     0.159    24.561     8.126
     6   6 C        3.022     0.034    27.205     8.556
     7   6 C        2.757     0.284    22.195     7.715
     8   8 O        0.858    -0.340    20.513     6.072
     9   7 N        2.793     0.013    21.024     6.810
    10   6 C        3.690    -0.074    22.110     6.729
    11   6 C        2.841     0.314    21.674     7.630
    12   8 O        0.857    -0.306    19.888     5.979
    13   7 N        2.799    -0.049    22.181     6.995
    14   6 C        3.689    -0.070    22.038     6.719
    15   1 H        0.924     0.140     1.459     1.889
    16   1 H        0.924     0.140     1.462     1.891
    17   1 H        0.923     0.136     1.490     1.909
    18   1 H        0.923     0.165     1.294     1.779
    19   1 H        0.924     0.146     1.419     1.863
    20   1 H        0.924     0.128     1.547     1.945
    21   1 H        0.924     0.128     1.547     1.945
    22   1 H        0.924     0.118     1.627     1.995
    23   1 H        0.924     0.118     1.628     1.995
    24   1 H        0.924     0.127     1.560     1.953
    25   1 H        0.928     0.236     0.935     1.512

Wiberg/Mayer (AO) data.
largest (>0.10) Wiberg bond orders for each atom

     #   Z sym  total        # sym  WBO       # sym  WBO       # sym  WBO
 ---------------------------------------------------------------------------
     1   6 C    3.815 --     2 N    1.125    16 H    0.889    15 H    0.887
                            17 H    0.885
     2   7 N    2.579 --     7 C    1.300     1 C    1.125
     3   6 C    1.177 --    18 H    0.895    25 H    0.180
     4   7 N    2.606 --     5 C    1.638    25 H    0.731
     5   6 C    3.904 --     4 N    1.638     6 C    1.090    13 N    1.089
     6   6 C    3.581 --     9 N    1.288     5 C    1.090     7 C    1.027
     7   6 C    3.900 --     8 O    1.504     2 N    1.300     6 C    1.027
     8   8 O    1.691 --     7 C    1.504
     9   7 N    3.487 --     6 C    1.288    11 C    1.023    10 C    1.001
    10   6 C    3.839 --     9 N    1.001    21 H    0.930    20 H    0.929
                            19 H    0.929
    11   6 C    3.903 --    12 O    1.692    13 N    1.109     9 N    1.023
    12   8 O    1.943 --    11 C    1.692    13 N    0.113
    13   7 N    3.440 --    11 C    1.109     5 C    1.089    14 C    0.994
                            12 O    0.113
    14   6 C    3.863 --    13 N    0.994    24 H    0.952    22 H    0.938
                            23 H    0.938
    15   1 H    0.907 --     1 C    0.887
    16   1 H    0.909 --     1 C    0.889
    17   1 H    0.888 --     1 C    0.885
    18   1 H    0.896 --     3 C    0.895
    19   1 H    0.960 --    10 C    0.929
    20   1 H    0.951 --    10 C    0.929
    21   1 H    0.951 --    10 C    0.930
    22   1 H    0.955 --    14 C    0.938
    23   1 H    0.955 --    14 C    0.938
    24   1 H    0.968 --    14 C    0.952
    25   1 H    0.931 --     4 N    0.731     3 C    0.180
 ---------------------------------------------------------------------------

molecular dipole:
                 x           y           z       tot (Debye)
 q only:        1.196      -0.520       0.007
   full:        1.445      -0.640       0.008       4.018

           -------------------------------------------------
          | TOTAL ENERGY              -41.973969649071 Eh   |
          | GRADIENT NORM               0.002600751068 Eh/α |
          | HOMO-LUMO GAP               0.910570480653 eV   |
           -------------------------------------------------

 * finished run on 2024/06/05 at 19:58:44.751
