   * xtb version 6.6.1 (8d0f1dd) compiled by 'conda@1efc2f54142f' on 2023-08-01
          program call               : xtb xtbopt.xyz --opt crude --input .xc2 --gfn2

   ID    Z sym.   atoms
    1    6 C      1, 3, 5-7, 10, 11, 14
    2    7 N      2, 4, 9, 13
    3    8 O      8, 12
    4    1 H      15-25

          :  Hamiltonian                  GFN2-xTB          :
 * total energy  :   -41.9739971 Eh     change       -0.7108980E-10 Eh
 * total energy  :   -41.9749990 Eh     change       -0.1001949E-02 Eh
 * total energy  :   -41.9764640 Eh     change       -0.1464969E-02 Eh
 * total energy  :   -41.9768916 Eh     change       -0.4276692E-03 Eh
 * total energy  :   -41.9771334 Eh     change       -0.2417977E-03 Eh
   *** GEOMETRY OPTIMIZATION CONVERGED AFTER 5 ITERATIONS ***

 final structure:
================
25
 xtb: 6.6.1 (8d0f1dd)
C            3.30895823878510        2.03209137357186        0.00585418339443
N            2.15132307525827        1.27059405574364        0.00513563228294
C            1.69528612985557       -3.67741027541393        0.01342753399703
N            1.40149704767668       -1.24832494017147        0.00771734638731
C            0.21973925799703       -0.78135939329186        0.00335076749316
C           -0.08485712719602        0.62710849021038       -0.00092267059436
C            0.90263671756770        1.71107370118541       -0.00088109073211
O            0.56202914312570        2.90023929112159       -0.00612511005809
N           -1.42342336001811        0.77309783577847       -0.00480150316248
C           -2.19027454227077        1.98134842660033       -0.01037850451602
C           -2.03542290539931       -0.49505671654862       -0.00357324273968
O           -3.21561257444388       -0.70535872005423       -0.00636878623186
N           -1.01112190614357       -1.42404395570320        0.00146261983677
C           -1.24829250897044       -2.84022224008712        0.00345323838133
H            3.88919676733428        1.81449483820608        0.91252898078090
H            3.93363603863626        1.74226551622883       -0.84899311350616
H            3.10697158841934        3.11350576136811       -0.04186304487001
H            2.77452709398608       -3.89447140497952        0.01540802792936
H           -1.51262347432269        2.83823016011269       -0.00589292276428
H           -2.82878685640190        2.01042869980843       -0.89773570407352
H           -2.84150435976557        2.01014578464481        0.86761678675222
H           -0.81157395113341       -3.30531182449736        0.89065549047591
H           -0.81021676820742       -3.30800274944289       -0.88170256476881
H           -2.32751326673621       -2.99996662452216        0.00276854402123
H            1.55585401647056       -2.32685654826932        0.01103072418494

          :  Hamiltonian                  GFN2-xTB          :
         :: total energy             -41.977133442015 Eh    ::
         :: gradient norm              0.008841905138 Eh/a0 ::
         :: HOMO-LUMO gap              0.848704551430 eV    ::
         :: SCC energy               -42.455702205433 Eh    ::
         :: -> dispersion             -0.020986100972 Eh    ::
         :: repulsion energy           0.478510555389 Eh    ::

    * Orbital Energies and Occupations

         #    Occupation            Energy/Eh            Energy/eV
      -------------------------------------------------------------
         1        2.0000           -0.9058079             -24.6483
       ...           ...                  ...                  ...
        25        1.9915           -0.6558453             -17.8465
        26        1.9902           -0.6525324             -17.7563
        27        1.9880           -0.6476841             -17.6244
        28        1.9830           -0.6392682             -17.3954
        29        1.9818           -0.6377002             -17.3527
        30        1.9536           -0.6150799             -16.7372
        31        1.9452           -0.6110262             -16.6269
        32        1.9076           -0.5981770             -16.2772
        33        1.8418           -0.5845602             -15.9067
        34        1.8011           -0.5785947             -15.7444
        35        1.6806           -0.5657047             -15.3936
        36        1.5816           -0.5578471             -15.1798
        37        1.4587           -0.5498101             -14.9611 (HOMO)
        38        0.8405           -0.5186208             -14.1124 (LUMO)
        39        0.6474           -0.5087632             -13.8442
        40        0.4118           -0.4942055             -13.4480
        41        0.0104           -0.4014158             -10.9231
        42        0.0020           -0.3619888              -9.8502
        43        0.0002           -0.3121193              -8.4932
        44        0.0000           -0.1930516              -5.2532
        45        0.0000           -0.1543456              -4.2000
        46                         -0.0796708              -2.1680
        47                         -0.0642490              -1.7483
        48                         -0.0336727              -0.9163
       ...                                ...                  ...
        67                          0.5304090              14.4332
      -------------------------------------------------------------
                  HL-Gap            0.0311893 Eh            0.8487 eV

     #   Z          covCN         q      C6AA      α(0)
     1   6 C        3.691    -0.039    21.460     6.629
     2   7 N        1.839    -0.127    24.527     7.339
     3   6 C        1.573    -0.161    37.204     9.967
     4   7 N        1.772    -0.234    26.945     7.686
     5   6 C        2.914     0.161    24.533     8.122
     6   6 C        3.032     0.034    27.207     8.556
     7   6 C        2.758     0.283    22.206     7.717
     8   8 O        0.858    -0.339    20.506     6.071
     9   7 N        2.795     0.010    21.071     6.818
    10   6 C        3.690    -0.074    22.110     6.729
    11   6 C        2.848     0.314    21.678     7.631
    12   8 O        0.857    -0.306    19.889     5.979
    13   7 N        2.801    -0.047    22.153     6.990
    14   6 C        3.689    -0.071    22.064     6.723
    15   1 H        0.923     0.140     1.459     1.889
    16   1 H        0.924     0.140     1.461     1.890
    17   1 H        0.923     0.136     1.487     1.907
    18   1 H        0.923     0.157     1.345     1.814
    19   1 H        0.924     0.147     1.415     1.860
    20   1 H        0.924     0.129     1.545     1.944
    21   1 H        0.924     0.129     1.545     1.944
    22   1 H        0.924     0.121     1.603     1.980
    23   1 H        0.924     0.121     1.603     1.980
    24   1 H        0.924     0.129     1.546     1.944
    25   1 H        1.497     0.248     0.880     1.464

Wiberg/Mayer (AO) data.
largest (>0.10) Wiberg bond orders for each atom

     #   Z sym  total        # sym  WBO       # sym  WBO       # sym  WBO
 ---------------------------------------------------------------------------
     1   6 C    3.814 --     2 N    1.125    16 H    0.889    15 H    0.886
                            17 H    0.884
     2   7 N    2.585 --     7 C    1.298     1 C    1.125
     3   6 C    1.410 --    18 H    0.903    25 H    0.295     4 N    0.171
     4   7 N    2.571 --     5 C    1.619    25 H    0.616     3 C    0.171
     5   6 C    3.903 --     4 N    1.619     6 C    1.098    13 N    1.096
     6   6 C    3.582 --     9 N    1.277     5 C    1.098     7 C    1.027
     7   6 C    3.901 --     8 O    1.506     2 N    1.298     6 C    1.027
     8   8 O    1.695 --     7 C    1.506
     9   7 N    3.481 --     6 C    1.277    11 C    1.029    10 C    1.000
    10   6 C    3.837 --     9 N    1.000    21 H    0.929    20 H    0.929
                            19 H    0.928
    11   6 C    3.902 --    12 O    1.692    13 N    1.103     9 N    1.029
    12   8 O    1.941 --    11 C    1.692    13 N    0.112
    13   7 N    3.448 --    11 C    1.103     5 C    1.096    14 C    0.995
                            12 O    0.112
    14   6 C    3.856 --    13 N    0.995    24 H    0.949    22 H    0.935
                            23 H    0.935
    15   1 H    0.907 --     1 C    0.886
    16   1 H    0.909 --     1 C    0.889
    17   1 H    0.888 --     1 C    0.884
    18   1 H    0.905 --     3 C    0.903
    19   1 H    0.959 --    10 C    0.928
    20   1 H    0.950 --    10 C    0.929
    21   1 H    0.951 --    10 C    0.929
    22   1 H    0.954 --    14 C    0.935
    23   1 H    0.954 --    14 C    0.935
    24   1 H    0.965 --    14 C    0.949
    25   1 H    0.926 --     4 N    0.616     3 C    0.295
 ---------------------------------------------------------------------------

molecular dipole:
                 x           y           z       tot (Debye)
 q only:        1.165      -0.541       0.008
   full:        1.404      -0.580       0.009       3.860

           -------------------------------------------------
          | TOTAL ENERGY              -41.977133442015 Eh   |
          | GRADIENT NORM               0.008841905138 Eh/α |
          | HOMO-LUMO GAP               0.848704551430 eV   |
           -------------------------------------------------

 * finished run on 2024/06/05 at 19:58:45.047
