   * xtb version 6.6.1 (8d0f1dd) compiled by 'conda@1efc2f54142f' on 2023-08-01
          program call               : xtb struc.xyz --opt loose --input .xc1 --gfn2

   ID    Z sym.   atoms
    1    7 N      1, 17
    2    6 C      2-6, 8, 9, 11-16, 18-23, 25, 26, 28-33
    3    8 O      7, 10, 24, 27
    4    1 H      34-72
constraining bond 16 63 to    3.7133300 Å, actual value:    2.6731055 Å

          :  Hamiltonian                  GFN2-xTB          :
 * total energy  :   -99.5973375 Eh     change       -0.4035485E-08 Eh
 * total energy  :   -99.8621220 Eh     change       -0.2647845E+00 Eh
 * total energy  :  -100.1870783 Eh     change       -0.3249563E+00 Eh
 * total energy  :  -100.5561916 Eh     change       -0.3691133E+00 Eh
 * total energy  :  -100.6061706 Eh     change       -0.4997896E-01 Eh
 * total energy  :  -100.6867327 Eh     change       -0.8056206E-01 Eh
 * total energy  :  -100.7231901 Eh     change       -0.3645749E-01 Eh
 * total energy  :  -100.7292699 Eh     change       -0.6079763E-02 Eh
 * total energy  :  -100.7498252 Eh     change       -0.2055526E-01 Eh
 * total energy  :  -100.7584848 Eh     change       -0.8659622E-02 Eh
 * total energy  :  -100.8155762 Eh     change       -0.1239238E-03 Eh
 * total energy  :  -100.8156910 Eh     change       -0.1147974E-03 Eh
 * total energy  :  -100.8157969 Eh     change       -0.1059063E-03 Eh
 * total energy  :  -100.8158975 Eh     change       -0.1005666E-03 Eh
 * total energy  :  -100.8159853 Eh     change       -0.8778732E-04 Eh
 * total energy  :  -100.8160592 Eh     change       -0.7387228E-04 Eh
 * total energy  :  -100.8161169 Eh     change       -0.5772137E-04 Eh
 * total energy  :  -100.8161705 Eh     change       -0.5365051E-04 Eh
 * total energy  :  -100.8162033 Eh     change       -0.3275544E-04 Eh
   *** GEOMETRY OPTIMIZATION CONVERGED AFTER 88 ITERATIONS ***

 final structure:
================
72
 xtb: 6.6.1 (8d0f1dd)
N           -2.82914027344559        2.29165035129362        2.72697794658802
C           -2.33814891882714        2.50455144891679        1.59323824212841
C           -2.91585767692047        1.94408081815919        0.32127581804200
C           -3.49924951990941        0.54150148097205        0.42963027018097
C           -4.08503341931555       -0.02042420920386       -0.70919228629781
C           -4.60878758341920       -1.30226005338846       -0.70390504859206
O           -5.19772383031795       -1.90827656608524       -1.75631123791883
C           -5.40764070793895       -1.18195074574509       -2.94451217681043
C           -4.53739099144127       -2.08226731242856        0.48224784992892
O           -5.05923215625659       -3.32191183508150        0.39637327610398
C           -5.07613703454295       -4.13878628497181        1.54450640457543
C           -3.95186128615001       -1.52123769260434        1.60635864803795
C           -3.44302932105809       -0.22960529851816        1.57975689308389
C           -1.81889572356532        1.94002347630260       -0.77331184207633
C           -0.89035038597531        0.72304312548078       -0.72765216644018
C           -0.23006085590686        0.56531892554974        0.66652993099790
N            0.57384636151277       -0.65666117708991        0.71937745155388
C            2.00961886027372       -0.55932803896874        0.66605164398390
C            2.54061808805050       -0.25726040835058       -0.74929937168305
C            4.02765411865069       -0.04403634851888       -0.69606822926216
C            4.54435831700313        1.23187013993538       -0.53731250306576
C            5.91186080121454        1.43990558327648       -0.45178104978892
C            6.79436365780043        0.37066573415089       -0.51640132951771
O            8.13490234360101        0.45550131695557       -0.44239107876686
C            8.73640985269640        1.72271605394992       -0.30854263942779
C            6.27324166643813       -0.94351367238120       -0.67845200786467
O            7.19829745763598       -1.92239848446296       -0.73419100824099
C            6.78598932505734       -3.25211779261070       -0.94122063878848
C            4.90128793291507       -1.12653403724914       -0.76221195978361
C           -0.04260271289829       -1.82010473353210        0.79713342118737
C           -4.06976766584883        2.93085804419813       -0.07946000825490
C           -5.26066099034842        2.78634326702355        0.86328686315038
C           -3.61688625785564        4.38979003591526       -0.12583140747811
H           -4.14070865742828        0.55625189394875       -1.61741932600999
H           -6.01518347325384       -0.28926151552395       -2.76650526953489
H           -5.94525782404854       -1.85681468803526       -3.60789951862390
H           -4.46079158722596       -0.89450057426480       -3.41435820778688
H           -5.64613608649190       -3.67751226249661        2.35648538834134
H           -5.56497564285040       -5.06162996228506        1.23884736843019
H           -4.06229102352995       -4.36380432131115        1.89174844775145
H           -3.89490190810687       -2.08056709706546        2.52631811190510
H           -3.02998524406296        0.17975712205991        2.48634814614271
H           -2.28870239652714        1.96241373968947       -1.75722713852248
H           -1.21646056935340        2.84571096554891       -0.68517319113175
H           -1.46237527373138       -0.18138451234350       -0.93944770097152
H           -0.13564531689961        0.83015313322152       -1.50691223581238
H           -1.48838559381988        3.18234829584062        1.42799816252552
H            0.47240555800094        1.40316158122880        0.79470891779687
H            2.44366668310025       -1.49692687842253        1.01717451055142
H            2.33274952685446        0.23995054243110        1.33964032130332
H            2.06503417362905        0.64613991080322       -1.13077886140249
H            2.29156961770732       -1.08885452381742       -1.40986210895209
H            3.88107700639485        2.08238249871647       -0.48906622553048
H            6.28294895268247        2.44490262101091       -0.33602287730753
H            8.42865960332879        2.21708807691905        0.61810791595946
H            8.50431095906989        2.36756266631807       -1.16126611618472
H            9.80813993699100        1.53614481623011       -0.27787280071824
H            7.70191456422737       -3.83928395355191       -0.98078956849513
H            6.16152870345159       -3.61257461131434       -0.11649499567735
H            6.24422262305847       -3.36128511396537       -1.88616038738482
H            4.49710133879260       -2.11823792787916       -0.89157463480263
H           -1.11526365282272       -1.85143880533021        0.84757749705496
H           -0.79067317837472        0.55045853761163        1.21772015923984
H            0.52624845848815       -2.72852060535926        0.82853033206207
H           -4.39303257378516        2.65189161508368       -1.08720086512617
H           -4.95061381585297        2.93023774093651        1.89559049113784
H           -5.70779372396640        1.79960332680026        0.78055494211388
H           -6.01510026521080        3.52963126564149        0.62038845228058
H           -3.38542544841361        4.76010007080684        0.86958313255542
H           -2.74832455671721        4.52527668473273       -0.76480682264108
H           -4.42151532455059        5.00011594546532       -0.52822499887534
H           -2.40951044268286        2.77630871358512        3.51430972754563

          :  Hamiltonian                  GFN2-xTB          :
         :: total energy            -100.816203300067 Eh    ::
         :: gradient norm              0.002721756262 Eh/a0 ::
         :: HOMO-LUMO gap              1.531527918617 eV    ::
         :: SCC energy              -100.798146810878 Eh    ::
         :: -> dispersion             -0.075634289052 Eh    ::
         :: repulsion energy           1.510434853136 Eh    ::

    * Orbital Energies and Occupations

         #    Occupation            Energy/Eh            Energy/eV
      -------------------------------------------------------------
         1        2.0000           -0.8081858             -21.9919
       ...           ...                  ...                  ...
        78        1.9986           -0.5347408             -14.5510
        79        1.9982           -0.5303776             -14.4323
        80        1.9982           -0.5299108             -14.4196
        81        1.9970           -0.5221501             -14.2084
        82        1.9968           -0.5213365             -14.1863
        83        1.9959           -0.5171850             -14.0733
        84        1.9955           -0.5157424             -14.0341
        85        1.9935           -0.5098067             -13.8725
        86        1.9769           -0.4897101             -13.3257
        87        1.9736           -0.4875567             -13.2671
        88        1.9264           -0.4709370             -12.8148
        89        1.8340           -0.4572780             -12.4432
        90        1.8310           -0.4569728             -12.4349 (HOMO)
        91        0.4731           -0.4006902             -10.9033 (LUMO)
        92        0.0113           -0.3374084              -9.1813
        93        0.0026           -0.3139642              -8.5434
        94        0.0026           -0.3138616              -8.5406
        95        0.0022           -0.3115295              -8.4771
        96        0.0019           -0.3092595              -8.4154
        97        0.0000           -0.1891627              -5.1474
        98        0.0000           -0.1876336              -5.1058
        99                         -0.1461660              -3.9774
       100                         -0.0748518              -2.0368
       101                         -0.0625733              -1.7027
       ...                                ...                  ...
       171                          1.1049618              30.0675
      -------------------------------------------------------------
                  HL-Gap            0.0562826 Eh            1.5315 eV

     #   Z          covCN         q      C6AA      α(0)
     1   7 N        1.774    -0.286    28.219     7.866
     2   6 C        2.826     0.096    25.856     8.332
     3   6 C        3.906     0.003    20.467     6.431
     4   6 C        2.969     0.011    27.777     8.645
     5   6 C        2.922    -0.079    29.963     8.976
     6   6 C        2.861     0.129    25.168     8.223
     7   8 O        1.706    -0.230    17.810     5.698
     8   6 C        3.644     0.028    20.446     6.500
     9   6 C        2.864     0.129    25.164     8.223
    10   8 O        1.706    -0.227    17.770     5.691
    11   6 C        3.645     0.027    20.462     6.501
    12   6 C        2.914    -0.073    29.813     8.954
    13   6 C        2.921    -0.053    29.315     8.879
    14   6 C        3.808    -0.069    21.809     6.648
    15   6 C        3.799    -0.069    21.831     6.653
    16   6 C        3.755    -0.044    21.413     6.598
    17   7 N        2.728     0.028    20.753     6.766
    18   6 C        3.752    -0.020    20.982     6.532
    19   6 C        3.807    -0.070    21.826     6.650
    20   6 C        2.969     0.000    28.020     8.683
    21   6 C        2.922    -0.049    29.210     8.863
    22   6 C        2.914    -0.067    29.680     8.933
    23   6 C        2.865     0.134    25.067     8.207
    24   8 O        1.706    -0.220    17.651     5.672
    25   6 C        3.646     0.025    20.494     6.506
    26   6 C        2.862     0.134    25.074     8.208
    27   8 O        1.706    -0.223    17.702     5.681
    28   6 C        3.644     0.027    20.465     6.502
    29   6 C        2.919    -0.079    29.969     8.977
    30   6 C        2.794    -0.058    29.421     8.885
    31   6 C        3.857    -0.007    20.669     6.466
    32   6 C        3.755    -0.116    22.781     6.806
    33   6 C        3.754    -0.112    22.699     6.794
    34   1 H        0.926     0.051     2.311     2.377
    35   1 H        0.924     0.054     2.273     2.358
    36   1 H        0.925     0.081     1.970     2.195
    37   1 H        0.924     0.048     2.349     2.397
    38   1 H        0.924     0.057     2.237     2.339
    39   1 H        0.925     0.081     1.968     2.194
    40   1 H        0.924     0.049     2.335     2.389
    41   1 H        0.926     0.053     2.279     2.361
    42   1 H        0.926     0.067     2.115     2.274
    43   1 H        0.924     0.055     2.257     2.349
    44   1 H        0.924     0.046     2.367     2.406
    45   1 H        0.924     0.050     2.314     2.379
    46   1 H        0.925     0.050     2.321     2.383
    47   1 H        0.923     0.013     2.846     2.638
    48   1 H        0.923     0.064     2.151     2.294
    49   1 H        0.924     0.074     2.047     2.237
    50   1 H        0.924     0.071     2.073     2.252
    51   1 H        0.925     0.056     2.244     2.342
    52   1 H        0.924     0.057     2.240     2.340
    53   1 H        0.926     0.045     2.389     2.417
    54   1 H        0.926     0.059     2.211     2.325
    55   1 H        0.924     0.055     2.259     2.351
    56   1 H        0.924     0.056     2.243     2.342
    57   1 H        0.925     0.083     1.948     2.182
    58   1 H        0.925     0.083     1.952     2.185
    59   1 H        0.924     0.050     2.319     2.381
    60   1 H        0.924     0.053     2.280     2.361
    61   1 H        0.926     0.050     2.325     2.384
    62   1 H        0.926     0.082     1.955     2.187
    63   1 H        0.930     0.118     1.632     1.998
    64   1 H        0.926     0.082     1.959     2.188
    65   1 H        0.924     0.043     2.416     2.431
    66   1 H        0.925     0.059     2.212     2.326
    67   1 H        0.925     0.043     2.408     2.427
    68   1 H        0.925     0.052     2.289     2.366
    69   1 H        0.925     0.042     2.419     2.432
    70   1 H        0.925     0.038     2.471     2.458
    71   1 H        0.925     0.053     2.286     2.365
    72   1 H        0.860     0.157     1.357     1.825

Wiberg/Mayer (AO) data.
largest (>0.10) Wiberg bond orders for each atom

     #   Z sym  total        # sym  WBO       # sym  WBO       # sym  WBO
 ---------------------------------------------------------------------------
     1   7 N    3.012 --     2 C    1.933    72 H    0.942
     2   6 C    3.943 --     1 N    1.933     3 C    1.003    47 H    0.934
     3   6 C    3.978 --     2 C    1.003     4 C    0.979    14 C    0.970
                            31 C    0.915
     4   6 C    3.938 --    13 C    1.414     5 C    1.367     3 C    0.979
     5   6 C    3.957 --     6 C    1.401     4 C    1.367    34 H    0.957
     6   6 C    3.895 --     5 C    1.401     9 C    1.218     7 O    1.098
     7   8 O    2.246 --     6 C    1.098     8 C    0.978
     8   6 C    3.932 --     7 O    0.978    36 H    0.977    35 H    0.973
                            37 H    0.973
     9   6 C    3.891 --    12 C    1.388     6 C    1.218    10 O    1.103
    10   8 O    2.247 --     9 C    1.103    11 C    0.977
    11   6 C    3.930 --    10 O    0.977    39 H    0.977    40 H    0.973
                            38 H    0.973
    12   6 C    3.957 --    13 C    1.407     9 C    1.388    41 H    0.963
    13   6 C    3.939 --     4 C    1.414    12 C    1.407    42 H    0.953
    14   6 C    3.987 --    15 C    1.006     3 C    0.970    44 H    0.970
                            43 H    0.969
    15   6 C    3.974 --    14 C    1.006    16 C    0.976    46 H    0.975
                            45 H    0.971
    16   6 C    3.948 --    15 C    0.976    17 N    0.972    48 H    0.970
                            63 H    0.963
    17   7 N    3.466 --    30 C    1.463    18 C    0.994    16 C    0.972
    18   6 C    3.955 --    17 N    0.994    49 H    0.967    19 C    0.964
                            50 H    0.960
    19   6 C    3.974 --    20 C    1.008    52 H    0.972    51 H    0.968
                            18 C    0.964
    20   6 C    3.943 --    21 C    1.408    29 C    1.381    19 C    1.008
    21   6 C    3.947 --    22 C    1.417    20 C    1.408    53 H    0.968
    22   6 C    3.958 --    21 C    1.417    23 C    1.382    54 H    0.963
    23   6 C    3.893 --    22 C    1.382    26 C    1.218    24 O    1.112
    24   8 O    2.255 --    23 C    1.112    25 C    0.976
    25   6 C    3.927 --    57 H    0.977    24 O    0.976    56 H    0.972
                            55 H    0.972
    26   6 C    3.897 --    29 C    1.394    23 C    1.218    27 O    1.106
    27   8 O    2.254 --    26 C    1.106    28 C    0.978
    28   6 C    3.931 --    27 O    0.978    58 H    0.976    60 H    0.973
                            59 H    0.973
    29   6 C    3.958 --    26 C    1.394    20 C    1.381    61 H    0.962
    30   6 C    3.499 --    17 N    1.463    64 H    0.970    62 H    0.968
    31   6 C    3.978 --    32 C    1.012    33 C    1.009    65 H    0.957
                             3 C    0.915
    32   6 C    3.984 --    31 C    1.012    67 H    0.982    68 H    0.980
                            66 H    0.975
    33   6 C    3.989 --    31 C    1.009    69 H    0.983    70 H    0.983
                            71 H    0.982
    34   1 H    0.996 --     5 C    0.957
    35   1 H    0.993 --     8 C    0.973
    36   1 H    0.993 --     8 C    0.977
    37   1 H    0.993 --     8 C    0.973
    38   1 H    0.992 --    11 C    0.973
    39   1 H    0.993 --    11 C    0.977
    40   1 H    0.992 --    11 C    0.973
    41   1 H    0.995 --    12 C    0.963
    42   1 H    0.993 --    13 C    0.953
    43   1 H    0.995 --    14 C    0.969
    44   1 H    0.997 --    14 C    0.970
    45   1 H    0.997 --    15 C    0.971
    46   1 H    0.997 --    15 C    0.975
    47   1 H    0.983 --     2 C    0.934
    48   1 H    0.995 --    16 C    0.970
    49   1 H    0.993 --    18 C    0.967
    50   1 H    0.988 --    18 C    0.960
    51   1 H    0.996 --    19 C    0.968
    52   1 H    0.995 --    19 C    0.972
    53   1 H    0.997 --    21 C    0.968
    54   1 H    0.995 --    22 C    0.963
    55   1 H    0.991 --    25 C    0.972
    56   1 H    0.991 --    25 C    0.972
    57   1 H    0.992 --    25 C    0.977
    58   1 H    0.992 --    28 C    0.976
    59   1 H    0.992 --    28 C    0.973
    60   1 H    0.992 --    28 C    0.973
    61   1 H    0.996 --    29 C    0.962
    62   1 H    0.993 --    30 C    0.968
    63   1 H    0.983 --    16 C    0.963
    64   1 H    0.993 --    30 C    0.970
    65   1 H    0.994 --    31 C    0.957
    66   1 H    0.994 --    32 C    0.975
    67   1 H    0.996 --    32 C    0.982
    68   1 H    0.995 --    32 C    0.980
    69   1 H    0.997 --    33 C    0.983
    70   1 H    0.997 --    33 C    0.983
    71   1 H    0.995 --    33 C    0.982
    72   1 H    0.969 --     1 N    0.942
 ---------------------------------------------------------------------------

molecular dipole:
                 x           y           z       tot (Debye)
 q only:        0.917      -0.252       0.132
   full:        1.091       0.074       0.159       2.808

           -------------------------------------------------
          | TOTAL ENERGY             -100.816203300067 Eh   |
          | GRADIENT NORM               0.002721756262 Eh/α |
          | HOMO-LUMO GAP               1.531527918617 eV   |
           -------------------------------------------------

 * finished run on 2024/04/06 at 11:16:49.950
