   * xtb version 6.6.1 (8d0f1dd) compiled by 'conda@1efc2f54142f' on 2023-08-01
          program call               : xtb xtbopt.xyz --opt crude --input .xc2 --gfn2

   ID    Z sym.   atoms
    1    7 N      1, 17
    2    6 C      2-6, 8, 9, 11-16, 18-23, 25, 26, 28-33
    3    8 O      7, 10, 24, 27
    4    1 H      34-72
########################################################################
[WARNING] Please study the warnings concerning your input carefully
-1- readin_getIntValue: could not parse ''
########################################################################

          :  Hamiltonian                  GFN2-xTB          :
 * total energy  :   -99.2864812 Eh     change        0.1563194E-12 Eh
 * total energy  :   -99.3958770 Eh     change       -0.1093958E+00 Eh
 * total energy  :   -99.3972721 Eh     change       -0.1395133E-02 Eh
 * total energy  :   -99.3980094 Eh     change       -0.7372272E-03 Eh
 * total energy  :   -99.3981167 Eh     change       -0.1073784E-03 Eh
   *** GEOMETRY OPTIMIZATION CONVERGED AFTER 5 ITERATIONS ***

 final structure:
================
72
 xtb: 6.6.1 (8d0f1dd)
N           -2.83364089415066        2.29596626480261        2.72847327160254
C           -2.34290545088906        2.50566320576628        1.59328095977471
C           -2.92085294848898        1.94434102198724        0.32154977613248
C           -3.50490518676954        0.54218193819107        0.43013091834927
C           -4.08397215190306       -0.02272729303187       -0.71034086249152
C           -4.60625413994085       -1.30511324204610       -0.70522428037495
O           -5.19386692807495       -1.91163575001101       -1.75812041517167
C           -5.40321591516701       -1.18478469875672       -2.94538149877074
C           -4.53649236510461       -2.08457823917873        0.48115248788224
O           -5.05389924239030       -3.32607629426110        0.39467445982642
C           -5.08036076966044       -4.13825301727811        1.54522251312909
C           -3.95955467458934       -1.52037203681119        1.60774555548725
C           -3.45685703653838       -0.22626580514324        1.58257314099921
C           -1.82262420859470        1.93986416575020       -0.77147010957437
C           -0.89395405552205        0.72339233597170       -0.73206241577540
C           -0.18235704445143        0.57241699644318        0.62021129154084
N            0.58607236398945       -0.64958372460344        0.70976860327802
C            2.02369806910369       -0.56244532978704        0.66048139276997
C            2.55276507384630       -0.25696568076248       -0.75467243498707
C            4.03897659775249       -0.04219967408011       -0.70143944384619
C            4.55594126975084        1.23291037187410       -0.53903205686127
C            5.92357234781077        1.43936199600195       -0.45257601370686
C            6.80382165091701        0.36907269498715       -0.52120586113924
O            8.14441349878379        0.45163158581520       -0.44881007656489
C            8.74747145147153        1.71767231213108       -0.30939637764854
C            6.28227775645396       -0.94491391179279       -0.68530267651648
O            7.20540059168413       -1.92362493901308       -0.74566670129709
C            6.78869474066221       -3.25384424958131       -0.94333431373496
C            4.91048406779175       -1.12598303868775       -0.76860580656441
C           -0.03608051750745       -1.80944999888731        0.78818924467732
C           -4.07399832568015        2.93044596264138       -0.08134615368167
C           -5.26708911364658        2.78188893430636        0.85728109480293
C           -3.62263770145628        4.38990072835375       -0.12225734969830
H           -4.13716828895451        0.55314158062239       -1.61902963283899
H           -6.01023952271557       -0.29196279609605       -2.76725125190399
H           -5.94128620462907       -1.85889196834947       -3.60894353405882
H           -4.45660946464620       -0.89739808030812       -3.41463974673366
H           -5.65421484315842       -3.67246861306388        2.35164849594558
H           -5.56971596141893       -5.06115867838825        1.24027858304441
H           -4.06970266187154       -4.36456662295082        1.90002056158809
H           -3.90531504178167       -2.07883030293688        2.52826712411450
H           -3.05948703580003        0.18784104498321        2.49427838983153
H           -2.29267079542583        1.96487881191270       -1.75501364448055
H           -1.22010161933062        2.84531759436172       -0.68154027608446
H           -1.46872666217125       -0.18288266727241       -0.92714460750495
H           -0.15912325335644        0.82699385722300       -1.53359528209415
H           -1.49286823811259        3.18228686586811        1.42522221956001
H            0.48895073288331        1.41614433613143        0.78618491002382
H            2.45274056644298       -1.50417179733659        1.00758885221513
H            2.35208243522577        0.23200811892108        1.33754720021567
H            2.07388078757212        0.64538459541752       -1.13448753965940
H            2.30528606092666       -1.08840848210351       -1.41617111109030
H            3.89277697331742        2.08325189229526       -0.48894186588310
H            6.29544917549086        2.44369739157560       -0.33433367070033
H            8.44102513551339        2.20721904436122        0.62000460511047
H            8.51482481347921        2.36680204350157       -1.15893746132257
H            9.81883875186294        1.52943915979126       -0.28160729371484
H            7.70258713202751       -3.84323033018825       -0.98224517940636
H            6.16645632995354       -3.60697631683364       -0.11486656665575
H            6.24414133685542       -3.36746828231692       -1.88571790218313
H            4.50355720633769       -2.11628513175366       -0.89950036400317
H           -1.10873397693250       -1.83381058807591        0.82980522257375
H           -0.94517876740589        0.55505730595713        1.40194589944249
H            0.52884913073736       -2.72000468861495        0.83815396716876
H           -4.39297498481112        2.65352285559305       -1.09071997139188
H           -4.95964718002258        2.92195188396124        1.89078707783507
H           -5.71386764384476        1.79523209248748        0.76917096412332
H           -6.02133214874477        3.52608129558631        0.61558006108901
H           -3.39147960776986        4.75648930766195        0.87472295240022
H           -2.75421215835295        4.52865839761766       -0.76090572226129
H           -4.42826378048885        5.00119927111510       -0.52200242531362
H           -2.41008193939445        2.78216253088624        3.51316294384730

          :  Hamiltonian                  GFN2-xTB          :
         :: total energy             -99.398116741390 Eh    ::
         :: gradient norm              0.002688847893 Eh/a0 ::
         :: HOMO-LUMO gap              1.531524869343 eV    ::
         :: SCC energy              -100.775183994862 Eh    ::
         :: -> dispersion             -0.075626844559 Eh    ::
         :: repulsion energy           1.375832900008 Eh    ::

    * Orbital Energies and Occupations

         #    Occupation            Energy/Eh            Energy/eV
      -------------------------------------------------------------
         1        2.0000           -0.8082364             -21.9932
       ...           ...                  ...                  ...
        78        1.9986           -0.5346928             -14.5497
        79        1.9982           -0.5302694             -14.4294
        80        1.9982           -0.5299687             -14.4212
        81        1.9970           -0.5219782             -14.2038
        82        1.9969           -0.5214283             -14.1888
        83        1.9958           -0.5168960             -14.0655
        84        1.9954           -0.5155419             -14.0286
        85        1.9934           -0.5097238             -13.8703
        86        1.9770           -0.4897919             -13.3279
        87        1.9735           -0.4875204             -13.2661
        88        1.9265           -0.4709570             -12.8154
        89        1.8339           -0.4572716             -12.4430
        90        1.8311           -0.4569799             -12.4351 (HOMO)
        91        0.4733           -0.4006974             -10.9035 (LUMO)
        92        0.0112           -0.3372937              -9.1782
        93        0.0026           -0.3138891              -8.5414
        94        0.0026           -0.3138278              -8.5397
        95        0.0022           -0.3114757              -8.4757
        96        0.0019           -0.3093612              -8.4181
        97        0.0000           -0.1889269              -5.1410
        98        0.0000           -0.1876956              -5.1075
        99                         -0.1348216              -3.6687
       100                         -0.0746090              -2.0302
       101                         -0.0621071              -1.6900
       ...                                ...                  ...
       171                          0.5772511              15.7078
      -------------------------------------------------------------
                  HL-Gap            0.0562825 Eh            1.5315 eV

     #   Z          covCN         q      C6AA      α(0)
     1   7 N        1.774    -0.287    28.254     7.871
     2   6 C        2.826     0.097    25.832     8.328
     3   6 C        3.906     0.004    20.461     6.429
     4   6 C        2.969     0.011    27.765     8.643
     5   6 C        2.922    -0.079    29.965     8.977
     6   6 C        2.862     0.129    25.168     8.223
     7   8 O        1.706    -0.230    17.807     5.697
     8   6 C        3.644     0.028    20.443     6.499
     9   6 C        2.864     0.129    25.165     8.223
    10   8 O        1.706    -0.227    17.768     5.691
    11   6 C        3.645     0.027    20.461     6.501
    12   6 C        2.914    -0.073    29.819     8.954
    13   6 C        2.921    -0.052    29.298     8.876
    14   6 C        3.808    -0.068    21.805     6.647
    15   6 C        3.800    -0.067    21.783     6.645
    16   6 C        3.756    -0.027    21.102     6.550
    17   7 N        2.729     0.039    20.560     6.734
    18   6 C        3.754    -0.020    20.991     6.533
    19   6 C        3.808    -0.069    21.815     6.649
    20   6 C        2.970     0.000    28.022     8.683
    21   6 C        2.922    -0.049    29.210     8.863
    22   6 C        2.914    -0.067    29.680     8.933
    23   6 C        2.865     0.134    25.069     8.207
    24   8 O        1.706    -0.220    17.654     5.673
    25   6 C        3.646     0.024    20.495     6.506
    26   6 C        2.863     0.134    25.069     8.207
    27   8 O        1.706    -0.223    17.695     5.679
    28   6 C        3.645     0.026    20.467     6.502
    29   6 C        2.919    -0.079    29.978     8.979
    30   6 C        2.795    -0.059    29.450     8.890
    31   6 C        3.858    -0.007    20.670     6.466
    32   6 C        3.755    -0.116    22.782     6.806
    33   6 C        3.754    -0.112    22.699     6.794
    34   1 H        0.926     0.051     2.310     2.377
    35   1 H        0.924     0.054     2.274     2.358
    36   1 H        0.925     0.081     1.970     2.195
    37   1 H        0.924     0.048     2.349     2.397
    38   1 H        0.924     0.057     2.237     2.339
    39   1 H        0.925     0.081     1.969     2.194
    40   1 H        0.924     0.049     2.334     2.389
    41   1 H        0.926     0.053     2.277     2.360
    42   1 H        0.926     0.068     2.109     2.271
    43   1 H        0.924     0.055     2.258     2.350
    44   1 H        0.924     0.046     2.368     2.406
    45   1 H        0.924     0.051     2.306     2.374
    46   1 H        0.924     0.051     2.312     2.378
    47   1 H        0.923     0.013     2.845     2.638
    48   1 H        0.924     0.069     2.100     2.266
    49   1 H        0.924     0.074     2.045     2.236
    50   1 H        0.924     0.071     2.070     2.250
    51   1 H        0.925     0.056     2.241     2.341
    52   1 H        0.924     0.056     2.245     2.343
    53   1 H        0.926     0.044     2.390     2.418
    54   1 H        0.926     0.059     2.211     2.325
    55   1 H        0.924     0.055     2.258     2.350
    56   1 H        0.924     0.056     2.243     2.342
    57   1 H        0.925     0.083     1.947     2.182
    58   1 H        0.925     0.083     1.951     2.184
    59   1 H        0.924     0.050     2.316     2.380
    60   1 H        0.924     0.053     2.278     2.360
    61   1 H        0.926     0.049     2.327     2.386
    62   1 H        0.926     0.083     1.953     2.185
    63   1 H        0.924     0.079     1.992     2.207
    64   1 H        0.926     0.083     1.949     2.183
    65   1 H        0.924     0.042     2.417     2.431
    66   1 H        0.925     0.059     2.209     2.324
    67   1 H        0.925     0.043     2.410     2.428
    68   1 H        0.925     0.053     2.288     2.366
    69   1 H        0.925     0.042     2.418     2.432
    70   1 H        0.925     0.038     2.472     2.458
    71   1 H        0.925     0.053     2.285     2.364
    72   1 H        0.860     0.157     1.357     1.825

Wiberg/Mayer (AO) data.
largest (>0.10) Wiberg bond orders for each atom

     #   Z sym  total        # sym  WBO       # sym  WBO       # sym  WBO
 ---------------------------------------------------------------------------
     1   7 N    3.010 --     2 C    1.929    72 H    0.942
     2   6 C    3.942 --     1 N    1.929     3 C    1.002    47 H    0.934
     3   6 C    3.978 --     2 C    1.002     4 C    0.979    14 C    0.970
                            31 C    0.915
     4   6 C    3.938 --    13 C    1.413     5 C    1.367     3 C    0.979
     5   6 C    3.957 --     6 C    1.401     4 C    1.367    34 H    0.957
     6   6 C    3.896 --     5 C    1.401     9 C    1.218     7 O    1.098
     7   8 O    2.246 --     6 C    1.098     8 C    0.979
     8   6 C    3.932 --     7 O    0.979    36 H    0.977    35 H    0.973
                            37 H    0.973
     9   6 C    3.891 --    12 C    1.388     6 C    1.218    10 O    1.103
    10   8 O    2.247 --     9 C    1.103    11 C    0.977
    11   6 C    3.930 --    10 O    0.977    39 H    0.977    40 H    0.973
                            38 H    0.973
    12   6 C    3.957 --    13 C    1.406     9 C    1.388    41 H    0.963
    13   6 C    3.939 --     4 C    1.413    12 C    1.406    42 H    0.951
    14   6 C    3.987 --    15 C    1.005     3 C    0.970    44 H    0.970
                            43 H    0.969
    15   6 C    3.976 --    14 C    1.005    16 C    0.984    46 H    0.972
                            45 H    0.970
    16   6 C    3.957 --    15 C    0.984    17 N    0.983    48 H    0.970
                            63 H    0.949
    17   7 N    3.473 --    30 C    1.461    18 C    0.992    16 C    0.983
    18   6 C    3.954 --    17 N    0.992    49 H    0.968    19 C    0.965
                            50 H    0.960
    19   6 C    3.974 --    20 C    1.008    52 H    0.972    51 H    0.969
                            18 C    0.965
    20   6 C    3.943 --    21 C    1.408    29 C    1.380    19 C    1.008
    21   6 C    3.947 --    22 C    1.417    20 C    1.408    53 H    0.968
    22   6 C    3.958 --    21 C    1.417    23 C    1.382    54 H    0.963
    23   6 C    3.893 --    22 C    1.382    26 C    1.217    24 O    1.112
    24   8 O    2.255 --    23 C    1.112    25 C    0.976
    25   6 C    3.927 --    57 H    0.977    24 O    0.976    55 H    0.972
                            56 H    0.972
    26   6 C    3.897 --    29 C    1.394    23 C    1.217    27 O    1.107
    27   8 O    2.255 --    26 C    1.107    28 C    0.978
    28   6 C    3.931 --    27 O    0.978    58 H    0.977    59 H    0.973
                            60 H    0.973
    29   6 C    3.958 --    26 C    1.394    20 C    1.380    61 H    0.962
    30   6 C    3.500 --    17 N    1.461    64 H    0.970    62 H    0.968
    31   6 C    3.978 --    32 C    1.012    33 C    1.009    65 H    0.957
                             3 C    0.915
    32   6 C    3.984 --    31 C    1.012    67 H    0.982    68 H    0.980
                            66 H    0.975
    33   6 C    3.989 --    31 C    1.009    69 H    0.983    70 H    0.983
                            71 H    0.982
    34   1 H    0.996 --     5 C    0.957
    35   1 H    0.993 --     8 C    0.973
    36   1 H    0.993 --     8 C    0.977
    37   1 H    0.993 --     8 C    0.973
    38   1 H    0.992 --    11 C    0.973
    39   1 H    0.993 --    11 C    0.977
    40   1 H    0.992 --    11 C    0.973
    41   1 H    0.995 --    12 C    0.963
    42   1 H    0.993 --    13 C    0.951
    43   1 H    0.995 --    14 C    0.969
    44   1 H    0.997 --    14 C    0.970
    45   1 H    0.997 --    15 C    0.970
    46   1 H    0.997 --    15 C    0.972
    47   1 H    0.983 --     2 C    0.934
    48   1 H    0.994 --    16 C    0.970
    49   1 H    0.993 --    18 C    0.968
    50   1 H    0.988 --    18 C    0.960
    51   1 H    0.996 --    19 C    0.969
    52   1 H    0.995 --    19 C    0.972
    53   1 H    0.997 --    21 C    0.968
    54   1 H    0.995 --    22 C    0.963
    55   1 H    0.991 --    25 C    0.972
    56   1 H    0.991 --    25 C    0.972
    57   1 H    0.992 --    25 C    0.977
    58   1 H    0.992 --    28 C    0.977
    59   1 H    0.992 --    28 C    0.973
    60   1 H    0.992 --    28 C    0.973
    61   1 H    0.996 --    29 C    0.962
    62   1 H    0.993 --    30 C    0.968
    63   1 H    0.986 --    16 C    0.949
    64   1 H    0.993 --    30 C    0.970
    65   1 H    0.994 --    31 C    0.957
    66   1 H    0.994 --    32 C    0.975
    67   1 H    0.996 --    32 C    0.982
    68   1 H    0.995 --    32 C    0.980
    69   1 H    0.997 --    33 C    0.983
    70   1 H    0.997 --    33 C    0.983
    71   1 H    0.995 --    33 C    0.982
    72   1 H    0.969 --     1 N    0.942
 ---------------------------------------------------------------------------

molecular dipole:
                 x           y           z       tot (Debye)
 q only:        0.942      -0.270       0.111
   full:        1.114       0.063       0.147       2.860

           -------------------------------------------------
          | TOTAL ENERGY              -99.398116741390 Eh   |
          | GRADIENT NORM               0.002688847893 Eh/α |
          | HOMO-LUMO GAP               1.531524869343 eV   |
           -------------------------------------------------

 * finished run on 2024/04/06 at 11:16:51.052
