   * xtb version 6.6.1 (8d0f1dd) compiled by 'conda@1efc2f54142f' on 2023-08-01
          program call               : xtb struc.xyz --opt loose --input .xc1 --gfn2

   ID    Z sym.   atoms
    1    6 C      1, 3, 5-7, 10, 11, 14
    2    7 N      2, 4, 9, 13
    3    8 O      8, 12
    4    1 H      15-25
constraining bond 5 22 to    3.7133300 Å, actual value:    2.7765911 Å

          :  Hamiltonian                  GFN2-xTB          :
 * total energy  :   -43.8146268 Eh     change       -0.6650680E-10 Eh
 * total energy  :   -47.0958993 Eh     change       -0.3281272E+01 Eh
 * total energy  :   -52.1567249 Eh     change       -0.5060826E+01 Eh
 * total energy  :   -58.7039835 Eh     change       -0.6547259E+01 Eh
 * total energy  :   -45.2632208 Eh     change        0.1344076E+02 Eh
 * total energy  :   -56.2869674 Eh     change       -0.1102375E+02 Eh
 * total energy  :   -56.6342784 Eh     change       -0.3473111E+00 Eh
 * total energy  :   -58.9755328 Eh     change       -0.2341254E+01 Eh
 * total energy  :   -56.3934463 Eh     change        0.2582087E+01 Eh
 * total energy  :   -59.3639475 Eh     change       -0.2970501E+01 Eh
 * total energy  :   -59.7400232 Eh     change       -0.3863257E-03 Eh
 * total energy  :   -59.7403480 Eh     change       -0.3248613E-03 Eh
 * total energy  :   -59.7406151 Eh     change       -0.2670573E-03 Eh
 * total energy  :   -59.7408505 Eh     change       -0.2353861E-03 Eh
 * total energy  :   -59.7409340 Eh     change       -0.8350445E-04 Eh
 * total energy  :   -59.7410810 Eh     change       -0.1470008E-03 Eh
 * total energy  :   -59.7411384 Eh     change       -0.5742740E-04 Eh
 * total energy  :   -59.7412037 Eh     change       -0.6530624E-04 Eh
 * total energy  :   -59.7412308 Eh     change       -0.2711586E-04 Eh
   *** GEOMETRY OPTIMIZATION CONVERGED AFTER 82 ITERATIONS ***

 final structure:
================
25
 xtb: 6.6.1 (8d0f1dd)
C            2.86514209627048        0.73048894303361       -0.39963039986202
N            1.82589709252751       -0.23134703029346       -0.08296191133190
C            2.13375241048558       -1.41175138408926        0.39745392952152
N            1.19212676001565       -2.30775775325978        0.79474040468533
C           -0.25336653476426       -2.13394168528522        0.62524342799734
C            0.50473036703905        0.14910870375341       -0.27557833020118
C           -0.04952704125662        1.44247713183954       -0.11619701960656
O            0.44158610502497        2.54268977347916       -0.15990777129827
N           -1.46028440194808        1.22633903313007        0.09521278295287
C           -2.38187600543338        2.33170419752474        0.25058698901404
C           -1.81196841733503       -0.04467188765009        0.18319952143232
O           -2.82384386476202       -0.63735892904689        0.37027426818463
N           -0.51139060872877       -0.83676034811798       -0.07823277868705
C           -0.64838865645191       -2.05907216898290       -0.84720016629353
H            3.42884427511754        0.98308524173835        0.49900992755219
H            3.54684781077956        0.31995691630890       -1.14478382301459
H            2.40466372984019        1.63729644820004       -0.78471705253985
H            3.16931913830864       -1.68045559077235        0.51585783654558
H           -1.79245086126382        3.20917402942185        0.51311005626718
H           -2.90687004775116        2.51814853352190       -0.68647884346276
H           -3.10398487579531        2.10396666886239        1.03185968616797
H           -0.51571617767818       -2.27444092880883        0.92779083621372
H            0.08746943218440       -2.22828829523795       -1.62210756651418
H           -1.67058246843399       -2.31935232834011       -1.10262128821988
H            1.49030225810838       -3.21099874932835        1.12724890239924

          :  Hamiltonian                  GFN2-xTB          :
         :: total energy             -59.741230819438 Eh    ::
         :: gradient norm              0.003746654177 Eh/a0 ::
         :: HOMO-LUMO gap              2.429063381980 eV    ::
         :: SCC energy               -42.676787932060 Eh    ::
         :: -> dispersion             -0.023274680225 Eh    ::
         :: repulsion energy           2.249762192749 Eh    ::

    * Orbital Energies and Occupations

         #    Occupation            Energy/Eh            Energy/eV
      -------------------------------------------------------------
         1        2.0000           -0.9300431             -25.3078
       ...           ...                  ...                  ...
        25        2.0000           -0.6768043             -18.4168
        26        2.0000           -0.6741993             -18.3459
        27        2.0000           -0.6670288             -18.1508
        28        2.0000           -0.6564568             -17.8631
        29        2.0000           -0.6407528             -17.4358
        30        1.9999           -0.6373096             -17.3421
        31        1.9999           -0.6306562             -17.1610
        32        1.9998           -0.6145948             -16.7240
        33        1.9996           -0.6059829             -16.4896
        34        1.9993           -0.5966077             -16.2345
        35        1.9959           -0.5684684             -15.4688
        36        1.9916           -0.5569102             -15.1543
        37        1.8760           -0.5134176             -13.9708 (HOMO)
        38        0.1022           -0.4241512             -11.5417 (LUMO)
        39        0.0356           -0.4068949             -11.0722
        40        0.0002           -0.3259729              -8.8702
        41        0.0001           -0.3037984              -8.2668
        42        0.0000           -0.2721208              -7.4048
        43        0.0000           -0.2385596              -6.4915
        44                         -0.1842452              -5.0136
        45                         -0.1692310              -4.6050
        46                         -0.1443020              -3.9267
        47                         -0.0999413              -2.7195
        48                         -0.0683023              -1.8586
       ...                                ...                  ...
        67                         10.6122387             288.7737
      -------------------------------------------------------------
                  HL-Gap            0.0892664 Eh            2.4291 eV

     #   Z          covCN         q      C6AA      α(0)
     1   6 C        3.708    -0.094    22.439     6.771
     2   7 N        2.736     0.059    20.215     6.678
     3   6 C        2.796     0.056    26.725     8.469
     4   7 N        2.690    -0.152    24.298     7.321
     5   6 C        3.721     0.058    19.714     6.341
     6   6 C        2.901    -0.055    29.376     8.887
     7   6 C        2.806     0.251    22.786     7.820
     8   8 O        0.857    -0.376    21.217     6.176
     9   7 N        2.777    -0.079    22.782     7.089
    10   6 C        3.693    -0.059    21.818     6.683
    11   6 C        2.740     0.304    21.846     7.653
    12   8 O        0.856    -0.333    20.396     6.055
    13   7 N        3.655     0.057    20.240     6.682
    14   6 C        3.741    -0.035    21.276     6.581
    15   1 H        0.924     0.103     1.756     2.072
    16   1 H        0.925     0.099     1.792     2.093
    17   1 H        0.925     0.132     1.522     1.929
    18   1 H        0.926     0.111     1.688     2.032
    19   1 H        0.925     0.117     1.639     2.002
    20   1 H        0.925     0.096     1.826     2.113
    21   1 H        0.925     0.095     1.827     2.114
    22   1 H        0.938     0.178     1.218     1.726
    23   1 H        0.925     0.115     1.653     2.011
    24   1 H        0.925     0.133     1.510     1.922
    25   1 H        0.860     0.221     1.005     1.571

Wiberg/Mayer (AO) data.
largest (>0.10) Wiberg bond orders for each atom

     #   Z sym  total        # sym  WBO       # sym  WBO       # sym  WBO
 ---------------------------------------------------------------------------
     1   6 C    3.916 --     2 N    0.970    16 H    0.965    15 H    0.965
                            17 H    0.964
     2   7 N    3.647 --     3 C    1.422     6 C    1.082     1 C    0.970
                             4 N    0.108
     3   6 C    3.834 --     2 N    1.422     4 N    1.225    18 H    0.947
     4   7 N    3.384 --     3 C    1.225     5 C    1.004    25 H    0.924
                             2 N    0.108
     5   6 C    3.860 --     4 N    1.004    22 H    0.953    14 C    0.942
                            13 N    0.871
     6   6 C    3.626 --     7 C    1.209     2 N    1.082    13 N    0.961
                             8 O    0.137
     7   6 C    3.938 --     8 O    1.667     6 C    1.209     9 N    0.951
     8   8 O    2.028 --     7 C    1.667     6 C    0.137     9 N    0.100
     9   7 N    3.571 --    11 C    1.298    10 C    0.966     7 C    0.951
                            12 O    0.196     8 O    0.100
    10   6 C    3.918 --    21 H    0.972    19 H    0.967     9 N    0.966
                            20 H    0.964
    11   6 C    3.927 --    12 O    1.754     9 N    1.298    13 N    0.772
    12   8 O    2.140 --    11 C    1.754     9 N    0.196    13 N    0.104
    13   7 N    3.710 --     6 C    0.961    14 C    0.907     5 C    0.871
                            11 C    0.772    12 O    0.104
    14   6 C    3.873 --    23 H    0.966    24 H    0.956     5 C    0.942
                            13 N    0.907
    15   1 H    0.986 --     1 C    0.965
    16   1 H    0.987 --     1 C    0.965
    17   1 H    0.982 --     1 C    0.964
    18   1 H    0.987 --     3 C    0.947
    19   1 H    0.985 --    10 C    0.967
    20   1 H    0.988 --    10 C    0.964
    21   1 H    0.990 --    10 C    0.972
    22   1 H    0.968 --     5 C    0.953
    23   1 H    0.986 --    14 C    0.966
    24   1 H    0.981 --    14 C    0.956
    25   1 H    0.950 --     4 N    0.924
 ---------------------------------------------------------------------------

molecular dipole:
                 x           y           z       tot (Debye)
 q only:        1.536      -2.358       0.030
   full:        1.670      -2.759       0.118       8.204

           -------------------------------------------------
          | TOTAL ENERGY              -59.741230819438 Eh   |
          | GRADIENT NORM               0.003746654177 Eh/α |
          | HOMO-LUMO GAP               2.429063381980 eV   |
           -------------------------------------------------

 * finished run on 2024/06/05 at 19:58:31.795
