   * xtb version 6.6.1 (8d0f1dd) compiled by 'conda@1efc2f54142f' on 2023-08-01
          program call               : xtb struc.xyz --opt loose --input .xc1 --gfn2

   ID    Z sym.   atoms
    1    6 C      1, 3, 5-7, 10, 11, 14
    2    7 N      2, 4, 9, 13
    3    8 O      8, 12
    4    1 H      15-25
constraining bond 5 14 to    5.0000000 Å, actual value:    2.4460888 Å

          :  Hamiltonian                  GFN2-xTB          :
 * total energy  :   -30.6017924 Eh     change       -0.6650680E-10 Eh
 * total energy  :   -34.8085299 Eh     change       -0.4206737E+01 Eh
 * total energy  :   -37.9759403 Eh     change       -0.3167410E+01 Eh
 * total energy  :   -40.0354229 Eh     change       -0.2059483E+01 Eh
 * total energy  :   -41.0761988 Eh     change       -0.1040776E+01 Eh
 * total energy  :   -41.3596892 Eh     change       -0.2834905E+00 Eh
 * total energy  :   -41.4083257 Eh     change       -0.4863650E-01 Eh
 * total energy  :   -41.4513111 Eh     change       -0.4298537E-01 Eh
 * total energy  :   -41.4927404 Eh     change       -0.4142935E-01 Eh
 * total energy  :   -41.5337560 Eh     change       -0.4101557E-01 Eh
 * total energy  :   -42.1868823 Eh     change       -0.9975369E-02 Eh
 * total energy  :   -42.1910423 Eh     change       -0.4160043E-02 Eh
 * total energy  :   -42.1940180 Eh     change       -0.2975637E-02 Eh
 * total energy  :   -42.1948965 Eh     change       -0.8785320E-03 Eh
 * total energy  :   -42.1954511 Eh     change       -0.5546391E-03 Eh
 * total energy  :   -42.1956605 Eh     change       -0.2093821E-03 Eh
 * total energy  :   -42.1955799 Eh     change        0.8064635E-04 Eh
 * total energy  :   -42.1958269 Eh     change       -0.2470700E-03 Eh
 * total energy  :   -42.1958352 Eh     change       -0.8246913E-05 Eh
   *** GEOMETRY OPTIMIZATION CONVERGED AFTER 54 ITERATIONS ***

 final structure:
================
25
 xtb: 6.6.1 (8d0f1dd)
C            3.35646363912297        1.77938439284793        0.02910677192021
N            2.73388785052305        0.48060663211463        0.02971432467460
C            3.35236620940342       -0.69691886747786        0.04673836407572
N            2.45167747576541       -1.69961080319009        0.04620787375575
C            1.21962874414090       -1.13349283027405        0.02705273161873
C            1.38419937155226        0.23918653417844        0.01731464534844
C            0.23195102920368        1.11414547098931       -0.00891551283260
O            0.27279522154959        2.32331148479798       -0.02430036742220
N           -0.98301540468209        0.40290798652123       -0.01573759081259
C           -2.18158865747729        1.22754718830450       -0.03581364463472
C           -1.11887119544347       -0.98643010826004       -0.00824592662945
O           -2.42560858253486       -1.25572591099935       -0.03210565000852
N           -0.02361617866090       -1.74027059894911        0.01408979663241
C           -3.63378415184228       -2.21196042054432       -0.03389796609517
H            3.89603499114892        1.94178909339323        0.96295967151843
H            4.05795622112531        1.86232940640158       -0.80130877334761
H            2.57897201267229        2.53718238737693       -0.07072747215832
H            4.41685133144947       -0.82994880926077        0.05944795753397
H           -1.86673369217445        2.26909400904217       -0.03346877322635
H           -2.76495465533522        1.01978508600167       -0.93147006658095
H           -2.79065170015215        1.02336441694579        0.84317814355873
H           -3.57147876340741       -2.85548622793657        0.84048365535110
H           -3.61669197682899       -2.78589274324546       -0.95636200428557
H           -4.45874376132740       -1.51486559934581        0.01382107838868
H            2.64338613630788       -2.69179262782993        0.05341035155785

          :  Hamiltonian                  GFN2-xTB          :
         :: total energy             -42.195835191691 Eh    ::
         :: gradient norm              0.003482432451 Eh/a0 ::
         :: HOMO-LUMO gap              3.235074924272 eV    ::
         :: SCC energy               -42.696601669479 Eh    ::
         :: -> dispersion             -0.021505984758 Eh    ::
         :: repulsion energy           0.499368536295 Eh    ::

    * Orbital Energies and Occupations

         #    Occupation            Energy/Eh            Energy/eV
      -------------------------------------------------------------
         1        2.0000           -0.8954787             -24.3672
       ...           ...                  ...                  ...
        25        2.0000           -0.6585441             -17.9199
        26        2.0000           -0.6478060             -17.6277
        27        1.9999           -0.6407926             -17.4369
        28        1.9999           -0.6285945             -17.1049
        29        1.9999           -0.6259873             -17.0340
        30        1.9995           -0.6080214             -16.5451
        31        1.9993           -0.6014862             -16.3673
        32        1.9992           -0.5995603             -16.3149
        33        1.9982           -0.5863588             -15.9556
        34        1.9915           -0.5617832             -15.2869
        35        1.9866           -0.5545632             -15.0904
        36        1.9738           -0.5438504             -14.7989
        37        1.9688           -0.5410516             -14.7228 (HOMO)
        38        0.0668           -0.4221648             -11.4877 (LUMO)
        39        0.0146           -0.3976658             -10.8210
        40        0.0021           -0.3669833              -9.9861
        41        0.0000           -0.2998941              -8.1605
        42        0.0000           -0.2737918              -7.4503
        43                         -0.1811308              -4.9288
        44                         -0.1647546              -4.4832
        45                         -0.1389593              -3.7813
        46                         -0.0714504              -1.9443
        47                         -0.0453802              -1.2349
        48                         -0.0191045              -0.5199
       ...                                ...                  ...
        67                          0.5324591              14.4889
      -------------------------------------------------------------
                  HL-Gap            0.1188868 Eh            3.2351 eV

     #   Z          covCN         q      C6AA      α(0)
     1   6 C        3.691    -0.092    22.447     6.780
     2   7 N        2.837     0.081    19.834     6.614
     3   6 C        3.090     0.056    26.642     8.460
     4   7 N        2.790    -0.042    22.042     6.973
     5   6 C        3.078     0.137    24.925     8.185
     6   6 C        3.121    -0.019    28.306     8.713
     7   6 C        2.769     0.273    22.383     7.748
     8   8 O        0.858    -0.378    21.242     6.179
     9   7 N        2.748    -0.072    22.630     7.065
    10   6 C        3.702    -0.066    21.933     6.696
    11   6 C        2.719     0.312    21.691     7.624
    12   8 O        1.680    -0.255    18.231     5.764
    13   7 N        1.829    -0.288    28.319     7.886
    14   6 C        3.595     0.014    20.949     6.627
    15   1 H        0.924     0.105     1.738     2.061
    16   1 H        0.924     0.103     1.754     2.071
    17   1 H        0.924     0.133     1.511     1.922
    18   1 H        0.926     0.123     1.590     1.972
    19   1 H        0.925     0.117     1.635     1.999
    20   1 H        0.925     0.090     1.880     2.144
    21   1 H        0.925     0.089     1.884     2.147
    22   1 H        0.925     0.107     1.722     2.052
    23   1 H        0.925     0.109     1.709     2.044
    24   1 H        0.926     0.122     1.595     1.975
    25   1 H        0.860     0.237     0.934     1.514

Wiberg/Mayer (AO) data.
largest (>0.10) Wiberg bond orders for each atom

     #   Z sym  total        # sym  WBO       # sym  WBO       # sym  WBO
 ---------------------------------------------------------------------------
     1   6 C    3.919 --     2 N    0.984    17 H    0.963    16 H    0.963
                            15 H    0.959
     2   7 N    3.692 --     3 C    1.390     6 C    1.170     1 C    0.984
     3   6 C    3.876 --     2 N    1.390     4 N    1.301    18 H    0.953
     4   7 N    3.614 --     3 C    1.301     5 C    1.198    25 H    0.916
     5   6 C    3.952 --     6 C    1.352    13 N    1.220     4 N    1.198
     6   6 C    3.921 --     5 C    1.352     2 N    1.170     7 C    1.083
     7   6 C    3.949 --     8 O    1.677     9 N    1.092     6 C    1.083
     8   8 O    2.030 --     7 C    1.677     9 N    0.150
     9   7 N    3.575 --    11 C    1.151     7 C    1.092    10 C    0.978
                             8 O    0.150
    10   6 C    3.923 --     9 N    0.978    21 H    0.966    20 H    0.965
                            19 H    0.963
    11   6 C    3.926 --    13 N    1.411    12 O    1.211     9 N    1.151
    12   8 O    2.319 --    11 C    1.211    14 C    0.860    13 N    0.112
    13   7 N    2.980 --    11 C    1.411     5 C    1.220    12 O    0.112
    14   6 C    3.836 --    22 H    0.975    23 H    0.974    24 H    0.972
                            12 O    0.860
    15   1 H    0.987 --     1 C    0.959
    16   1 H    0.987 --     1 C    0.963
    17   1 H    0.982 --     1 C    0.963
    18   1 H    0.984 --     3 C    0.953
    19   1 H    0.985 --    10 C    0.963
    20   1 H    0.988 --    10 C    0.965
    21   1 H    0.988 --    10 C    0.966
    22   1 H    0.986 --    14 C    0.975
    23   1 H    0.986 --    14 C    0.974
    24   1 H    0.984 --    14 C    0.972
    25   1 H    0.943 --     4 N    0.916
 ---------------------------------------------------------------------------

molecular dipole:
                 x           y           z       tot (Debye)
 q only:        1.599      -1.520       0.038
   full:        1.872      -1.843       0.048       6.679

           -------------------------------------------------
          | TOTAL ENERGY              -42.195835191691 Eh   |
          | GRADIENT NORM               0.003482432451 Eh/α |
          | HOMO-LUMO GAP               3.235074924272 eV   |
           -------------------------------------------------

 * finished run on 2024/06/05 at 19:58:21.006
