   * xtb version 6.6.1 (8d0f1dd) compiled by 'conda@1efc2f54142f' on 2023-08-01
          program call               : xtb xtbopt.xyz --opt crude --input .xc2 --gfn2

   ID    Z sym.   atoms
    1    6 C      1, 3, 5-7, 10, 11, 14
    2    7 N      2, 4, 9, 13
    3    8 O      8, 12
    4    1 H      15-25

          :  Hamiltonian                  GFN2-xTB          :
 * total energy  :   -42.0693742 Eh     change       -0.2344791E-12 Eh
 * total energy  :   -42.1595228 Eh     change       -0.9014864E-01 Eh
 * total energy  :   -42.2360302 Eh     change       -0.7650737E-01 Eh
 * total energy  :   -42.2443577 Eh     change       -0.8327489E-02 Eh
 * total energy  :   -42.2430199 Eh     change        0.1337781E-02 Eh
 * total energy  :   -42.2399918 Eh     change        0.3028057E-02 Eh
 * total energy  :   -42.2465311 Eh     change       -0.6539270E-02 Eh
 * total energy  :   -42.2351073 Eh     change        0.1142379E-01 Eh
 * total energy  :   -42.2470718 Eh     change       -0.1196443E-01 Eh
 * total energy  :   -42.2411076 Eh     change        0.5964175E-02 Eh
 * total energy  :   -42.2478019 Eh     change       -0.6694326E-02 Eh
 * total energy  :   -42.2478083 Eh     change       -0.6418791E-05 Eh
   *** GEOMETRY OPTIMIZATION CONVERGED AFTER 12 ITERATIONS ***

 final structure:
================
25
 xtb: 6.6.1 (8d0f1dd)
C            3.22131519534568        1.13702288443538        0.02312832487887
N            2.27260548990390        0.05518447699969        0.00203054694656
C            2.54353170367164       -1.24189170760988       -0.00618846750918
N            1.39137115509848       -1.95157041764013       -0.00813273010606
C            0.35340318573345       -1.06681773057121       -0.00059176525291
C            0.90787834541091        0.20252132151378        0.00675188892037
C            0.07947404577408        1.39653723886942       -0.00200192514160
O            0.48529706813577        2.53348576022556       -0.01687786069680
N           -1.27199477229185        1.06548341262661       -0.00297262458299
C           -2.23138183143511        2.16274373221584       -0.01295237184051
C           -1.84753215025773       -0.19284269346424        0.00209391118342
O           -3.03350998609891       -0.35941449390903        0.00493593390522
N           -0.96745293948017       -1.29944838644054       -0.00102931303827
C           -1.52160625713206       -2.63904854728755       -0.00669668566265
H            3.71955531711526        1.18345146005796        0.99249012468591
H            3.97334141607513        0.99642822993157       -0.75201362345278
H            2.68843218679762        2.07298200253150       -0.14303972897534
H            3.52526663620642       -1.67298067651914       -0.01187165016674
H           -1.67949574936396        3.09862413776361       -0.01777203726757
H           -2.89582055227079        2.08235276647150       -0.87230817651884
H           -2.84454684452293        2.11817067593482        0.89461792973142
H           -1.20814363779628       -3.18635616134923        0.88251392602698
H           -1.21853017430933       -3.17471061271391       -0.90662180690481
H           -2.60675443752335       -2.54202808439637        0.00022335730373
H            1.32572910131417       -2.95964004607607       -0.01654355856535

          :  Hamiltonian                  GFN2-xTB          :
         :: total energy             -42.247808321588 Eh    ::
         :: gradient norm              0.008721076852 Eh/a0 ::
         :: HOMO-LUMO gap              3.304896820806 eV    ::
         :: SCC energy               -42.776067889809 Eh    ::
         :: -> dispersion             -0.022654067418 Eh    ::
         :: repulsion energy           0.528145806017 Eh    ::

    * Orbital Energies and Occupations

         #    Occupation            Energy/Eh            Energy/eV
      -------------------------------------------------------------
         1        2.0000           -0.9181759             -24.9848
       ...           ...                  ...                  ...
        25        2.0000           -0.6689444             -18.2029
        26        2.0000           -0.6656016             -18.1119
        27        1.9999           -0.6573127             -17.8864
        28        1.9998           -0.6363661             -17.3164
        29        1.9997           -0.6312083             -17.1761
        30        1.9996           -0.6257262             -17.0269
        31        1.9996           -0.6228353             -16.9482
        32        1.9994           -0.6190533             -16.8453
        33        1.9978           -0.5971802             -16.2501
        34        1.9928           -0.5786276             -15.7453
        35        1.9807           -0.5629904             -15.3197
        36        1.9760           -0.5595095             -15.2250
        37        1.9743           -0.5584105             -15.1951 (HOMO)
        38        0.0691           -0.4369578             -11.8902 (LUMO)
        39        0.0101           -0.4060224             -11.0484
        40        0.0013           -0.3730086             -10.1501
        41        0.0000           -0.2888222              -7.8593
        42                         -0.2059673              -5.6047
        43                         -0.2003046              -5.4506
        44                         -0.1462897              -3.9807
        45                         -0.1323192              -3.6006
        46                         -0.0823910              -2.2420
        47                         -0.0493492              -1.3429
        48                         -0.0361659              -0.9841
       ...                                ...                  ...
        67                          0.5584544              15.1963
      -------------------------------------------------------------
                  HL-Gap            0.1214527 Eh            3.3049 eV

     #   Z          covCN         q      C6AA      α(0)
     1   6 C        3.692    -0.096    22.528     6.792
     2   7 N        2.835     0.089    19.701     6.592
     3   6 C        3.061     0.052    26.782     8.487
     4   7 N        2.798    -0.058    22.368     7.024
     5   6 C        3.045     0.116    25.407     8.267
     6   6 C        3.128    -0.024    28.405     8.726
     7   6 C        2.764     0.274    22.368     7.745
     8   8 O        0.858    -0.363    20.964     6.139
     9   7 N        2.746    -0.083    22.861     7.101
    10   6 C        3.710    -0.062    21.835     6.678
    11   6 C        2.729     0.318    21.595     7.608
    12   8 O        0.860    -0.353    20.772     6.111
    13   7 N        2.738    -0.058    22.360     7.023
    14   6 C        3.696    -0.072    22.063     6.719
    15   1 H        0.924     0.111     1.687     2.031
    16   1 H        0.925     0.107     1.721     2.051
    17   1 H        0.925     0.139     1.469     1.896
    18   1 H        0.926     0.127     1.554     1.950
    19   1 H        0.925     0.114     1.667     2.019
    20   1 H        0.925     0.101     1.776     2.084
    21   1 H        0.924     0.098     1.807     2.102
    22   1 H        0.925     0.083     1.953     2.185
    23   1 H        0.924     0.083     1.952     2.185
    24   1 H        0.925     0.129     1.544     1.943
    25   1 H        0.860     0.232     0.958     1.533

Wiberg/Mayer (AO) data.
largest (>0.10) Wiberg bond orders for each atom

     #   Z sym  total        # sym  WBO       # sym  WBO       # sym  WBO
 ---------------------------------------------------------------------------
     1   6 C    3.912 --     2 N    0.984    16 H    0.963    17 H    0.960
                            15 H    0.955
     2   7 N    3.697 --     3 C    1.404     6 C    1.168     1 C    0.984
     3   6 C    3.869 --     2 N    1.404     4 N    1.272    18 H    0.952
     4   7 N    3.593 --     3 C    1.272     5 C    1.191    25 H    0.918
     5   6 C    3.952 --     6 C    1.353    13 N    1.221     4 N    1.191
     6   6 C    3.914 --     5 C    1.353     2 N    1.168     7 C    1.059
     7   6 C    3.952 --     8 O    1.691     9 N    1.110     6 C    1.059
     8   8 O    2.040 --     7 C    1.691     9 N    0.151
     9   7 N    3.557 --    11 C    1.121     7 C    1.110    10 C    0.969
                             8 O    0.151    12 O    0.135
    10   6 C    3.910 --     9 N    0.969    19 H    0.968    20 H    0.964
                            21 H    0.962
    11   6 C    3.957 --    12 O    1.714     9 N    1.121    13 N    1.031
    12   8 O    2.064 --    11 C    1.714     9 N    0.135    13 N    0.122
    13   7 N    3.553 --     5 C    1.221    11 C    1.031    14 C    0.974
                            12 O    0.122
    14   6 C    3.923 --    13 N    0.974    22 H    0.971    23 H    0.970
                            24 H    0.963
    15   1 H    0.985 --     1 C    0.955
    16   1 H    0.986 --     1 C    0.963
    17   1 H    0.980 --     1 C    0.960
    18   1 H    0.983 --     3 C    0.952
    19   1 H    0.985 --    10 C    0.968
    20   1 H    0.984 --    10 C    0.964
    21   1 H    0.984 --    10 C    0.962
    22   1 H    0.990 --    14 C    0.971
    23   1 H    0.990 --    14 C    0.970
    24   1 H    0.983 --    14 C    0.963
    25   1 H    0.946 --     4 N    0.918
 ---------------------------------------------------------------------------

molecular dipole:
                 x           y           z       tot (Debye)
 q only:        2.597      -2.021       0.007
   full:        2.887      -2.547       0.017       9.785

           -------------------------------------------------
          | TOTAL ENERGY              -42.247808321588 Eh   |
          | GRADIENT NORM               0.008721076852 Eh/α |
          | HOMO-LUMO GAP               3.304896820806 eV   |
           -------------------------------------------------

 * finished run on 2024/06/05 at 19:58:08.502
