   * xtb version 6.6.1 (8d0f1dd) compiled by 'conda@1efc2f54142f' on 2023-08-01
          program call               : xtb struc.xyz --opt loose --input .xc1 --gfn2

   ID    Z sym.   atoms
    1    6 C      1, 3, 5-7, 10, 11, 14
    2    7 N      2, 4, 9, 13
    3    8 O      8, 12
    4    1 H      15-25
constraining bond 2 4 to    4.8400000 Å, actual value:    2.1863596 Å

          :  Hamiltonian                  GFN2-xTB          :
 * total energy  :   -17.1011121 Eh     change       -0.6650680E-10 Eh
 * total energy  :   -27.2390344 Eh     change       -0.1013792E+02 Eh
 * total energy  :   -33.3494892 Eh     change       -0.6110455E+01 Eh
 * total energy  :   -37.5924181 Eh     change       -0.4242929E+01 Eh
 * total energy  :   -40.5350205 Eh     change       -0.2942602E+01 Eh
 * total energy  :   -41.3772032 Eh     change       -0.8421826E+00 Eh
 * total energy  :   -41.4515274 Eh     change       -0.7432420E-01 Eh
 * total energy  :   -41.4903663 Eh     change       -0.3883892E-01 Eh
 * total energy  :   -41.5104702 Eh     change       -0.2010395E-01 Eh
 * total energy  :   -41.5238584 Eh     change       -0.1338814E-01 Eh
 * total energy  :   -42.1245889 Eh     change       -0.9619043E-02 Eh
 * total energy  :   -42.1250534 Eh     change       -0.4644725E-03 Eh
 * total energy  :   -42.1250188 Eh     change        0.3454459E-04 Eh
 * total energy  :   -42.1260763 Eh     change       -0.1057478E-02 Eh
 * total energy  :   -42.1262934 Eh     change       -0.2171203E-03 Eh
 * total energy  :   -42.1264698 Eh     change       -0.1763892E-03 Eh
 * total energy  :   -42.1266737 Eh     change       -0.2038837E-03 Eh
 * total energy  :   -42.1267615 Eh     change       -0.8781398E-04 Eh
 * total energy  :   -42.1268079 Eh     change       -0.4633227E-04 Eh
   *** GEOMETRY OPTIMIZATION CONVERGED AFTER 67 ITERATIONS ***

 final structure:
================
25
 xtb: 6.6.1 (8d0f1dd)
C            3.05361250294820        1.01585227736723        0.23040369853794
N            2.28872623026347        1.84752250263137       -0.67193602405325
C            2.38238076506705       -0.31053274750337        0.25291453426087
N            0.78869373548574       -2.74440942352383       -0.34067520237293
C            0.28297874683642       -1.61252624563400       -0.10013294953338
C            1.04345886055017       -0.36418639350163        0.01100923170219
C            0.30201429527414        0.85079524815157       -0.10382877979484
O            0.93068383919409        2.00105440534324       -0.28015143824560
N           -1.01830741666695        0.85906211577845        0.02205928749938
C           -1.79223042867717        2.08557455908276        0.00712199328788
C           -1.77950271739415       -0.34419945280431        0.16758432688337
O           -2.95957236631440       -0.26997978192566        0.35334386339565
N           -1.08302569225971       -1.51468009842740        0.04137211542344
C           -1.83504756805487       -2.75827363974489        0.03055304992279
H            3.14438940933090        1.42682874778286        1.25390631097381
H            4.06137575529320        0.93440399488522       -0.18606631133055
H            2.64386763775399        2.79577202781220       -0.76529681442034
H            2.95717359342222       -1.19306347395157        0.47837215329762
H           -1.12556188063719        2.94103521053769       -0.02940862665007
H           -2.45475273598790        2.08727703172421       -0.85911203640870
H           -2.41391121246125        2.12396388664100        0.90199156729821
H           -1.48481494496629       -3.40175372141430        0.83642319746249
H           -1.66719671637860       -3.27294405383325       -0.91493853039480
H           -2.89025649654838       -2.53166120526760        0.15856292844050
H            1.78525631902677       -2.83269322860717       -0.46289992728206

          :  Hamiltonian                  GFN2-xTB          :
         :: total energy             -42.126807862041 Eh    ::
         :: gradient norm              0.003201382870 Eh/a0 ::
         :: HOMO-LUMO gap              1.751237033375 eV    ::
         :: SCC energy               -42.638809183806 Eh    ::
         :: -> dispersion             -0.022559757529 Eh    ::
         :: repulsion energy           0.511841521004 Eh    ::

    * Orbital Energies and Occupations

         #    Occupation            Energy/Eh            Energy/eV
      -------------------------------------------------------------
         1        2.0000           -0.9436951             -25.6792
       ...           ...                  ...                  ...
        25        1.9999           -0.6709337             -18.2570
        26        1.9999           -0.6651898             -18.1007
        27        1.9997           -0.6489902             -17.6599
        28        1.9994           -0.6387081             -17.3801
        29        1.9992           -0.6338799             -17.2487
        30        1.9991           -0.6314367             -17.1823
        31        1.9976           -0.6165079             -16.7760
        32        1.9962           -0.6090148             -16.5721
        33        1.9880           -0.5909509             -16.0806
        34        1.9872           -0.5899116             -16.0523
        35        1.9326           -0.5631584             -15.3243
        36        1.9127           -0.5588939             -15.2083
        37        1.8451           -0.5492385             -14.9455 (HOMO)
        38        0.3396           -0.4848818             -13.1943 (LUMO)
        39        0.0033           -0.4086561             -11.1201
        40        0.0005           -0.3801292             -10.3438
        41        0.0000           -0.2995931              -8.1523
        42        0.0000           -0.2806425              -7.6367
        43                         -0.1928323              -5.2472
        44                         -0.1468093              -3.9949
        45                         -0.1223650              -3.3297
        46                         -0.0979794              -2.6662
        47                         -0.0859139              -2.3378
        48                         -0.0536766              -1.4606
       ...                                ...                  ...
        67                          0.5391347              14.6706
      -------------------------------------------------------------
                  HL-Gap            0.0643568 Eh            1.7512 eV

     #   Z          covCN         q      C6AA      α(0)
     1   6 C        3.741    -0.005    20.737     6.497
     2   7 N        2.716    -0.080    22.802     7.092
     3   6 C        2.916    -0.007    28.201     8.708
     4   7 N        1.792    -0.269    27.810     7.811
     5   6 C        2.834     0.164    24.464     8.105
     6   6 C        2.964    -0.035    28.878     8.814
     7   6 C        2.816     0.226    23.263     7.903
     8   8 O        1.766    -0.137    16.356     5.461
     9   7 N        2.739    -0.033    21.874     6.946
    10   6 C        3.702    -0.072    22.040     6.713
    11   6 C        2.721     0.317    21.608     7.610
    12   8 O        0.859    -0.335    20.426     6.059
    13   7 N        2.753    -0.039    21.991     6.965
    14   6 C        3.709    -0.076    22.092     6.718
    15   1 H        0.922     0.088     1.900     2.156
    16   1 H        0.924     0.117     1.635     1.999
    17   1 H        0.860     0.210     1.055     1.609
    18   1 H        0.926     0.098     1.802     2.099
    19   1 H        0.925     0.103     1.756     2.072
    20   1 H        0.924     0.116     1.649     2.008
    21   1 H        0.924     0.120     1.610     1.984
    22   1 H        0.925     0.108     1.717     2.049
    23   1 H        0.925     0.111     1.686     2.030
    24   1 H        0.925     0.117     1.635     2.000
    25   1 H        0.860     0.192     1.149     1.679

Wiberg/Mayer (AO) data.
largest (>0.10) Wiberg bond orders for each atom

     #   Z sym  total        # sym  WBO       # sym  WBO       # sym  WBO
 ---------------------------------------------------------------------------
     1   6 C    3.954 --     3 C    1.044     2 N    1.007    16 H    0.935
                            15 H    0.923
     2   7 N    2.993 --     1 C    1.007     8 O    0.947    17 H    0.932
     3   6 C    3.744 --     6 C    1.589     1 C    1.044    18 H    0.956
     4   7 N    2.906 --     5 C    1.724    25 H    0.927
     5   6 C    3.952 --     4 N    1.724    13 N    1.126     6 C    1.021
     6   6 C    3.922 --     3 C    1.589     7 C    1.142     5 C    1.021
     7   6 C    3.804 --     9 N    1.326     8 O    1.173     6 C    1.142
     8   8 O    2.320 --     7 C    1.173     2 N    0.947
     9   7 N    3.576 --     7 C    1.326    11 C    0.984    10 C    0.972
    10   6 C    3.911 --    19 H    0.972     9 N    0.972    21 H    0.956
                            20 H    0.955
    11   6 C    3.941 --    12 O    1.718    13 N    1.154     9 N    0.984
    12   8 O    2.045 --    11 C    1.718    13 N    0.141
    13   7 N    3.553 --    11 C    1.154     5 C    1.126    14 C    0.968
                            12 O    0.141
    14   6 C    3.896 --    13 N    0.968    24 H    0.967    22 H    0.958
                            23 H    0.955
    15   1 H    0.969 --     1 C    0.923
    16   1 H    0.979 --     1 C    0.935
    17   1 H    0.953 --     2 N    0.932
    18   1 H    0.988 --     3 C    0.956
    19   1 H    0.988 --    10 C    0.972
    20   1 H    0.977 --    10 C    0.955
    21   1 H    0.978 --    10 C    0.956
    22   1 H    0.977 --    14 C    0.958
    23   1 H    0.975 --    14 C    0.955
    24   1 H    0.983 --    14 C    0.967
    25   1 H    0.956 --     4 N    0.927
 ---------------------------------------------------------------------------

molecular dipole:
                 x           y           z       tot (Debye)
 q only:        1.625       0.493      -0.058
   full:        2.188       1.001       0.160       6.128

           -------------------------------------------------
          | TOTAL ENERGY              -42.126807862041 Eh   |
          | GRADIENT NORM               0.003201382870 Eh/α |
          | HOMO-LUMO GAP               1.751237033375 eV   |
           -------------------------------------------------

 * finished run on 2024/06/05 at 19:59:07.485
