   * xtb version 6.6.1 (8d0f1dd) compiled by 'conda@1efc2f54142f' on 2023-08-01
          program call               : xtb xtbopt.xyz --opt crude --input .xc2 --gfn2

   ID    Z sym.   atoms
    1    6 C      1, 3, 5-7, 10, 11, 14
    2    7 N      2, 4, 9, 13
    3    8 O      8, 12
    4    1 H      15-25
########################################################################
[WARNING] Please study the warnings concerning your input carefully
-1- readin_getIntValue: could not parse ''
########################################################################

          :  Hamiltonian                  GFN2-xTB          :
 * total energy  :   -42.1268232 Eh     change       -0.1776357E-12 Eh
 * total energy  :   -42.1275000 Eh     change       -0.6767938E-03 Eh
 * total energy  :   -42.1279594 Eh     change       -0.4593859E-03 Eh
   *** GEOMETRY OPTIMIZATION CONVERGED AFTER 3 ITERATIONS ***

 final structure:
================
25
 xtb: 6.6.1 (8d0f1dd)
C            3.05668553252510        1.03302976387793        0.21789047113761
N            2.29784189390872        1.92365274885467       -0.63702134260824
C            2.39495384871454       -0.30393944945758        0.19377993704294
N            0.75392337495764       -2.80026879268306       -0.28695783405590
C            0.28357476815188       -1.63721302363615       -0.09932596143487
C            1.05222595292024       -0.37779051272642       -0.02910161265655
C            0.31164961542411        0.84418104812517       -0.12628753567516
O            0.92701139841650        2.00910382268512       -0.26649410526725
N           -1.01045741457150        0.85230770879494        0.00104961278511
C           -1.78369268745037        2.08007714352023       -0.00319326157985
C           -1.77404235607792       -0.34554193980643        0.15172290430523
O           -2.95529856145782       -0.26590430673594        0.33215394398703
N           -1.08149506136354       -1.52030856662909        0.04561068977898
C           -1.84391336158608       -2.75750362035445        0.04363601797425
H            3.14854406948136        1.38903890736428        1.26059671733805
H            4.06242663795140        0.97581427114917       -0.20407349793900
H            2.63479544209104        2.88343401745516       -0.66811474827292
H            2.98341864823959       -1.18036661368577        0.40748883653999
H           -1.11747522757005        2.93604471823470       -0.03565845768603
H           -2.44847670526410        2.08729076191121       -0.86766729017220
H           -2.40385831445231        2.11326675902908        0.89315047420509
H           -1.49822026176978       -3.40015430306824        0.85231428376395
H           -1.67991564359770       -3.27904338898512       -0.89935256261636
H           -2.89767984491996       -2.52238558205618        0.17013335053592
H            1.74790577139851       -2.91858302957840       -0.41510741153019

          :  Hamiltonian                  GFN2-xTB          :
         :: total energy             -42.127959393436 Eh    ::
         :: gradient norm              0.006124901492 Eh/a0 ::
         :: HOMO-LUMO gap              1.767465953501 eV    ::
         :: SCC energy               -42.633761089916 Eh    ::
         :: -> dispersion             -0.022483718846 Eh    ::
         :: repulsion energy           0.505660779153 Eh    ::

    * Orbital Energies and Occupations

         #    Occupation            Energy/Eh            Energy/eV
      -------------------------------------------------------------
         1        2.0000           -0.9427792             -25.6543
       ...           ...                  ...                  ...
        25        1.9999           -0.6704393             -18.2436
        26        1.9999           -0.6639641             -18.0674
        27        1.9997           -0.6491635             -17.6646
        28        1.9994           -0.6385422             -17.3756
        29        1.9992           -0.6332619             -17.2319
        30        1.9991           -0.6309313             -17.1685
        31        1.9976           -0.6159566             -16.7610
        32        1.9961           -0.6084097             -16.5557
        33        1.9879           -0.5905293             -16.0691
        34        1.9869           -0.5892728             -16.0349
        35        1.9304           -0.5623260             -15.3017
        36        1.9085           -0.5578298             -15.1793
        37        1.8509           -0.5496089             -14.9556 (HOMO)
        38        0.3407           -0.4846557             -13.1882 (LUMO)
        39        0.0035           -0.4092479             -11.1362
        40        0.0005           -0.3795794             -10.3289
        41        0.0000           -0.2996017              -8.1526
        42        0.0000           -0.2832728              -7.7082
        43                         -0.1913213              -5.2061
        44                         -0.1480216              -4.0279
        45                         -0.1307936              -3.5591
        46                         -0.1029987              -2.8027
        47                         -0.0849363              -2.3112
        48                         -0.0565253              -1.5381
       ...                                ...                  ...
        67                          0.5340352              14.5318
      -------------------------------------------------------------
                  HL-Gap            0.0649532 Eh            1.7675 eV

     #   Z          covCN         q      C6AA      α(0)
     1   6 C        3.739    -0.005    20.745     6.499
     2   7 N        2.704    -0.078    22.755     7.085
     3   6 C        2.912    -0.007    28.197     8.707
     4   7 N        1.792    -0.269    27.804     7.810
     5   6 C        2.831     0.162    24.502     8.111
     6   6 C        2.959    -0.035    28.871     8.813
     7   6 C        2.809     0.224    23.283     7.905
     8   8 O        1.766    -0.136    16.352     5.460
     9   7 N        2.739    -0.032    21.861     6.944
    10   6 C        3.703    -0.072    22.048     6.714
    11   6 C        2.721     0.317    21.612     7.610
    12   8 O        0.859    -0.337    20.453     6.064
    13   7 N        2.755    -0.038    21.974     6.962
    14   6 C        3.710    -0.076    22.098     6.718
    15   1 H        0.922     0.088     1.897     2.154
    16   1 H        0.924     0.117     1.635     1.999
    17   1 H        0.860     0.211     1.050     1.605
    18   1 H        0.926     0.098     1.803     2.100
    19   1 H        0.925     0.103     1.755     2.072
    20   1 H        0.924     0.116     1.647     2.007
    21   1 H        0.924     0.120     1.611     1.985
    22   1 H        0.925     0.109     1.705     2.042
    23   1 H        0.925     0.111     1.689     2.032
    24   1 H        0.925     0.117     1.634     1.999
    25   1 H        0.860     0.190     1.159     1.687

Wiberg/Mayer (AO) data.
largest (>0.10) Wiberg bond orders for each atom

     #   Z sym  total        # sym  WBO       # sym  WBO       # sym  WBO
 ---------------------------------------------------------------------------
     1   6 C    3.953 --     3 C    1.042     2 N    1.006    16 H    0.936
                            15 H    0.922
     2   7 N    2.996 --     1 C    1.006     8 O    0.948    17 H    0.932
     3   6 C    3.743 --     6 C    1.591     1 C    1.042    18 H    0.957
     4   7 N    2.908 --     5 C    1.723    25 H    0.929
     5   6 C    3.951 --     4 N    1.723    13 N    1.128     6 C    1.017
     6   6 C    3.922 --     3 C    1.591     7 C    1.141     5 C    1.017
     7   6 C    3.802 --     9 N    1.323     8 O    1.174     6 C    1.141
     8   8 O    2.322 --     7 C    1.174     2 N    0.948
     9   7 N    3.576 --     7 C    1.323    11 C    0.988    10 C    0.971
    10   6 C    3.911 --    19 H    0.972     9 N    0.971    21 H    0.956
                            20 H    0.955
    11   6 C    3.941 --    12 O    1.715    13 N    1.154     9 N    0.988
    12   8 O    2.041 --    11 C    1.715    13 N    0.140
    13   7 N    3.554 --    11 C    1.154     5 C    1.128    14 C    0.969
                            12 O    0.140
    14   6 C    3.896 --    13 N    0.969    24 H    0.967    22 H    0.957
                            23 H    0.955
    15   1 H    0.968 --     1 C    0.922
    16   1 H    0.979 --     1 C    0.936
    17   1 H    0.953 --     2 N    0.932
    18   1 H    0.988 --     3 C    0.957
    19   1 H    0.988 --    10 C    0.972
    20   1 H    0.977 --    10 C    0.955
    21   1 H    0.978 --    10 C    0.956
    22   1 H    0.977 --    14 C    0.957
    23   1 H    0.975 --    14 C    0.955
    24   1 H    0.983 --    14 C    0.967
    25   1 H    0.956 --     4 N    0.929
 ---------------------------------------------------------------------------

molecular dipole:
                 x           y           z       tot (Debye)
 q only:        1.647       0.526      -0.053
   full:        2.223       1.016       0.152       6.224

           -------------------------------------------------
          | TOTAL ENERGY              -42.127959393436 Eh   |
          | GRADIENT NORM               0.006124901492 Eh/α |
          | HOMO-LUMO GAP               1.767465953501 eV   |
           -------------------------------------------------

 * finished run on 2024/06/05 at 19:59:07.708
