   * xtb version 6.6.1 (8d0f1dd) compiled by 'conda@1efc2f54142f' on 2023-08-01
          program call               : xtb xtbopt.xyz --opt crude --input .xc2 --gfn2

   ID    Z sym.   atoms
    1    6 C      1, 3, 5-7, 10, 11, 14
    2    7 N      2, 4, 9, 13
    3    8 O      8, 12
    4    1 H      15-25

          :  Hamiltonian                  GFN2-xTB          :
 * total energy  :   -42.1357241 Eh     change       -0.6536993E-12 Eh
   *** GEOMETRY OPTIMIZATION CONVERGED AFTER 1 ITERATIONS ***

 final structure:
================
25
 xtb: 6.6.1 (8d0f1dd)
C            3.23336184017848        1.18428937501889        0.04712602362471
N            2.27511534817022        0.11494232963422       -0.02047721489940
C            2.54166246618448       -1.19370123603938       -0.06821937886890
N            1.38632121318446       -1.89854125309424       -0.12111395871575
C            0.34715223429340       -1.00469860529751       -0.10222209288698
C            0.90738579360669        0.26920977654723       -0.03813515765242
C            0.10582834115329        1.46538520764195       -0.02308475090712
O            0.52192394089510        2.60670614020234       -0.00616047959615
N           -1.26456354620086        1.16360604357066       -0.03362539595009
C           -2.19649809054440        2.28289238591296        0.00869209036446
C           -1.85825241897937       -0.07204661075360       -0.07321161566195
O           -3.04795981393170       -0.23407363255319       -0.06005877402191
N           -0.99161256772203       -1.23090986561949       -0.14187172155327
C           -1.56801701681405       -2.43957806534605       -0.25333399210788
H            3.73459233103851        1.18627652820333        1.01683876909570
H            3.98395107134014        1.07011403018174       -0.73460558913041
H            2.71032833704397        2.13166712170184       -0.08089981155805
H            3.52064744417691       -1.62873139748858       -0.06917636468638
H           -1.61784603659887        3.20379787468141        0.01734164765179
H           -2.84927906473616        2.25294787809071       -0.86402439256958
H           -2.81687125468920        2.21438416953779        0.90243065858485
H           -1.59730427289310       -4.91707972368264        1.44926376996088
H           -0.97584962371426       -3.33230482151470       -0.28849130825048
H           -2.64097184071205       -2.47086179847591       -0.27829463378376
H            1.31718670037036       -2.90545330945940       -0.15351470858196

          :  Hamiltonian                  GFN2-xTB          :
         :: total energy             -42.135724073240 Eh    ::
         :: gradient norm              0.003043008037 Eh/a0 ::
         :: HOMO-LUMO gap              0.303676907156 eV    ::
         :: SCC energy               -42.652682374641 Eh    ::
         :: -> dispersion             -0.022696539521 Eh    ::
         :: repulsion energy           0.516864720273 Eh    ::

    * Orbital Energies and Occupations

         #    Occupation            Energy/Eh            Energy/eV
      -------------------------------------------------------------
         1        2.0000           -0.9141521             -24.8753
       ...           ...                  ...                  ...
        25        1.9992           -0.6753201             -18.3764
        26        1.9990           -0.6699041             -18.2290
        27        1.9989           -0.6659671             -18.1219
        28        1.9962           -0.6373805             -17.3440
        29        1.9958           -0.6351139             -17.2823
        30        1.9957           -0.6344822             -17.2651
        31        1.9920           -0.6197459             -16.8641
        32        1.9869           -0.6078706             -16.5410
        33        1.9737           -0.5912752             -16.0894
        34        1.9720           -0.5897633             -16.0483
        35        1.9384           -0.5706059             -15.5270
        36        1.9372           -0.5701074             -15.5134
        37        1.0887           -0.4928954             -13.4124 (HOMO)
        38        0.8550           -0.4817355             -13.1087 (LUMO)
        39        0.1998           -0.4364615             -11.8767
        40        0.0547           -0.4038428             -10.9891
        41        0.0184           -0.3775360             -10.2733
        42        0.0005           -0.2930905              -7.9754
        43        0.0000           -0.2140836              -5.8255
        44        0.0000           -0.2023920              -5.5074
        45        0.0000           -0.1514552              -4.1213
        46        0.0000           -0.1388344              -3.7779
        47                         -0.0693083              -1.8860
        48                         -0.0402539              -1.0954
       ...                                ...                  ...
        67                          0.5384508              14.6520
      -------------------------------------------------------------
                  HL-Gap            0.0111599 Eh            0.3037 eV

     #   Z          covCN         q      C6AA      α(0)
     1   6 C        3.691    -0.094    22.485     6.786
     2   7 N        2.824     0.076    19.915     6.628
     3   6 C        3.039     0.047    26.908     8.508
     4   7 N        2.782    -0.058    22.359     7.023
     5   6 C        3.033     0.091    25.939     8.354
     6   6 C        3.102    -0.013    28.213     8.704
     7   6 C        2.763     0.262    22.589     7.783
     8   8 O        0.858    -0.357    20.833     6.120
     9   7 N        2.744    -0.072    22.646     7.068
    10   6 C        3.711    -0.063    21.853     6.680
    11   6 C        2.735     0.307    21.781     7.641
    12   8 O        0.859    -0.332    20.374     6.052
    13   7 N        2.736     0.013    21.037     6.812
    14   6 C        2.798    -0.055    29.353     8.875
    15   1 H        0.924     0.111     1.692     2.034
    16   1 H        0.925     0.108     1.717     2.049
    17   1 H        0.925     0.138     1.477     1.901
    18   1 H        0.926     0.126     1.568     1.958
    19   1 H        0.925     0.123     1.588     1.971
    20   1 H        0.924     0.108     1.715     2.048
    21   1 H        0.925     0.108     1.714     2.047
    22   1 H        0.000    -0.033     9.217     5.551
    23   1 H        0.926     0.096     1.825     2.112
    24   1 H        0.926     0.136     1.490     1.909
    25   1 H        0.860     0.229     0.970     1.543

Wiberg/Mayer (AO) data.
largest (>0.10) Wiberg bond orders for each atom

     #   Z sym  total        # sym  WBO       # sym  WBO       # sym  WBO
 ---------------------------------------------------------------------------
     1   6 C    3.904 --     2 N    0.988    16 H    0.960    17 H    0.956
                            15 H    0.952
     2   7 N    3.617 --     3 C    1.346     6 C    1.157     1 C    0.988
     3   6 C    3.755 --     2 N    1.346     4 N    1.267    18 H    0.953
     4   7 N    3.527 --     3 C    1.267     5 C    1.172    25 H    0.918
     5   6 C    3.852 --     6 C    1.324     4 N    1.172    13 N    1.152
     6   6 C    3.830 --     5 C    1.324     2 N    1.157     7 C    1.090
     7   6 C    3.882 --     8 O    1.642     6 C    1.090     9 N    1.070
     8   8 O    1.919 --     7 C    1.642     9 N    0.121
     9   7 N    3.517 --    11 C    1.157     7 C    1.070    10 C    0.970
                            12 O    0.138     8 O    0.121
    10   6 C    3.881 --     9 N    0.970    19 H    0.958    20 H    0.954
                            21 H    0.953
    11   6 C    3.899 --    12 O    1.701     9 N    1.157    13 N    0.951
    12   8 O    2.001 --    11 C    1.701     9 N    0.138
    13   7 N    3.603 --    14 C    1.292     5 C    1.152    11 C    0.951
    14   6 C    3.320 --    13 N    1.292    23 H    0.962    24 H    0.956
    15   1 H    0.978 --     1 C    0.952
    16   1 H    0.981 --     1 C    0.960
    17   1 H    0.978 --     1 C    0.956
    18   1 H    0.983 --     3 C    0.953
    19   1 H    0.977 --    10 C    0.958
    20   1 H    0.972 --    10 C    0.954
    21   1 H    0.971 --    10 C    0.953
    22   1 H    0.016
    23   1 H    0.988 --    14 C    0.962
    24   1 H    0.979 --    14 C    0.956
    25   1 H    0.947 --     4 N    0.918
 ---------------------------------------------------------------------------

molecular dipole:
                 x           y           z       tot (Debye)
 q only:        2.392      -1.303      -0.249
   full:        2.624      -1.860      -0.248       8.200

           -------------------------------------------------
          | TOTAL ENERGY              -42.135724073240 Eh   |
          | GRADIENT NORM               0.003043008037 Eh/α |
          | HOMO-LUMO GAP               0.303676907156 eV   |
           -------------------------------------------------

 * finished run on 2024/06/05 at 19:58:54.835
