   * xtb version 6.6.1 (8d0f1dd) compiled by 'conda@1efc2f54142f' on 2023-08-01
          program call               : xtb struc.xyz --opt loose --input .xc1 --gfn2

   ID    Z sym.   atoms
    1    6 C      1, 3, 5-7, 10, 11, 14
    2    7 N      2, 4, 9, 13
    3    8 O      8, 12
    4    1 H      15-25
constraining bond 12 20 to    4.6333300 Å, actual value:    2.6315711 Å

          :  Hamiltonian                  GFN2-xTB          :
 * total energy  :   -49.4025548 Eh     change       -0.6650680E-10 Eh
 * total energy  :   -55.6976636 Eh     change       -0.6295109E+01 Eh
 * total energy  :   -63.8918353 Eh     change       -0.8194172E+01 Eh
 * total energy  :   -71.9786553 Eh     change       -0.8086820E+01 Eh
 * total energy  :   -71.7009299 Eh     change        0.2777255E+00 Eh
 * total energy  :   -72.0299950 Eh     change       -0.3290651E+00 Eh
 * total energy  :   -72.0607352 Eh     change       -0.3074023E-01 Eh
 * total energy  :   -72.1026537 Eh     change       -0.4191845E-01 Eh
 * total energy  :   -72.1315158 Eh     change       -0.2886216E-01 Eh
 * total energy  :   -72.1477754 Eh     change       -0.1625956E-01 Eh
 * total energy  :   -72.2206551 Eh     change       -0.5426497E-04 Eh
 * total energy  :   -72.2207055 Eh     change       -0.5037527E-04 Eh
 * total energy  :   -72.2207411 Eh     change       -0.3558535E-04 Eh
 * total energy  :   -72.2207784 Eh     change       -0.3725743E-04 Eh
 * total energy  :   -72.2208077 Eh     change       -0.2936366E-04 Eh
 * total energy  :   -72.2208343 Eh     change       -0.2653868E-04 Eh
 * total energy  :   -72.2206549 Eh     change        0.1793238E-03 Eh
 * total energy  :   -72.2208487 Eh     change       -0.1938035E-03 Eh
 * total energy  :   -72.2208534 Eh     change       -0.4621089E-05 Eh
   *** GEOMETRY OPTIMIZATION CONVERGED AFTER 46 ITERATIONS ***

 final structure:
================
25
 xtb: 6.6.1 (8d0f1dd)
C            3.31128040158963        1.10424916281326        0.06347877097867
N            2.31216101288953        0.07188350179859        0.01911468733316
C            2.53299713238292       -1.24885962513165       -0.01897366431945
N            1.34565565276996       -1.91213618867399       -0.04482593192186
C            0.34549621021265       -0.98472502910815       -0.02346710469141
C            0.94431275126121        0.27704029869137        0.01710122241552
C            0.21165946520426        1.48762063244409        0.04798329848474
O            0.61883103326352        2.62787153591786        0.07944477992009
N           -1.24429558315421        1.23551199587428        0.03604493355500
C           -2.01140965968057        2.33103104714593        0.07209460928211
C           -1.76925935430078       -0.01797093071053       -0.01167560488765
O           -3.10887066040642       -0.18636857548777       -0.04510681416399
N           -0.99259419350226       -1.15572367638673       -0.03724575626583
C           -1.57845656161026       -2.48016284349484       -0.06982196126403
H            3.91586968919373        1.00920644040640        0.96613981921599
H            3.96556449764156        1.03720705853102       -0.80610606893186
H            2.81103894943903        2.07128692031165        0.06599447871625
H            3.49437260833531       -1.71729959004271       -0.02762700864722
H           -1.50725640166257        3.27512133664029        0.10390147231091
H           -3.40293814762382        0.08057368254261       -0.13107208116137
H           -3.07945387869475        2.26984616403324        0.08811260183509
H           -1.21875260848607       -3.06687505363159        0.77589542076953
H           -1.32158048214012       -2.98261201231656       -1.00336914843161
H           -2.65856848840508       -2.39338650780597       -0.00142442134712
H            1.24462812958351       -2.91409120276013       -0.08341891088409

          :  Hamiltonian                  GFN2-xTB          :
         :: total energy             -72.220853365045 Eh    ::
         :: gradient norm              0.003108767726 Eh/a0 ::
         :: HOMO-LUMO gap              1.185353334733 eV    ::
         :: SCC energy               -42.726829333912 Eh    ::
         :: -> dispersion             -0.022960677496 Eh    ::
         :: repulsion energy           2.408546955970 Eh    ::

    * Orbital Energies and Occupations

         #    Occupation            Energy/Eh            Energy/eV
      -------------------------------------------------------------
         1        2.0000           -0.9133470             -24.8534
       ...           ...                  ...                  ...
        25        2.0000           -0.6656404             -18.1130
        26        2.0000           -0.6618020             -18.0085
        27        2.0000           -0.6513581             -17.7244
        28        2.0000           -0.6382097             -17.3666
        29        2.0000           -0.6304899             -17.1565
        30        2.0000           -0.6267943             -17.0559
        31        2.0000           -0.6168611             -16.7856
        32        2.0000           -0.6139081             -16.7053
        33        1.9999           -0.5956612             -16.2088
        34        1.9999           -0.5940580             -16.1651
        35        1.9981           -0.5522675             -15.0280
        36        1.9979           -0.5506580             -14.9842
        37        1.5589           -0.4616987             -12.5635 (HOMO)
        38        0.3683           -0.4181377             -11.3781 (LUMO)
        39        0.0487           -0.3832854             -10.4297
        40        0.0282           -0.3744796             -10.1901
        41        0.0001           -0.2744957              -7.4694
        42        0.0000           -0.2035916              -5.5400
        43        0.0000           -0.1840617              -5.0086
        44                         -0.1588814              -4.3234
        45                         -0.1234340              -3.3588
        46                         -0.0778370              -2.1181
        47                         -0.0392396              -1.0678
        48                         -0.0151113              -0.4112
       ...                                ...                  ...
        67                          5.3378477             145.2502
      -------------------------------------------------------------
                  HL-Gap            0.0435609 Eh            1.1854 eV

     #   Z          covCN         q      C6AA      α(0)
     1   6 C        3.690    -0.090    22.423     6.777
     2   7 N        2.821     0.061    20.184     6.673
     3   6 C        3.028     0.033    27.227     8.559
     4   7 N        2.777    -0.067    22.543     7.052
     5   6 C        3.049     0.085    26.052     8.371
     6   6 C        3.083    -0.027    28.584     8.765
     7   6 C        2.774     0.240    22.980     7.851
     8   8 O        0.857    -0.370    21.097     6.158
     9   7 N        2.736    -0.009    21.433     6.876
    10   6 C        2.812    -0.083    30.055     8.982
    11   6 C        2.804     0.194    23.855     8.002
    12   8 O        1.664    -0.377    20.409     6.099
    13   7 N        2.736    -0.016    21.558     6.896
    14   6 C        3.698    -0.082    22.237     6.745
    15   1 H        0.924     0.098     1.802     2.099
    16   1 H        0.924     0.098     1.805     2.101
    17   1 H        0.925     0.129     1.542     1.942
    18   1 H        0.927     0.112     1.677     2.025
    19   1 H        0.926     0.114     1.665     2.018
    20   1 H        0.861     0.369     0.539     1.150
    21   1 H        0.927     0.073     2.058     2.243
    22   1 H        0.924     0.089     1.886     2.148
    23   1 H        0.924     0.090     1.878     2.143
    24   1 H        0.925     0.117     1.634     1.999
    25   1 H        0.860     0.218     1.019     1.581

Wiberg/Mayer (AO) data.
largest (>0.10) Wiberg bond orders for each atom

     #   Z sym  total        # sym  WBO       # sym  WBO       # sym  WBO
 ---------------------------------------------------------------------------
     1   6 C    3.924 --     2 N    0.990    17 H    0.963    16 H    0.963
                            15 H    0.962
     2   7 N    3.581 --     3 C    1.332     6 C    1.130     1 C    0.990
     3   6 C    3.716 --     2 N    1.332     4 N    1.237    18 H    0.957
     4   7 N    3.525 --     3 C    1.237     5 C    1.183    25 H    0.925
     5   6 C    3.881 --     6 C    1.286    13 N    1.183     4 N    1.183
     6   6 C    3.889 --     5 C    1.286     7 C    1.167     2 N    1.130
     7   6 C    3.842 --     8 O    1.663     6 C    1.167     9 N    0.907
     8   8 O    1.968 --     7 C    1.663     9 N    0.102
     9   7 N    3.665 --    10 C    1.319    11 C    1.202     7 C    0.907
                             8 O    0.102
    10   6 C    3.540 --     9 N    1.319    21 H    0.973    19 H    0.962
                            11 C    0.145
    11   6 C    3.697 --     9 N    1.202    13 N    1.139    12 O    1.098
                            10 C    0.145
    12   8 O    2.128 --    11 C    1.098    20 H    0.856
    13   7 N    3.539 --     5 C    1.183    11 C    1.139    14 C    0.976
    14   6 C    3.929 --    13 N    0.976    22 H    0.970    23 H    0.969
                            24 H    0.969
    15   1 H    0.984 --     1 C    0.962
    16   1 H    0.984 --     1 C    0.963
    17   1 H    0.983 --     1 C    0.963
    18   1 H    0.986 --     3 C    0.957
    19   1 H    0.986 --    10 C    0.962
    20   1 H    0.863 --    12 O    0.856
    21   1 H    0.994 --    10 C    0.973
    22   1 H    0.988 --    14 C    0.970
    23   1 H    0.987 --    14 C    0.969
    24   1 H    0.986 --    14 C    0.969
    25   1 H    0.952 --     4 N    0.925
 ---------------------------------------------------------------------------

molecular dipole:
                 x           y           z       tot (Debye)
 q only:        0.791      -2.359      -0.106
   full:        0.565      -2.717      -0.159       7.065

           -------------------------------------------------
          | TOTAL ENERGY              -72.220853365045 Eh   |
          | GRADIENT NORM               0.003108767726 Eh/α |
          | HOMO-LUMO GAP               1.185353334733 eV   |
           -------------------------------------------------

 * finished run on 2024/06/05 at 19:57:58.040
