   * xtb version 6.6.1 (8d0f1dd) compiled by 'conda@1efc2f54142f' on 2023-08-01
          program call               : xtb xtbopt.xyz --opt crude --input .xc2 --gfn2

   ID    Z sym.   atoms
    1    6 C      1, 3, 5-7, 10, 11, 14
    2    7 N      2, 4, 9, 13
    3    8 O      8, 12
    4    1 H      15-25
########################################################################
[WARNING] Please study the warnings concerning your input carefully
-1- readin_getIntValue: could not parse ''
########################################################################

          :  Hamiltonian                  GFN2-xTB          :
 * total energy  :   -39.8675401 Eh     change       -0.2842171E-13 Eh
 * total energy  :   -42.0864674 Eh     change       -0.2218927E+01 Eh
 * total energy  :   -42.1322570 Eh     change       -0.4578961E-01 Eh
 * total energy  :   -42.1376226 Eh     change       -0.5365617E-02 Eh
 * total energy  :   -42.1387241 Eh     change       -0.1101484E-02 Eh
 * total energy  :   -42.1391479 Eh     change       -0.4237732E-03 Eh
 * total energy  :   -42.1397172 Eh     change       -0.5692601E-03 Eh
 * total energy  :   -42.1401806 Eh     change       -0.4634855E-03 Eh
 * total energy  :   -42.1405177 Eh     change       -0.3370897E-03 Eh
 * total energy  :   -42.1406181 Eh     change       -0.1003616E-03 Eh
   *** GEOMETRY OPTIMIZATION CONVERGED AFTER 10 ITERATIONS ***

 final structure:
================
25
 xtb: 6.6.1 (8d0f1dd)
C            4.04623049865136        0.71756032848879        0.30408404319905
N            2.72748628968324        0.20244125316847        0.22056709698547
C            2.46915019132201       -1.02239589286279        0.06551554163698
N            1.19093342610623       -1.49882643555191       -0.01935976460560
C            0.05906716651819       -0.73796076324975        0.05196437573107
C           -0.09231404493985        0.60711240548923        0.26107498500344
C           -2.01292470104914        2.86591506613891       -0.87194355885947
O           -1.72311848053837        3.17617567032789       -1.94453603559180
N           -1.44708629725580        0.86382287911060        0.25644573525348
C           -2.13763760720930        2.13201619655119        0.35050931293761
C           -2.14783260937803       -0.31416271796382        0.01730427087900
O           -3.34579385313345       -0.41274429308833       -0.05995701972013
N           -1.18914224257720       -1.29778905562260       -0.09132969935558
C           -1.51423739276365       -2.68157747489297       -0.32559520308964
H            4.15336170054260        1.24107963971377        1.25544046732580
H            4.82041755115721       -0.05385110259621        0.22455470145602
H            4.18154037817311        1.44963649042504       -0.49376175763945
H            3.23109020000709       -1.80520847728610       -0.01688188460253
H            0.65417584570220        1.35238964328169        0.42983372487316
H           -3.20279607147638        1.88748116365416        0.52023961076688
H           -1.77556869744311        2.72593462049262        1.20097455614936
H           -1.17431315575990       -3.30679207168346        0.50166560193454
H           -1.07920210220477       -3.03122130839983       -1.26325497399467
H           -2.59965357047402       -2.74741082124960       -0.39360087455260
H            1.06859909244203       -2.49338640079743       -0.14878163422249

          :  Hamiltonian                  GFN2-xTB          :
         :: total energy             -42.140618095903 Eh    ::
         :: gradient norm              0.004284479735 Eh/a0 ::
         :: HOMO-LUMO gap              1.314134933281 eV    ::
         :: SCC energy               -42.685738952769 Eh    ::
         :: -> dispersion             -0.020440701220 Eh    ::
         :: repulsion energy           0.545040380916 Eh    ::

    * Orbital Energies and Occupations

         #    Occupation            Energy/Eh            Energy/eV
      -------------------------------------------------------------
         1        2.0000           -0.9419350             -25.6314
       ...           ...                  ...                  ...
        25        2.0000           -0.6557859             -17.8448
        26        2.0000           -0.6550572             -17.8250
        27        1.9999           -0.6498044             -17.6821
        28        1.9999           -0.6399372             -17.4136
        29        1.9999           -0.6390511             -17.3895
        30        1.9996           -0.6177376             -16.8095
        31        1.9996           -0.6166216             -16.7791
        32        1.9991           -0.6056705             -16.4811
        33        1.9973           -0.5879169             -15.9980
        34        1.9915           -0.5697960             -15.5049
        35        1.9696           -0.5495376             -14.9537
        36        1.8368           -0.5218041             -14.1990
        37        1.6733           -0.5093406             -13.8599 (HOMO)
        38        0.3904           -0.4610470             -12.5457 (LUMO)
        39        0.1406           -0.4425870             -12.0434
        40        0.0026           -0.3779735             -10.2852
        41        0.0002           -0.3371782              -9.1751
        42        0.0001           -0.3163396              -8.6080
        43                         -0.1823513              -4.9620
        44                         -0.1623750              -4.4184
        45                         -0.1071524              -2.9158
        46                         -0.0755513              -2.0559
        47                         -0.0617309              -1.6798
        48                         -0.0444931              -1.2107
       ...                                ...                  ...
        67                          0.7547251              20.5371
      -------------------------------------------------------------
                  HL-Gap            0.0482936 Eh            1.3141 eV

     #   Z          covCN         q      C6AA      α(0)
     1   6 C        3.709    -0.042    21.471     6.623
     2   7 N        1.829    -0.190    25.944     7.548
     3   6 C        2.783     0.119    25.375     8.251
     4   7 N        2.694    -0.101    23.219     7.157
     5   6 C        2.977     0.113    25.500     8.283
     6   6 C        2.956    -0.039    28.963     8.827
     7   6 C        1.845     0.247    25.431     8.146
     8   8 O        0.856    -0.058    15.904     5.347
     9   7 N        2.848    -0.053    22.256     7.007
    10   6 C        3.741    -0.014    20.899     6.522
    11   6 C        2.857     0.302    21.881     7.667
    12   8 O        0.857    -0.396    21.601     6.231
    13   7 N        2.828    -0.059    22.386     7.027
    14   6 C        3.689    -0.066    21.962     6.707
    15   1 H        0.924     0.089     1.888     2.149
    16   1 H        0.924     0.059     2.209     2.324
    17   1 H        0.924     0.089     1.888     2.149
    18   1 H        0.924     0.058     2.217     2.329
    19   1 H        0.927     0.110     1.694     2.035
    20   1 H        0.922     0.183     1.187     1.704
    21   1 H        0.923     0.155     1.360     1.824
    22   1 H        0.924     0.081     1.967     2.193
    23   1 H        0.924     0.081     1.972     2.196
    24   1 H        0.925     0.116     1.647     2.007
    25   1 H        0.860     0.215     1.034     1.593

Wiberg/Mayer (AO) data.
largest (>0.10) Wiberg bond orders for each atom

     #   Z sym  total        # sym  WBO       # sym  WBO       # sym  WBO
 ---------------------------------------------------------------------------
     1   6 C    3.939 --     2 N    1.049    16 H    0.954    15 H    0.949
                            17 H    0.949
     2   7 N    2.976 --     3 C    1.748     1 C    1.049
     3   6 C    3.939 --     2 N    1.748     4 N    1.164    18 H    0.923
     4   7 N    3.451 --     3 C    1.164     5 C    1.151    25 H    0.922
     5   6 C    3.893 --     6 C    1.459     4 N    1.151    13 N    1.146
     6   6 C    3.769 --     5 C    1.459     9 N    1.148    19 H    0.956
     7   6 C    3.366 --     8 O    2.172    10 C    1.100
     8   8 O    2.309 --     7 C    2.172
     9   7 N    3.467 --     6 C    1.148    11 C    1.074    10 C    0.966
                            12 O    0.124
    10   6 C    3.941 --     7 C    1.100     9 N    0.966    21 H    0.904
                            20 H    0.884
    11   6 C    3.938 --    12 O    1.641    13 N    1.122     9 N    1.074
    12   8 O    1.959 --    11 C    1.641    13 N    0.134     9 N    0.124
    13   7 N    3.535 --     5 C    1.146    11 C    1.122    14 C    0.987
                            12 O    0.134
    14   6 C    3.934 --    13 N    0.987    23 H    0.969    22 H    0.969
                            24 H    0.968
    15   1 H    0.979 --     1 C    0.949
    16   1 H    0.967 --     1 C    0.954
    17   1 H    0.979 --     1 C    0.949
    18   1 H    0.970 --     3 C    0.923
    19   1 H    0.987 --     6 C    0.956
    20   1 H    0.952 --    10 C    0.884
    21   1 H    0.961 --    10 C    0.904
    22   1 H    0.989 --    14 C    0.969
    23   1 H    0.989 --    14 C    0.969
    24   1 H    0.986 --    14 C    0.968
    25   1 H    0.953 --     4 N    0.922
 ---------------------------------------------------------------------------

molecular dipole:
                 x           y           z       tot (Debye)
 q only:        0.416       0.581       0.293
   full:        0.791       0.239       0.324       2.257

           -------------------------------------------------
          | TOTAL ENERGY              -42.140618095903 Eh   |
          | GRADIENT NORM               0.004284479735 Eh/α |
          | HOMO-LUMO GAP               1.314134933281 eV   |
           -------------------------------------------------

 * finished run on 2024/06/05 at 20:00:25.448
