   * xtb version 6.6.1 (8d0f1dd) compiled by 'conda@1efc2f54142f' on 2023-08-01
          program call               : xtb xtbopt.xyz --opt crude --input .xc2 --gfn2

   ID    Z sym.   atoms
    1    7 N      1, 17
    2    6 C      2-6, 8, 9, 11-16, 18-23, 25, 26, 28-33
    3    8 O      7, 10, 24, 27
    4    1 H      34-72
########################################################################
[WARNING] Please study the warnings concerning your input carefully
-1- readin_getIntValue: could not parse ''
########################################################################

          :  Hamiltonian                  GFN2-xTB          :
 * total energy  :   -99.3664370 Eh     change       -0.2614797E-11 Eh
   *** GEOMETRY OPTIMIZATION CONVERGED AFTER 1 ITERATIONS ***

 final structure:
================
72
 xtb: 6.6.1 (8d0f1dd)
N           -1.88376101654505        2.77345502946085        2.32147786385843
C           -1.90182972786803        1.95624036715856        1.37696631861967
C           -3.02756979650606        1.82076595053357        0.38905264168729
C           -3.51836242873796        0.38201182030827        0.38486858268561
C           -4.35020603622539       -0.07390581372773       -0.63980443989342
C           -4.84727336056805       -1.36672931379886       -0.64671966985987
O           -5.65770425846684       -1.88618869300856       -1.59367813804298
C           -6.13932122706117       -1.05400479258683       -2.62195684560480
C           -4.50456310139058       -2.25467093366634        0.40803807488452
O           -5.03206154986479       -3.49298127044198        0.32040258144222
C           -4.81968116471838       -4.40221677170339        1.37532949195358
C           -3.68458101207463       -1.79352195793137        1.42535974253927
C           -3.20260580526185       -0.49167596347314        1.41379147667805
C           -2.41975370133893        2.20231096626144       -0.98729961401093
C           -1.49058111933422        1.13950682253884       -1.59431228465768
C           -0.19527275974391        1.01916880529129       -0.89074624765327
N            0.46141090624872       -0.11857166747178       -0.70995868833132
C            1.75759978104538       -0.09360147856758       -0.05564897702182
C            2.83175906707711        0.49863717809689       -0.93006194785651
C            4.16128448266537        0.28755341355877       -0.81104661912220
C            5.10227861531857        1.02580995952189       -1.72716346175224
C            6.53733086498965        0.98240733494026       -1.32770010152977
C            7.00452812144799        0.15945488264284       -0.37120299565662
O            8.28401657855713        0.03180053486873        0.03364853143097
C            9.27292388022054        0.80270712941725       -0.60627389841240
C            6.07591821135923       -0.71201089610695        0.35003243066812
O            6.68306699281805       -1.54807441476357        1.20064433314542
C            5.91500366775804       -2.46366182384185        1.94501075996158
C            4.73338713308531       -0.61148084762694        0.14400226549693
C           -0.06848333279444       -1.38088463431435       -1.16554998204196
C           -4.24565431722000        2.74126247632573        0.69674769070240
C           -4.86570691695841        2.41141432547298        2.05243692889213
C           -3.91227995333746        4.22953648663124        0.63327182394358
H           -4.62678209464574        0.59863616307293       -1.43508043447650
H           -6.69997408637686       -0.20417095738749       -2.22131274574311
H           -6.80648594379615       -1.67818806979891       -3.21316637729081
H           -5.32745777271090       -0.68990745882516       -3.26042274480978
H           -5.20209894930817       -4.01226494956259        2.32335474293572
H           -5.37376117660667       -5.29867639618640        1.10426925446271
H           -3.75913087697323       -4.65150546506959        1.48401351888756
H           -3.42480876368781       -2.43761268404178        2.24969322727187
H           -2.59669375093025       -0.15940042740297        2.24254501578932
H           -3.23436386238319        2.38006084695313       -1.68898074787225
H           -1.87075318410165        3.13807889409669       -0.87725180123129
H           -2.00932681448109        0.18205027715651       -1.62967444092625
H           -1.28747891643246        1.44547978707090       -2.62961192767713
H           -1.06181147209062        1.27810221584208        1.13241612924962
H            0.31556954275654        1.92477083686115       -0.60012846156253
H            2.01234940195594       -1.11238623574939        0.23853406034594
H            1.67080472773992        0.50416644436153        0.86385130886941
H            2.47633361794569        1.19475962202814       -1.67571937589679
H            5.02983021022916        0.60786101297754       -2.74088564581940
H            4.78850138813141        2.06986866225181       -1.81305742974291
H            7.19445461786873        1.63123133827879       -1.88424196482176
H            9.10862385712253        1.87283817236151       -0.44854178760686
H            9.30865646718073        0.59524658433199       -1.67986191528720
H           10.21543501026679        0.50980358867481       -0.14894993054736
H            6.63098748447690       -3.05586455341058        2.51207311936904
H            5.24087649762062       -1.94981795696450        2.63730741707958
H            5.33663298196415       -3.12319358982450        1.29009547012718
H            4.06412315795790       -1.21937483157037        0.73069063549848
H           -0.32508504220127       -1.33408102324854       -2.22493479038010
H           -0.96483689755113       -1.65078301547842       -0.59904980130949
H            0.67649270150979       -2.16040065942802       -1.03098475162655
H           -4.99378336266832        2.52600214100701       -0.07543595317443
H           -4.16897090401168        2.65139202963528        2.84935768982002
H           -5.13172638191558        1.35917181525316        2.11833606816804
H           -5.76766837219293        3.00095519288336        2.19359196956121
H           -3.12072371152698        4.46711676425659        1.33672785367463
H           -3.61288107322678        4.53789206318945       -0.36473298561823
H           -4.79435096984147        4.80260582283975        0.90661027253473
H           -1.05545740466632        2.80381531111687        2.90786547524121

          :  Hamiltonian                  GFN2-xTB          :
         :: total energy             -99.366436999827 Eh    ::
         :: gradient norm              0.002605218606 Eh/a0 ::
         :: HOMO-LUMO gap              1.546001577302 eV    ::
         :: SCC energy              -100.741287575394 Eh    ::
         :: -> dispersion             -0.074280726388 Eh    ::
         :: repulsion energy           1.373583453383 Eh    ::

    * Orbital Energies and Occupations

         #    Occupation            Energy/Eh            Energy/eV
      -------------------------------------------------------------
         1        2.0000           -0.8137396             -22.1430
       ...           ...                  ...                  ...
        78        1.9984           -0.5262771             -14.3207
        79        1.9983           -0.5258394             -14.3088
        80        1.9980           -0.5228082             -14.2263
        81        1.9975           -0.5197176             -14.1422
        82        1.9974           -0.5191172             -14.1259
        83        1.9960           -0.5120043             -13.9323
        84        1.9954           -0.5098801             -13.8745
        85        1.9945           -0.5071487             -13.8002
        86        1.9812           -0.4875400             -13.2666
        87        1.9702           -0.4801235             -13.0648
        88        1.9400           -0.4687997             -12.7567
        89        1.8748           -0.4566098             -12.4250
        90        1.7994           -0.4484972             -12.2042 (HOMO)
        91        0.3974           -0.3916827             -10.6582 (LUMO)
        92        0.0474           -0.3548826              -9.6568
        93        0.0144           -0.3357385              -9.1359
        94        0.0036           -0.3135252              -8.5315
        95        0.0029           -0.3102421              -8.4421
        96        0.0006           -0.2841134              -7.7311
        97        0.0000           -0.2153374              -5.8596
        98        0.0000           -0.1877646              -5.1093
        99                         -0.1420069              -3.8642
       100                         -0.0658256              -1.7912
       101                         -0.0647146              -1.7610
       ...                                ...                  ...
       171                          0.5992708              16.3070
      -------------------------------------------------------------
                  HL-Gap            0.0568145 Eh            1.5460 eV

     #   Z          covCN         q      C6AA      α(0)
     1   7 N        1.774    -0.272    27.874     7.818
     2   6 C        2.828     0.102    25.730     8.312
     3   6 C        3.908     0.006    20.416     6.422
     4   6 C        2.975    -0.000    28.025     8.684
     5   6 C        2.920    -0.081    30.017     8.985
     6   6 C        2.862     0.128    25.187     8.226
     7   8 O        1.706    -0.232    17.850     5.704
     8   6 C        3.644     0.028    20.434     6.498
     9   6 C        2.864     0.128    25.190     8.227
    10   8 O        1.706    -0.230    17.819     5.699
    11   6 C        3.645     0.028    20.444     6.498
    12   6 C        2.914    -0.074    29.837     8.957
    13   6 C        2.922    -0.052    29.287     8.875
    14   6 C        3.813    -0.064    21.724     6.634
    15   6 C        3.802    -0.070    21.832     6.652
    16   6 C        2.847     0.008    27.827     8.645
    17   7 N        2.729     0.012    21.040     6.813
    18   6 C        3.755    -0.013    20.860     6.512
    19   6 C        2.900    -0.083    30.066     8.991
    20   6 C        2.949     0.017    27.638     8.623
    21   6 C        3.816    -0.069    21.804     6.646
    22   6 C        2.898    -0.075    29.876     8.962
    23   6 C        2.852     0.134    25.066     8.206
    24   8 O        1.706    -0.230    17.810     5.698
    25   6 C        3.648     0.024    20.488     6.504
    26   6 C        2.857     0.146    24.817     8.165
    27   8 O        1.706    -0.212    17.519     5.651
    28   6 C        3.646     0.024    20.496     6.506
    29   6 C        2.906    -0.091    30.281     9.023
    30   6 C        3.698    -0.068    21.979     6.705
    31   6 C        3.853    -0.007    20.671     6.467
    32   6 C        3.756    -0.117    22.797     6.808
    33   6 C        3.755    -0.120    22.859     6.817
    34   1 H        0.926     0.050     2.315     2.379
    35   1 H        0.924     0.053     2.282     2.362
    36   1 H        0.925     0.080     1.976     2.198
    37   1 H        0.924     0.046     2.377     2.411
    38   1 H        0.924     0.055     2.265     2.353
    39   1 H        0.925     0.080     1.976     2.198
    40   1 H        0.924     0.048     2.348     2.396
    41   1 H        0.926     0.052     2.299     2.371
    42   1 H        0.926     0.039     2.457     2.451
    43   1 H        0.925     0.060     2.195     2.317
    44   1 H        0.924     0.055     2.256     2.349
    45   1 H        0.925     0.068     2.106     2.269
    46   1 H        0.923     0.078     1.999     2.211
    47   1 H        0.922     0.003     3.013     2.715
    48   1 H        0.926     0.074     2.046     2.237
    49   1 H        0.924     0.070     2.083     2.257
    50   1 H        0.923     0.065     2.136     2.286
    51   1 H        0.926     0.039     2.467     2.456
    52   1 H        0.923     0.078     1.997     2.210
    53   1 H        0.924     0.071     2.073     2.251
    54   1 H        0.926     0.059     2.209     2.324
    55   1 H        0.924     0.053     2.285     2.364
    56   1 H        0.924     0.052     2.289     2.366
    57   1 H        0.925     0.082     1.960     2.189
    58   1 H        0.925     0.085     1.931     2.173
    59   1 H        0.924     0.053     2.287     2.365
    60   1 H        0.924     0.052     2.299     2.371
    61   1 H        0.926     0.043     2.414     2.430
    62   1 H        0.924     0.079     1.992     2.207
    63   1 H        0.924     0.076     2.026     2.226
    64   1 H        0.925     0.081     1.968     2.194
    65   1 H        0.924     0.036     2.498     2.472
    66   1 H        0.925     0.065     2.144     2.290
    67   1 H        0.925     0.035     2.520     2.483
    68   1 H        0.925     0.050     2.315     2.380
    69   1 H        0.925     0.064     2.149     2.292
    70   1 H        0.925     0.035     2.519     2.482
    71   1 H        0.925     0.054     2.269     2.356
    72   1 H        0.860     0.155     1.371     1.834

Wiberg/Mayer (AO) data.
largest (>0.10) Wiberg bond orders for each atom

     #   Z sym  total        # sym  WBO       # sym  WBO       # sym  WBO
 ---------------------------------------------------------------------------
     1   7 N    3.035 --     2 C    1.953    72 H    0.943
     2   6 C    3.931 --     1 N    1.953     3 C    0.994    47 H    0.906
     3   6 C    3.976 --     2 C    0.994     4 C    0.974    14 C    0.953
                            31 C    0.943
     4   6 C    3.949 --    13 C    1.415     5 C    1.369     3 C    0.974
     5   6 C    3.963 --     6 C    1.401     4 C    1.369    34 H    0.958
     6   6 C    3.905 --     5 C    1.401     9 C    1.225     7 O    1.096
     7   8 O    2.251 --     6 C    1.096     8 C    0.979
     8   6 C    3.933 --     7 O    0.979    36 H    0.977    35 H    0.974
                            37 H    0.974
     9   6 C    3.902 --    12 C    1.392     6 C    1.225    10 O    1.099
    10   8 O    2.251 --     9 C    1.099    11 C    0.978
    11   6 C    3.932 --    10 O    0.978    39 H    0.977    40 H    0.974
                            38 H    0.974
    12   6 C    3.963 --    13 C    1.407     9 C    1.392    41 H    0.964
    13   6 C    3.955 --     4 C    1.415    12 C    1.407    42 H    0.962
    14   6 C    3.976 --    15 C    0.987    44 H    0.972    43 H    0.967
                             3 C    0.953
    15   6 C    3.988 --    16 C    1.060    14 C    0.987    45 H    0.957
                            46 H    0.926
    16   6 C    3.591 --    17 N    1.414    15 C    1.060    48 H    0.957
    17   7 N    3.478 --    16 C    1.414    30 C    1.001    18 C    0.978
    18   6 C    3.956 --    19 C    1.003    17 N    0.978    49 H    0.957
                            50 H    0.946
    19   6 C    3.844 --    20 C    1.684    18 C    1.003    51 H    0.965
    20   6 C    3.966 --    19 C    1.684    29 C    1.185    21 C    1.008
    21   6 C    3.986 --    22 C    1.039    20 C    1.008    53 H    0.946
                            52 H    0.925
    22   6 C    3.881 --    23 C    1.643    21 C    1.039    54 H    0.962
                            24 O    0.112
    23   6 C    3.912 --    22 C    1.643    24 O    1.097    26 C    1.060
    24   8 O    2.254 --    23 C    1.097    25 C    0.977    22 C    0.112
    25   6 C    3.931 --    24 O    0.977    57 H    0.977    56 H    0.973
                            55 H    0.973
    26   6 C    3.892 --    29 C    1.534    27 O    1.131    23 C    1.060
    27   8 O    2.301 --    26 C    1.131    28 C    0.975
    28   6 C    3.932 --    58 H    0.977    27 O    0.975    60 H    0.974
                            59 H    0.973
    29   6 C    3.896 --    26 C    1.534    20 C    1.185    61 H    0.956
    30   6 C    3.958 --    17 N    1.001    64 H    0.976    62 H    0.969
                            63 H    0.963
    31   6 C    3.974 --    32 C    1.009    33 C    1.008    65 H    0.961
                             3 C    0.943
    32   6 C    3.981 --    31 C    1.009    67 H    0.982    68 H    0.982
                            66 H    0.976
    33   6 C    3.981 --    31 C    1.008    70 H    0.983    71 H    0.980
                            69 H    0.975
    34   1 H    0.996 --     5 C    0.958
    35   1 H    0.994 --     8 C    0.974
    36   1 H    0.993 --     8 C    0.977
    37   1 H    0.994 --     8 C    0.974
    38   1 H    0.993 --    11 C    0.974
    39   1 H    0.993 --    11 C    0.977
    40   1 H    0.993 --    11 C    0.974
    41   1 H    0.996 --    12 C    0.964
    42   1 H    0.998 --    13 C    0.962
    43   1 H    0.995 --    14 C    0.967
    44   1 H    0.996 --    14 C    0.972
    45   1 H    0.993 --    15 C    0.957
    46   1 H    0.969 --    15 C    0.926
    47   1 H    0.987 --     2 C    0.906
    48   1 H    0.994 --    16 C    0.957
    49   1 H    0.992 --    18 C    0.957
    50   1 H    0.982 --    18 C    0.946
    51   1 H    0.998 --    19 C    0.965
    52   1 H    0.980 --    21 C    0.925
    53   1 H    0.987 --    21 C    0.946
    54   1 H    0.994 --    22 C    0.962
    55   1 H    0.993 --    25 C    0.973
    56   1 H    0.994 --    25 C    0.973
    57   1 H    0.993 --    25 C    0.977
    58   1 H    0.992 --    28 C    0.977
    59   1 H    0.995 --    28 C    0.973
    60   1 H    0.995 --    28 C    0.974
    61   1 H    0.997 --    29 C    0.956
    62   1 H    0.986 --    30 C    0.969
    63   1 H    0.984 --    30 C    0.963
    64   1 H    0.993 --    30 C    0.976
    65   1 H    0.993 --    31 C    0.961
    66   1 H    0.992 --    32 C    0.976
    67   1 H    0.997 --    32 C    0.982
    68   1 H    0.995 --    32 C    0.982
    69   1 H    0.992 --    33 C    0.975
    70   1 H    0.997 --    33 C    0.983
    71   1 H    0.994 --    33 C    0.980
    72   1 H    0.971 --     1 N    0.943
 ---------------------------------------------------------------------------

molecular dipole:
                 x           y           z       tot (Debye)
 q only:        1.194      -0.156      -1.001
   full:        1.433      -0.286      -1.103       4.654

           -------------------------------------------------
          | TOTAL ENERGY              -99.366436999827 Eh   |
          | GRADIENT NORM               0.002605218606 Eh/α |
          | HOMO-LUMO GAP               1.546001577302 eV   |
           -------------------------------------------------

 * finished run on 2024/04/06 at 11:13:40.589
