   * xtb version 6.6.1 (8d0f1dd) compiled by 'conda@1efc2f54142f' on 2023-08-01
          program call               : xtb struc.xyz --opt loose --input .xc1 --gfn2

   ID    Z sym.   atoms
    1    6 C      1, 3, 5-7, 10, 11, 14
    2    7 N      2, 4, 9, 13
    3    8 O      8, 12
    4    1 H      15-25
constraining bond 5 6 to    4.0000000 Å, actual value:    1.3842879 Å

          :  Hamiltonian                  GFN2-xTB          :
 * total energy  :   -30.0435297 Eh     change       -0.2401990E-09 Eh
 * total energy  :   -34.3460204 Eh     change       -0.4302491E+01 Eh
 * total energy  :   -37.9845407 Eh     change       -0.3638520E+01 Eh
 * total energy  :   -40.4017630 Eh     change       -0.2417222E+01 Eh
 * total energy  :   -41.4913306 Eh     change       -0.1089568E+01 Eh
 * total energy  :   -41.7010550 Eh     change       -0.2097244E+00 Eh
 * total energy  :   -41.7257086 Eh     change       -0.2465357E-01 Eh
 * total energy  :   -41.7462403 Eh     change       -0.2053169E-01 Eh
 * total energy  :   -41.7837506 Eh     change       -0.3751026E-01 Eh
 * total energy  :   -41.8035124 Eh     change       -0.1976181E-01 Eh
 * total energy  :   -42.0197867 Eh     change       -0.1002955E-03 Eh
 * total energy  :   -42.0198922 Eh     change       -0.1055538E-03 Eh
 * total energy  :   -42.0199695 Eh     change       -0.7723352E-04 Eh
 * total energy  :   -42.0200220 Eh     change       -0.5250511E-04 Eh
 * total energy  :   -42.0200872 Eh     change       -0.6527391E-04 Eh
 * total energy  :   -42.0201464 Eh     change       -0.5915150E-04 Eh
 * total energy  :   -42.0202078 Eh     change       -0.6144794E-04 Eh
 * total energy  :   -42.0202668 Eh     change       -0.5894797E-04 Eh
 * total energy  :   -42.0203163 Eh     change       -0.4947427E-04 Eh
   *** GEOMETRY OPTIMIZATION CONVERGED AFTER 56 ITERATIONS ***

 final structure:
================
25
 xtb: 6.6.1 (8d0f1dd)
C            3.59238762354244        1.04860680881361        0.48930105640880
N            2.24219289760646        0.55343515227927        0.27418371132638
C            2.09112452269920       -0.54168754429650       -0.48744915844835
N            1.08376022405728       -1.36047320898126       -0.98860742064881
C           -0.13231123087463       -1.92167226876410       -0.80470851170672
C            1.30292618399126        1.34014626764843        0.98313780030619
C            0.01120912396206        1.37252532835692        0.42128943906073
O            0.68140029524691        2.46373077016099        0.16437839211844
N           -1.11261934855336        0.86278645305967        0.03911046558065
C           -2.11774321295475        1.68483519322826       -0.62741434458558
C           -1.61697574539421       -0.40221992464077        0.57417476823390
O           -2.55223131653229       -0.37550557879130        1.32795289371661
N           -1.11392914784925       -1.57897895514535        0.04796156928516
C           -1.95945564011283       -2.72748417206492        0.40429144343709
H            3.92194808832367        0.79461305611420        1.49877357157514
H            4.29463095493931        0.64348445878398       -0.23479653300386
H            3.57309923226508        2.13589708069797        0.40546917763756
H            3.05202558222438       -0.89032050545264       -0.84747184413252
H           -1.71092473875505        2.67889376338670       -0.80040948956347
H           -2.38633218560902        1.22197935149397       -1.57730783748856
H           -3.00465336437413        1.75253131201238        0.00436309427390
H           -1.89529855821694       -2.90506254852728        1.47802486281071
H           -1.60685110185646       -3.60048346055880       -0.13806903194002
H           -3.00073989157191       -2.52279863406235        0.15457881920352
H            1.52379226789568       -1.90853965315119       -1.72958527555739

          :  Hamiltonian                  GFN2-xTB          :
         :: total energy             -42.020316270384 Eh    ::
         :: gradient norm              0.001648465861 Eh/a0 ::
         :: HOMO-LUMO gap              1.473248589726 eV    ::
         :: SCC energy               -42.498226760203 Eh    ::
         :: -> dispersion             -0.021994397761 Eh    ::
         :: repulsion energy           0.477394119012 Eh    ::

    * Orbital Energies and Occupations

         #    Occupation            Energy/Eh            Energy/eV
      -------------------------------------------------------------
         1        2.0000           -0.9118817             -24.8136
       ...           ...                  ...                  ...
        25        1.9988           -0.6664909             -18.1361
        26        1.9980           -0.6542144             -17.8021
        27        1.9977           -0.6509509             -17.7133
        28        1.9962           -0.6392482             -17.3948
        29        1.9959           -0.6373558             -17.3433
        30        1.9920           -0.6211936             -16.9035
        31        1.9912           -0.6191069             -16.8468
        32        1.9862           -0.6083247             -16.5534
        33        1.9848           -0.6059712             -16.4893
        34        1.9798           -0.5991671             -16.3042
        35        1.9668           -0.5871668             -15.9776
        36        1.7704           -0.5387513             -14.6602
        37        1.5874           -0.5222400             -14.2109 (HOMO)
        38        0.5650           -0.4680991             -12.7376 (LUMO)
        39        0.1290           -0.4267178             -11.6116
        40        0.0529           -0.4046207             -11.0103
        41        0.0104           -0.3653688              -9.9422
        42        0.0003           -0.2803916              -7.6298
        43        0.0000           -0.2196894              -5.9781
        44        0.0000           -0.2131767              -5.8008
        45        0.0000           -0.1401286              -3.8131
        46        0.0000           -0.1301320              -3.5411
        47        0.0000           -0.1115640              -3.0358
        48                         -0.0762702              -2.0754
       ...                                ...                  ...
        67                          0.5520958              15.0233
      -------------------------------------------------------------
                  HL-Gap            0.0541409 Eh            1.4732 eV

     #   Z          covCN         q      C6AA      α(0)
     1   6 C        3.726    -0.078    22.106     6.713
     2   7 N        2.734     0.029    20.740     6.764
     3   6 C        2.766     0.044    26.987     8.508
     4   7 N        2.680    -0.068    22.554     7.053
     5   6 C        1.860    -0.046    32.377     9.191
     6   6 C        2.746    -0.001    28.024     8.668
     7   6 C        2.785     0.247    22.852     7.830
     8   8 O        1.682    -0.237    17.934     5.717
     9   7 N        2.726    -0.048    22.165     6.992
    10   6 C        3.706    -0.058    21.778     6.671
    11   6 C        2.724     0.304    21.836     7.650
    12   8 O        0.859    -0.321    20.170     6.021
    13   7 N        2.730    -0.003    21.321     6.858
    14   6 C        3.746    -0.070    21.917     6.678
    15   1 H        0.924     0.112     1.677     2.025
    16   1 H        0.925     0.091     1.867     2.137
    17   1 H        0.924     0.119     1.622     1.992
    18   1 H        0.925     0.095     1.828     2.114
    19   1 H        0.925     0.108     1.716     2.049
    20   1 H        0.924     0.094     1.837     2.119
    21   1 H        0.924     0.115     1.655     2.012
    22   1 H        0.924     0.110     1.701     2.039
    23   1 H        0.925     0.111     1.689     2.032
    24   1 H        0.925     0.108     1.715     2.048
    25   1 H        0.860     0.243     0.912     1.496

Wiberg/Mayer (AO) data.
largest (>0.10) Wiberg bond orders for each atom

     #   Z sym  total        # sym  WBO       # sym  WBO       # sym  WBO
 ---------------------------------------------------------------------------
     1   6 C    3.909 --     2 N    0.979    16 H    0.970    17 H    0.956
                            15 H    0.951
     2   7 N    3.484 --     3 C    1.353     6 C    1.027     1 C    0.979
     3   6 C    3.649 --     2 N    1.353     4 N    1.171    18 H    0.944
     4   7 N    3.531 --     5 C    1.304     3 C    1.171    25 H    0.903
     5   6 C    2.750 --     4 N    1.304    13 N    1.275
     6   6 C    3.017 --     7 C    1.058     2 N    1.027     8 O    0.769
     7   6 C    3.776 --     9 N    1.430     8 O    1.193     6 C    1.058
     8   8 O    2.160 --     7 C    1.193     6 C    0.769     9 N    0.107
     9   7 N    3.536 --     7 C    1.430    10 C    0.949    11 C    0.899
                             8 O    0.107
    10   6 C    3.901 --    19 H    0.970    20 H    0.965    21 H    0.957
                             9 N    0.949
    11   6 C    3.831 --    12 O    1.725    13 N    1.115     9 N    0.899
    12   8 O    1.995 --    11 C    1.725    13 N    0.122
    13   7 N    3.552 --     5 C    1.275    11 C    1.115    14 C    0.952
                            12 O    0.122
    14   6 C    3.888 --    23 H    0.967    24 H    0.960    22 H    0.957
                            13 N    0.952
    15   1 H    0.970 --     1 C    0.951
    16   1 H    0.987 --     1 C    0.970
    17   1 H    0.975 --     1 C    0.956
    18   1 H    0.985 --     3 C    0.944
    19   1 H    0.984 --    10 C    0.970
    20   1 H    0.985 --    10 C    0.965
    21   1 H    0.979 --    10 C    0.957
    22   1 H    0.976 --    14 C    0.957
    23   1 H    0.983 --    14 C    0.967
    24   1 H    0.975 --    14 C    0.960
    25   1 H    0.930 --     4 N    0.903
 ---------------------------------------------------------------------------

molecular dipole:
                 x           y           z       tot (Debye)
 q only:        1.418      -1.190      -0.957
   full:        1.512      -0.908      -1.235       5.474

           -------------------------------------------------
          | TOTAL ENERGY              -42.020316270384 Eh   |
          | GRADIENT NORM               0.001648465861 Eh/α |
          | HOMO-LUMO GAP               1.473248589726 eV   |
           -------------------------------------------------

 * finished run on 2024/06/05 at 19:58:46.888
