   * xtb version 6.6.1 (8d0f1dd) compiled by 'conda@1efc2f54142f' on 2023-08-01
          program call               : xtb xtbopt.xyz --opt crude --input .xc2 --gfn2

   ID    Z sym.   atoms
    1    6 C      1, 3, 5-7, 10, 11, 14
    2    7 N      2, 4, 9, 13
    3    8 O      8, 12
    4    1 H      15-25
########################################################################
[WARNING] Please study the warnings concerning your input carefully
-1- readin_getIntValue: could not parse ''
########################################################################

          :  Hamiltonian                  GFN2-xTB          :
 * total energy  :   -42.0206204 Eh     change       -0.1350031E-12 Eh
 * total energy  :   -42.0258970 Eh     change       -0.5276632E-02 Eh
 * total energy  :   -42.0304763 Eh     change       -0.4579290E-02 Eh
 * total energy  :   -42.0322954 Eh     change       -0.1819087E-02 Eh
 * total energy  :   -42.0335299 Eh     change       -0.1234525E-02 Eh
 * total energy  :   -42.0346325 Eh     change       -0.1102552E-02 Eh
 * total energy  :   -42.0355673 Eh     change       -0.9348299E-03 Eh
 * total energy  :   -42.0363505 Eh     change       -0.7832217E-03 Eh
 * total energy  :   -42.0369627 Eh     change       -0.6122173E-03 Eh
 * total energy  :   -42.0374397 Eh     change       -0.4769594E-03 Eh
   *** GEOMETRY OPTIMIZATION CONVERGED AFTER 10 ITERATIONS ***

 final structure:
================
25
 xtb: 6.6.1 (8d0f1dd)
C            3.51301412519641        0.95909231396686        0.62466424986305
N            2.26728113731810        0.37698578212030        0.17148372491844
C            2.25541573428601       -0.63052177592628       -0.70539534626178
N            1.20586937194094       -1.41411386509349       -1.10076731475604
C            0.01992210976977       -1.83660180413821       -0.66860802044787
C            1.13563971865771        0.92798364484244        0.71888016461494
C           -0.04424984233473        1.20587806845274        0.06899716612047
O            0.66936513606551        2.30654105946387        0.09916647948228
N           -1.29026260698029        0.90299549249027       -0.15680191364548
C           -2.24827162285994        1.94292927315744       -0.51423860879826
C           -1.80740550685820       -0.34766200536337        0.26643732612567
O           -2.91823401959935       -0.41999368530717        0.73132702472865
N           -1.01992223450661       -1.49651516668657        0.08329501607874
C           -1.70802162183668       -2.68701209516640        0.61989464324348
H            3.70735734534761        0.66088556997684        1.65727758391892
H            4.33921923947921        0.64239056997064       -0.00450385563283
H            3.42520759674228        2.04621259036234        0.59313979874309
H            3.21826359910321       -0.93335981064476       -1.09061706010871
H           -1.73803159985215        2.90391891043293       -0.52790095725771
H           -2.66722476861327        1.72755453509588       -1.49676468208167
H           -3.05285620669281        1.95289877749938        0.22038287695888
H           -1.65035597385170       -2.66797927166623        1.70900515075339
H           -1.22404680678975       -3.58363995274818        0.23874048091822
H           -2.75896824175465       -2.67439069961734        0.32992689172340
H            1.53172745272338       -2.04623791387344       -1.83584920130214

          :  Hamiltonian                  GFN2-xTB          :
         :: total energy             -42.037439702728 Eh    ::
         :: gradient norm              0.008945371172 Eh/a0 ::
         :: HOMO-LUMO gap              1.170065246578 eV    ::
         :: SCC energy               -42.535320489062 Eh    ::
         :: -> dispersion             -0.022035410798 Eh    ::
         :: repulsion energy           0.497683394452 Eh    ::

    * Orbital Energies and Occupations

         #    Occupation            Energy/Eh            Energy/eV
      -------------------------------------------------------------
         1        2.0000           -0.9009345             -24.5157
       ...           ...                  ...                  ...
        25        1.9991           -0.6652688             -18.1029
        26        1.9989           -0.6586494             -17.9228
        27        1.9984           -0.6498747             -17.6840
        28        1.9974           -0.6391254             -17.3915
        29        1.9961           -0.6292061             -17.1216
        30        1.9945           -0.6210315             -16.8991
        31        1.9942           -0.6195112             -16.8578
        32        1.9910           -0.6092336             -16.5781
        33        1.9835           -0.5947472             -16.1839
        34        1.9819           -0.5925281             -16.1235
        35        1.9793           -0.5892362             -16.0339
        36        1.8077           -0.5342035             -14.5364
        37        1.4510           -0.5040609             -13.7162 (HOMO)
        38        0.6037           -0.4610618             -12.5461 (LUMO)
        39        0.1714           -0.4247558             -11.5582
        40        0.0433           -0.3904687             -10.6252
        41        0.0096           -0.3543869              -9.6434
        42        0.0010           -0.3012083              -8.1963
        43        0.0000           -0.2121992              -5.7742
        44        0.0000           -0.1898584              -5.1663
        45        0.0000           -0.1310038              -3.5648
        46        0.0000           -0.1264130              -3.4399
        47        0.0000           -0.0880372              -2.3956
        48                         -0.0620559              -1.6886
       ...                                ...                  ...
        67                          0.5814223              15.8213
      -------------------------------------------------------------
                  HL-Gap            0.0429991 Eh            1.1701 eV

     #   Z          covCN         q      C6AA      α(0)
     1   6 C        3.715    -0.078    22.120     6.720
     2   7 N        2.731     0.048    20.406     6.709
     3   6 C        2.778     0.033    27.239     8.548
     4   7 N        2.681    -0.044    22.094     6.981
     5   6 C        1.870    -0.028    31.873     9.119
     6   6 C        2.728     0.010    27.773     8.628
     7   6 C        2.793     0.237    23.037     7.862
     8   8 O        1.652    -0.277    18.606     5.823
     9   7 N        2.729    -0.041    22.029     6.971
    10   6 C        3.706    -0.060    21.815     6.677
    11   6 C        2.736     0.299    21.930     7.667
    12   8 O        0.859    -0.336    20.438     6.061
    13   7 N        2.728    -0.003    21.321     6.858
    14   6 C        3.750    -0.074    21.987     6.687
    15   1 H        0.924     0.109     1.709     2.044
    16   1 H        0.925     0.093     1.848     2.126
    17   1 H        0.924     0.115     1.654     2.011
    18   1 H        0.926     0.098     1.799     2.097
    19   1 H        0.925     0.106     1.731     2.057
    20   1 H        0.925     0.098     1.803     2.100
    21   1 H        0.925     0.119     1.621     1.991
    22   1 H        0.924     0.106     1.731     2.058
    23   1 H        0.925     0.105     1.742     2.064
    24   1 H        0.924     0.120     1.612     1.986
    25   1 H        0.860     0.244     0.909     1.493

Wiberg/Mayer (AO) data.
largest (>0.10) Wiberg bond orders for each atom

     #   Z sym  total        # sym  WBO       # sym  WBO       # sym  WBO
 ---------------------------------------------------------------------------
     1   6 C    3.914 --     2 N    0.977    16 H    0.972    17 H    0.960
                            15 H    0.953
     2   7 N    3.494 --     3 C    1.300     6 C    1.095     1 C    0.977
     3   6 C    3.640 --     2 N    1.300     4 N    1.190    18 H    0.946
     4   7 N    3.549 --     5 C    1.316     3 C    1.190    25 H    0.898
     5   6 C    2.854 --    13 N    1.327     4 N    1.316
     6   6 C    3.201 --     7 C    1.185     2 N    1.095     8 O    0.740
     7   6 C    3.775 --     9 N    1.339     6 C    1.185     8 O    1.152
     8   8 O    2.067 --     7 C    1.152     6 C    0.740
     9   7 N    3.544 --     7 C    1.339    11 C    0.987    10 C    0.952
    10   6 C    3.898 --    19 H    0.972    20 H    0.965    21 H    0.956
                             9 N    0.952
    11   6 C    3.832 --    12 O    1.690    13 N    1.057     9 N    0.987
    12   8 O    1.965 --    11 C    1.690    13 N    0.107
    13   7 N    3.529 --     5 C    1.327    11 C    1.057    14 C    0.947
                            12 O    0.107
    14   6 C    3.884 --    23 H    0.969    22 H    0.960    24 H    0.956
                            13 N    0.947
    15   1 H    0.972 --     1 C    0.953
    16   1 H    0.988 --     1 C    0.972
    17   1 H    0.977 --     1 C    0.960
    18   1 H    0.984 --     3 C    0.946
    19   1 H    0.985 --    10 C    0.972
    20   1 H    0.983 --    10 C    0.965
    21   1 H    0.977 --    10 C    0.956
    22   1 H    0.979 --    14 C    0.960
    23   1 H    0.985 --    14 C    0.969
    24   1 H    0.973 --    14 C    0.956
    25   1 H    0.927 --     4 N    0.898
 ---------------------------------------------------------------------------

molecular dipole:
                 x           y           z       tot (Debye)
 q only:        1.660      -1.347      -0.781
   full:        1.903      -1.092      -1.126       6.268

           -------------------------------------------------
          | TOTAL ENERGY              -42.037439702728 Eh   |
          | GRADIENT NORM               0.008945371172 Eh/α |
          | HOMO-LUMO GAP               1.170065246578 eV   |
           -------------------------------------------------

 * finished run on 2024/06/05 at 19:58:47.318
