   * xtb version 6.6.1 (8d0f1dd) compiled by 'conda@1efc2f54142f' on 2023-08-01
          program call               : xtb xtbopt.xyz --opt crude --input .xc2 --gfn2

   ID    Z sym.   atoms
    1    6 C      1, 3, 5-7, 10, 11, 14
    2    7 N      2, 4, 9, 13
    3    8 O      8, 12
    4    1 H      15-25

          :  Hamiltonian                  GFN2-xTB          :
 * total energy  :   -42.0947658 Eh     change       -0.2699352E-10 Eh
   *** GEOMETRY OPTIMIZATION CONVERGED AFTER 1 ITERATIONS ***

 final structure:
================
25
 xtb: 6.6.1 (8d0f1dd)
C            5.62879540159593        1.06300486032012        0.12394635164708
N            1.91599852226507        0.27251505068157       -0.02855138034599
C            2.29018875996909       -1.01090455229163       -0.00398695041809
N            1.18124372365090       -1.79307846364254        0.00298282594638
C            0.08238650478040       -0.98092419903255       -0.01753460735553
C            0.54227093081155        0.32977641148353       -0.03844846956543
C           -0.35516312482165        1.45891802543347       -0.04309861614983
O           -0.02971099026599        2.62525117242316       -0.05084572379911
N           -1.69396769239784        1.04076237549266       -0.03376240593423
C           -2.71607435022856        2.07483800744532       -0.02355277554277
C           -2.17494940364364       -0.25415139410616       -0.01920254834578
O           -3.35186843856547       -0.50214241177693       -0.00854166280256
N           -1.22582075542517       -1.29981811368434       -0.01634821831936
C           -1.69484826865731       -2.66989910995850       -0.00590840414899
H            6.02642815740006        1.34071071794841        1.08540864705071
H            6.12957184433001        1.25206816766926       -0.81144584760544
H            2.52588709613055        1.07956401979734       -0.03761254599223
H            3.29929703647360       -1.36783988609759        0.01021877769660
H           -2.21783547156434        3.04216179183042       -0.02244796154818
H           -3.35264327028596        1.97756347119106       -0.90350060836365
H           -3.34124753835196        1.96919951319757        0.86354552601753
H           -1.34354608008985       -3.18963732337448        0.88607834027596
H           -1.36272261947580       -3.19551445820561       -0.90197868728099
H           -2.78437882754324       -2.64172779755484        0.00557919314363
H            1.18314036801374       -2.80245733358073        0.02017936963161

          :  Hamiltonian                  GFN2-xTB          :
         :: total energy             -42.094765789063 Eh    ::
         :: gradient norm              0.003344512092 Eh/a0 ::
         :: HOMO-LUMO gap              0.850310015830 eV    ::
         :: SCC energy               -42.608748056359 Eh    ::
         :: -> dispersion             -0.020764730945 Eh    ::
         :: repulsion energy           0.513938401054 Eh    ::

    * Orbital Energies and Occupations

         #    Occupation            Energy/Eh            Energy/eV
      -------------------------------------------------------------
         1        2.0000           -0.9089845             -24.7347
       ...           ...                  ...                  ...
        25        1.9992           -0.6661620             -18.1272
        26        1.9988           -0.6576243             -17.8949
        27        1.9986           -0.6547981             -17.8180
        28        1.9964           -0.6315179             -17.1845
        29        1.9954           -0.6257649             -17.0279
        30        1.9935           -0.6175221             -16.8036
        31        1.9866           -0.6000888             -16.3292
        32        1.9860           -0.5991387             -16.3034
        33        1.9684           -0.5795874             -15.7714
        34        1.9371           -0.5628145             -15.3150
        35        1.9311           -0.5605776             -15.2541
        36        1.9177           -0.5561962             -15.1349
        37        1.2968           -0.4959531             -13.4956 (HOMO)
        38        0.6620           -0.4647048             -12.6453 (LUMO)
        39        0.2432           -0.4344522             -11.8220
        40        0.0714           -0.4031394             -10.9700
        41        0.0198           -0.3720305             -10.1235
        42        0.0005           -0.2866937              -7.8013
        43        0.0000           -0.2056310              -5.5955
        44        0.0000           -0.1920829              -5.2268
        45        0.0000           -0.1426865              -3.8827
        46        0.0000           -0.1270535              -3.4573
        47                         -0.0734076              -1.9975
        48                         -0.0389251              -1.0592
       ...                                ...                  ...
        67                          0.5480586              14.9134
      -------------------------------------------------------------
                  HL-Gap            0.0312483 Eh            0.8503 eV

     #   Z          covCN         q      C6AA      α(0)
     1   6 C        1.852    -0.155    35.567     9.634
     2   7 N        2.788    -0.019    21.617     6.905
     3   6 C        3.017     0.057    26.693     8.475
     4   7 N        2.790    -0.053    22.258     7.007
     5   6 C        3.031     0.111    25.522     8.286
     6   6 C        3.091    -0.008    28.098     8.688
     7   6 C        2.763     0.264    22.555     7.778
     8   8 O        0.858    -0.349    20.689     6.098
     9   7 N        2.745    -0.078    22.754     7.085
    10   6 C        3.709    -0.062    21.828     6.677
    11   6 C        2.727     0.314    21.667     7.620
    12   8 O        0.859    -0.351    20.720     6.103
    13   7 N        2.738    -0.051    22.231     7.003
    14   6 C        3.696    -0.073    22.075     6.721
    15   1 H        0.926     0.106     1.732     2.058
    16   1 H        0.926     0.106     1.734     2.059
    17   1 H        0.860     0.245     0.904     1.489
    18   1 H        0.926     0.130     1.536     1.938
    19   1 H        0.925     0.120     1.611     1.985
    20   1 H        0.924     0.107     1.725     2.054
    21   1 H        0.924     0.106     1.728     2.056
    22   1 H        0.924     0.086     1.916     2.164
    23   1 H        0.924     0.087     1.909     2.160
    24   1 H        0.925     0.131     1.531     1.935
    25   1 H        0.860     0.229     0.971     1.544

Wiberg/Mayer (AO) data.
largest (>0.10) Wiberg bond orders for each atom

     #   Z sym  total        # sym  WBO       # sym  WBO       # sym  WBO
 ---------------------------------------------------------------------------
     1   6 C    1.890 --    15 H    0.944    16 H    0.944
     2   7 N    3.552 --     3 C    1.347     6 C    1.162    17 H    0.913
     3   6 C    3.725 --     2 N    1.347     4 N    1.263    18 H    0.952
     4   7 N    3.551 --     3 C    1.263     5 C    1.184    25 H    0.920
     5   6 C    3.897 --     6 C    1.333    13 N    1.205     4 N    1.184
     6   6 C    3.851 --     5 C    1.333     2 N    1.162     7 C    1.080
     7   6 C    3.904 --     8 O    1.663     6 C    1.080     9 N    1.077
     8   8 O    1.953 --     7 C    1.663     9 N    0.130
     9   7 N    3.502 --    11 C    1.127     7 C    1.077    10 C    0.975
                             8 O    0.130    12 O    0.127
    10   6 C    3.884 --     9 N    0.975    19 H    0.959    21 H    0.953
                            20 H    0.953
    11   6 C    3.935 --    12 O    1.682     9 N    1.127    13 N    1.038
    12   8 O    2.004 --    11 C    1.682     9 N    0.127    13 N    0.113
    13   7 N    3.511 --     5 C    1.205    11 C    1.038    14 C    0.977
                            12 O    0.113
    14   6 C    3.913 --    13 N    0.977    22 H    0.966    23 H    0.966
                            24 H    0.960
    15   1 H    0.948 --     1 C    0.944
    16   1 H    0.948 --     1 C    0.944
    17   1 H    0.939 --     2 N    0.913
    18   1 H    0.982 --     3 C    0.952
    19   1 H    0.977 --    10 C    0.959
    20   1 H    0.971 --    10 C    0.953
    21   1 H    0.971 --    10 C    0.953
    22   1 H    0.984 --    14 C    0.966
    23   1 H    0.983 --    14 C    0.966
    24   1 H    0.980 --    14 C    0.960
    25   1 H    0.947 --     4 N    0.920
 ---------------------------------------------------------------------------

molecular dipole:
                 x           y           z       tot (Debye)
 q only:        2.051      -1.925       0.010
   full:        2.716      -2.113       0.022       8.746

           -------------------------------------------------
          | TOTAL ENERGY              -42.094765789063 Eh   |
          | GRADIENT NORM               0.003344512092 Eh/α |
          | HOMO-LUMO GAP               0.850310015830 eV   |
           -------------------------------------------------

 * finished run on 2024/06/05 at 19:58:42.694
