   * xtb version 6.6.1 (8d0f1dd) compiled by 'conda@1efc2f54142f' on 2023-08-01
          program call               : xtb struc.xyz --opt loose --input .xc1 --gfn2

   ID    Z sym.   atoms
    1    6 C      1, 3, 5-7, 10, 11, 14
    2    7 N      2, 4, 9, 13
    3    8 O      8, 12
    4    1 H      15-25
constraining bond 9 21 to    4.0600000 Å, actual value:    2.0945494 Å

          :  Hamiltonian                  GFN2-xTB          :
 * total energy  :   -28.4528519 Eh     change       -0.6650680E-10 Eh
 * total energy  :   -35.4096559 Eh     change       -0.6956804E+01 Eh
 * total energy  :   -39.5935396 Eh     change       -0.4183884E+01 Eh
 * total energy  :   -41.4312204 Eh     change       -0.1837681E+01 Eh
 * total energy  :   -41.8205966 Eh     change       -0.3893762E+00 Eh
 * total energy  :   -41.8580548 Eh     change       -0.3745818E-01 Eh
 * total energy  :   -41.8736309 Eh     change       -0.1557612E-01 Eh
 * total energy  :   -41.8914762 Eh     change       -0.1784527E-01 Eh
 * total energy  :   -41.9230239 Eh     change       -0.3154770E-01 Eh
 * total energy  :   -41.9424219 Eh     change       -0.1939804E-01 Eh
 * total energy  :   -42.1026138 Eh     change       -0.1061528E-03 Eh
 * total energy  :   -42.1034365 Eh     change       -0.8226982E-03 Eh
 * total energy  :   -42.1036526 Eh     change       -0.2161283E-03 Eh
 * total energy  :   -42.1039556 Eh     change       -0.3029889E-03 Eh
 * total energy  :   -42.1042572 Eh     change       -0.3016631E-03 Eh
 * total energy  :   -42.1043690 Eh     change       -0.1117975E-03 Eh
 * total energy  :   -42.1044485 Eh     change       -0.7949228E-04 Eh
 * total energy  :   -42.1045516 Eh     change       -0.1031123E-03 Eh
 * total energy  :   -42.1045949 Eh     change       -0.4323512E-04 Eh
   *** GEOMETRY OPTIMIZATION CONVERGED AFTER 41 ITERATIONS ***

 final structure:
================
25
 xtb: 6.6.1 (8d0f1dd)
C            3.28276825372441        1.09642201909528        0.03731582640986
N            2.33054108915085        0.01863263747524        0.01171140230045
C            2.59916396746746       -1.28414286017772        0.03422508980819
N            1.44492822377860       -1.99187722282692        0.00709091615815
C            0.40837402757659       -1.10781217336526       -0.03529470566942
C            0.96084968252314        0.16730122462712       -0.03300089475734
C            0.16168585598606        1.35227242970939       -0.08278774444515
O            0.53994957923301        2.50297174458256       -0.06667043553284
N           -1.23844173810037        1.03623149680494       -0.17494131688312
C           -2.09222359334517        2.06630377392758       -0.26275045693087
C           -1.80574065046219       -0.26923757087666       -0.16662306245488
O           -2.99197176061937       -0.43683085426103       -0.23797022325361
N           -0.91888544888877       -1.34165807536315       -0.07532307179166
C           -1.45159880782953       -2.69139591922989       -0.04856585035265
H            3.80797631091313        1.11573200673621        0.99302633548484
H            4.01261021662738        0.97604488928200       -0.76252951384744
H            2.74882348810683        2.03724905980798       -0.09209480685231
H            3.58016896560722       -1.71445155737292        0.06620278358322
H           -1.67671646235754        3.05762114912055       -0.25961069263447
H           -3.14391253655640        1.86499027371146       -0.32999926789998
H           -3.98013735474989        3.43504002329337        1.61725474392892
H           -1.13254269739606       -3.20469157101616        0.85868737980091
H           -1.12997939741551       -3.24680147289174       -0.92986920946912
H           -2.53786033619903       -2.61989119856666       -0.05316098204491
H            1.38260263732524       -2.99978371062296        0.01684937524236

          :  Hamiltonian                  GFN2-xTB          :
         :: total energy             -42.104594878744 Eh    ::
         :: gradient norm              0.003778391010 Eh/a0 ::
         :: HOMO-LUMO gap              0.292469157742 eV    ::
         :: SCC energy               -42.625006534666 Eh    ::
         :: -> dispersion             -0.022707963599 Eh    ::
         :: repulsion energy           0.520319602806 Eh    ::

    * Orbital Energies and Occupations

         #    Occupation            Energy/Eh            Energy/eV
      -------------------------------------------------------------
         1        2.0000           -0.9114744             -24.8025
       ...           ...                  ...                  ...
        25        2.0000           -0.6714993             -18.2724
        26        2.0000           -0.6693825             -18.2148
        27        2.0000           -0.6632465             -18.0479
        28        1.9999           -0.6327782             -17.2188
        29        1.9999           -0.6302708             -17.1505
        30        1.9999           -0.6278772             -17.0854
        31        1.9998           -0.6191978             -16.8492
        32        1.9997           -0.6147167             -16.7273
        33        1.9997           -0.6133613             -16.6904
        34        1.9982           -0.5856963             -15.9376
        35        1.9940           -0.5669300             -15.4270
        36        1.9899           -0.5587613             -15.2047
        37        1.1090           -0.4785571             -13.0222 (HOMO)
        38        0.7740           -0.4678090             -12.7297 (LUMO)
        39        0.1159           -0.4309392             -11.7265
        40        0.0172           -0.3999526             -10.8833
        41        0.0031           -0.3724422             -10.1347
        42        0.0000           -0.2879369              -7.8352
        43                         -0.2082197              -5.6659
        44                         -0.1976691              -5.3789
        45                         -0.1507427              -4.1019
        46                         -0.1454240              -3.9572
        47                         -0.0788940              -2.1468
        48                         -0.0548830              -1.4934
       ...                                ...                  ...
        67                          0.5473594              14.8944
      -------------------------------------------------------------
                  HL-Gap            0.0107480 Eh            0.2925 eV

     #   Z          covCN         q      C6AA      α(0)
     1   6 C        3.691    -0.094    22.497     6.787
     2   7 N        2.829     0.078    19.891     6.624
     3   6 C        3.049     0.047    26.901     8.506
     4   7 N        2.791    -0.058    22.353     7.022
     5   6 C        3.039     0.106    25.621     8.302
     6   6 C        3.110    -0.023    28.427     8.735
     7   6 C        2.775     0.254    22.729     7.808
     8   8 O        0.857    -0.363    20.951     6.137
     9   7 N        2.741    -0.031    21.839     6.941
    10   6 C        2.816    -0.022    28.536     8.753
    11   6 C        2.737     0.309    21.752     7.636
    12   8 O        0.859    -0.350    20.701     6.100
    13   7 N        2.737    -0.050    22.199     6.998
    14   6 C        3.699    -0.073    22.078     6.720
    15   1 H        0.924     0.107     1.720     2.051
    16   1 H        0.925     0.105     1.740     2.063
    17   1 H        0.925     0.135     1.499     1.914
    18   1 H        0.926     0.124     1.582     1.967
    19   1 H        0.926     0.135     1.499     1.915
    20   1 H        0.926     0.132     1.523     1.930
    21   1 H        0.000     0.008     7.289     4.937
    22   1 H        0.925     0.083     1.944     2.180
    23   1 H        0.924     0.084     1.934     2.175
    24   1 H        0.925     0.127     1.556     1.951
    25   1 H        0.860     0.229     0.969     1.542

Wiberg/Mayer (AO) data.
largest (>0.10) Wiberg bond orders for each atom

     #   Z sym  total        # sym  WBO       # sym  WBO       # sym  WBO
 ---------------------------------------------------------------------------
     1   6 C    3.916 --     2 N    0.986    16 H    0.962    17 H    0.961
                            15 H    0.957
     2   7 N    3.649 --     3 C    1.379     6 C    1.147     1 C    0.986
     3   6 C    3.821 --     2 N    1.379     4 N    1.266    18 H    0.953
     4   7 N    3.580 --     3 C    1.266     5 C    1.194    25 H    0.919
     5   6 C    3.900 --     6 C    1.327     4 N    1.194    13 N    1.192
     6   6 C    3.910 --     5 C    1.327     2 N    1.147     7 C    1.118
     7   6 C    3.869 --     8 O    1.673     6 C    1.118     9 N    0.986
     8   8 O    1.958 --     7 C    1.673     9 N    0.107
     9   7 N    3.616 --    10 C    1.343    11 C    1.017     7 C    0.986
                             8 O    0.107
    10   6 C    3.363 --     9 N    1.343    19 H    0.958    20 H    0.958
    11   6 C    3.905 --    12 O    1.709    13 N    1.085     9 N    1.017
    12   8 O    2.021 --    11 C    1.709    13 N    0.135
    13   7 N    3.565 --     5 C    1.192    11 C    1.085    14 C    0.971
                            12 O    0.135
    14   6 C    3.924 --    22 H    0.972    23 H    0.971    13 N    0.971
                            24 H    0.965
    15   1 H    0.984 --     1 C    0.957
    16   1 H    0.985 --     1 C    0.962
    17   1 H    0.982 --     1 C    0.961
    18   1 H    0.984 --     3 C    0.953
    19   1 H    0.981 --    10 C    0.958
    20   1 H    0.982 --    10 C    0.958
    21   1 H    0.030
    22   1 H    0.991 --    14 C    0.972
    23   1 H    0.991 --    14 C    0.971
    24   1 H    0.983 --    14 C    0.965
    25   1 H    0.947 --     4 N    0.919
 ---------------------------------------------------------------------------

molecular dipole:
                 x           y           z       tot (Debye)
 q only:        2.414      -2.020      -0.008
   full:        2.641      -2.473       0.018       9.197

           -------------------------------------------------
          | TOTAL ENERGY              -42.104594878744 Eh   |
          | GRADIENT NORM               0.003778391010 Eh/α |
          | HOMO-LUMO GAP               0.292469157742 eV   |
           -------------------------------------------------

 * finished run on 2024/06/05 at 19:59:17.729
