   * xtb version 6.6.1 (8d0f1dd) compiled by 'conda@1efc2f54142f' on 2023-08-01
          program call               : xtb xtbopt.xyz --opt crude --input .xc2 --gfn2

   ID    Z sym.   atoms
    1    6 C      1, 3, 5-7, 10, 11, 14
    2    7 N      2, 4, 9, 13
    3    8 O      8, 12
    4    1 H      15-25
########################################################################
[WARNING] Please study the warnings concerning your input carefully
-1- readin_getIntValue: could not parse ''
########################################################################

          :  Hamiltonian                  GFN2-xTB          :
 * total energy  :   -40.2152736 Eh     change       -0.2273737E-12 Eh
 * total energy  :   -42.0515217 Eh     change       -0.1836248E+01 Eh
 * total energy  :   -42.0696790 Eh     change       -0.1815737E-01 Eh
 * total energy  :   -42.0732252 Eh     change       -0.3546181E-02 Eh
 * total energy  :   -42.0763783 Eh     change       -0.3153127E-02 Eh
 * total energy  :   -42.0771911 Eh     change       -0.8128176E-03 Eh
 * total energy  :   -42.0776435 Eh     change       -0.4523761E-03 Eh
 * total energy  :   -42.0781767 Eh     change       -0.5331268E-03 Eh
 * total energy  :   -42.0788624 Eh     change       -0.6857554E-03 Eh
 * total energy  :   -42.0808006 Eh     change       -0.1938171E-02 Eh
 * total energy  :   -42.1651493 Eh     change       -0.1026820E-02 Eh
 * total energy  :   -42.1676624 Eh     change       -0.2513079E-02 Eh
 * total energy  :   -42.1690895 Eh     change       -0.1427073E-02 Eh
 * total energy  :   -42.1699333 Eh     change       -0.8438101E-03 Eh
 * total energy  :   -42.1705916 Eh     change       -0.6582964E-03 Eh
 * total energy  :   -42.1715395 Eh     change       -0.9479152E-03 Eh
 * total energy  :   -42.1717951 Eh     change       -0.2556005E-03 Eh
 * total energy  :   -42.1723649 Eh     change       -0.5697734E-03 Eh
 * total energy  :   -42.1726452 Eh     change       -0.2803620E-03 Eh
   *** GEOMETRY OPTIMIZATION CONVERGED AFTER 29 ITERATIONS ***

 final structure:
================
25
 xtb: 6.6.1 (8d0f1dd)
C            3.24595818657714        1.20450823612575        0.01912919528316
N            2.31940595211272        0.10572358705560        0.01102958890109
C            2.63048538427168       -1.19875680173879       -0.03244429236385
N            1.49025199880042       -1.93828616091204       -0.05138083854429
C            0.43001526640037       -1.06990618674919       -0.01567666417068
C            0.95153454809195        0.21731321853558        0.02951454457146
C            0.11799946398214        1.39765350538045        0.08116270809323
O            0.49077127069989        2.55638922711148        0.08225802626554
N           -1.23148823968652        1.04787981171387        0.13645810387080
C           -2.15764278819927        2.15950431301133        0.19233919969478
C           -1.70903489255844       -0.21979747203773        0.12343418112666
O           -2.77818106431185       -2.70112083910648       -0.08275582694685
N           -0.91978947121335       -1.32775109259543       -0.02486064686707
C           -1.43405228124678       -2.55576961083401       -0.22541592231105
H            3.92513475354140        1.12187515453001        0.86711511976328
H            3.83115617384233        1.21224213011618       -0.90130528170472
H            2.67996605069101        2.13243094657797        0.09238598287723
H            3.62175260613293       -1.59991133806740       -0.05531246264045
H           -2.04637377811763        2.76074651137159       -0.71026851376330
H           -3.17824895569624        1.80282429376267        0.27824982523768
H           -1.90720478166935        2.79467892000777        1.04184993867612
H           -3.12404902394598       -3.34134789054862       -0.72214511752261
H           -0.78362816821586       -3.41354488935038       -0.24044460581497
H           -2.76841822239545       -0.38396260261099        0.19207447462053
H            1.46411152621105       -2.94537642914950       -0.05381909843468

          :  Hamiltonian                  GFN2-xTB          :
         :: total energy             -42.172645240437 Eh    ::
         :: gradient norm              0.008430330178 Eh/a0 ::
         :: HOMO-LUMO gap              1.295520001118 eV    ::
         :: SCC energy               -42.686006734027 Eh    ::
         :: -> dispersion             -0.022490319292 Eh    ::
         :: repulsion energy           0.513276003810 Eh    ::

    * Orbital Energies and Occupations

         #    Occupation            Energy/Eh            Energy/eV
      -------------------------------------------------------------
         1        2.0000           -0.8904275             -24.2298
       ...           ...                  ...                  ...
        25        2.0000           -0.6668287             -18.1453
        26        2.0000           -0.6545672             -17.8117
        27        2.0000           -0.6467486             -17.5989
        28        2.0000           -0.6337099             -17.2441
        29        2.0000           -0.6327992             -17.2193
        30        2.0000           -0.6153510             -16.7446
        31        1.9999           -0.6096219             -16.5887
        32        1.9999           -0.6039722             -16.4349
        33        1.9999           -0.5979153             -16.2701
        34        1.9997           -0.5817722             -15.8308
        35        1.9987           -0.5595302             -15.2256
        36        1.9954           -0.5392750             -14.6744
        37        1.5375           -0.4621579             -12.5760 (HOMO)
        38        0.2823           -0.4145484             -11.2804 (LUMO)
        39        0.1716           -0.4056784             -11.0391
        40        0.0150           -0.3657897              -9.9536
        41        0.0000           -0.2743465              -7.4653
        42        0.0000           -0.1847456              -5.0272
        43        0.0000           -0.1804387              -4.9100
        44                         -0.1355406              -3.6882
        45                         -0.1169466              -3.1823
        46                         -0.0708229              -1.9272
        47                         -0.0460662              -1.2535
        48                         -0.0212154              -0.5773
       ...                                ...                  ...
        67                          0.5363637              14.5952
      -------------------------------------------------------------
                  HL-Gap            0.0476095 Eh            1.2955 eV

     #   Z          covCN         q      C6AA      α(0)
     1   6 C        3.691    -0.091    22.439     6.779
     2   7 N        2.826     0.066    20.098     6.658
     3   6 C        3.033     0.036    27.171     8.550
     4   7 N        2.779    -0.070    22.597     7.060
     5   6 C        3.069     0.078    26.198     8.393
     6   6 C        3.098    -0.008    28.092     8.686
     7   6 C        2.775     0.245    22.891     7.836
     8   8 O        0.858    -0.405    21.779     6.257
     9   7 N        2.745    -0.013    21.501     6.887
    10   6 C        3.710    -0.070    21.979     6.700
    11   6 C        2.841     0.012    27.740     8.632
    12   8 O        1.658    -0.365    20.180     6.064
    13   7 N        2.737     0.052    20.331     6.697
    14   6 C        2.730     0.071    26.380     8.409
    15   1 H        0.925     0.099     1.796     2.096
    16   1 H        0.924     0.099     1.791     2.093
    17   1 H        0.925     0.134     1.501     1.916
    18   1 H        0.927     0.114     1.659     2.014
    19   1 H        0.924     0.105     1.740     2.063
    20   1 H        0.925     0.086     1.922     2.168
    21   1 H        0.925     0.107     1.720     2.051
    22   1 H        0.804     0.335     0.625     1.242
    23   1 H        0.926     0.050     2.325     2.384
    24   1 H        0.926     0.117     1.641     2.003
    25   1 H        0.860     0.216     1.029     1.589

Wiberg/Mayer (AO) data.
largest (>0.10) Wiberg bond orders for each atom

     #   Z sym  total        # sym  WBO       # sym  WBO       # sym  WBO
 ---------------------------------------------------------------------------
     1   6 C    3.921 --     2 N    0.988    15 H    0.963    16 H    0.961
                            17 H    0.961
     2   7 N    3.606 --     3 C    1.321     6 C    1.165     1 C    0.988
     3   6 C    3.713 --     2 N    1.321     4 N    1.247    18 H    0.956
     4   7 N    3.504 --     3 C    1.247     5 C    1.170    25 H    0.924
     5   6 C    3.841 --     6 C    1.352     4 N    1.170    13 N    1.102
     6   6 C    3.872 --     5 C    1.352     2 N    1.165     7 C    1.080
     7   6 C    3.903 --     8 O    1.621     9 N    1.084     6 C    1.080
     8   8 O    1.917 --     7 C    1.621     9 N    0.140
     9   7 N    3.549 --    11 C    1.248     7 C    1.084    10 C    0.983
                             8 O    0.140
    10   6 C    3.930 --     9 N    0.983    20 H    0.978    21 H    0.962
                            19 H    0.960
    11   6 C    3.645 --     9 N    1.248    13 N    1.162    24 H    0.948
                            14 C    0.135
    12   8 O    2.051 --    14 C    1.085    22 H    0.864
    13   7 N    3.683 --    14 C    1.230    11 C    1.162     5 C    1.102
    14   6 C    3.509 --    13 N    1.230    12 O    1.085    23 H    0.954
                            11 C    0.135
    15   1 H    0.985 --     1 C    0.963
    16   1 H    0.984 --     1 C    0.961
    17   1 H    0.982 --     1 C    0.961
    18   1 H    0.986 --     3 C    0.956
    19   1 H    0.982 --    10 C    0.960
    20   1 H    0.992 --    10 C    0.978
    21   1 H    0.983 --    10 C    0.962
    22   1 H    0.880 --    12 O    0.864
    23   1 H    0.994 --    14 C    0.954
    24   1 H    0.986 --    11 C    0.948
    25   1 H    0.953 --     4 N    0.924
 ---------------------------------------------------------------------------

molecular dipole:
                 x           y           z       tot (Debye)
 q only:        0.888      -2.096      -0.366
   full:        0.939      -2.881      -0.464       7.791

           -------------------------------------------------
          | TOTAL ENERGY              -42.172645240437 Eh   |
          | GRADIENT NORM               0.008430330178 Eh/α |
          | HOMO-LUMO GAP               1.295520001118 eV   |
           -------------------------------------------------

 * finished run on 2024/06/05 at 19:57:54.332
