   * xtb version 6.6.1 (8d0f1dd) compiled by 'conda@1efc2f54142f' on 2023-08-01
          program call               : xtb xtbopt.xyz --opt crude --input .xc2 --gfn2

   ID    Z sym.   atoms
    1    7 N      1, 17
    2    6 C      2-6, 8, 9, 11-16, 18-23, 25, 26, 28-33
    3    8 O      7, 10, 24, 27
    4    1 H      34-72

          :  Hamiltonian                  GFN2-xTB          :
 * total energy  :   -99.3725587 Eh     change       -0.1278977E-11 Eh
   *** GEOMETRY OPTIMIZATION CONVERGED AFTER 1 ITERATIONS ***

 final structure:
================
72
 xtb: 6.6.1 (8d0f1dd)
N           -1.52409459211655        1.66084547344750        1.87224769085326
C           -1.60291109876277        1.49175725692028        0.66739161866631
C           -2.90585478370817        1.52160127902188       -0.14465649708751
C           -3.62365356048675        0.19489029723817        0.06607280480715
C           -4.62167505074790       -0.18663533316433       -0.83200278671728
C           -5.31376725001012       -1.37978227171389       -0.68711114830914
O           -6.28745961069816       -1.82011101237490       -1.50347052577542
C           -6.69535360771061       -1.02962425323399       -2.59567068344327
C           -5.00543712605898       -2.24262734107995        0.40290438617852
O           -5.70411169038684       -3.38867636807526        0.45172665740174
C           -5.48146009857941       -4.28673754965063        1.51491338775501
C           -4.04162038963866       -1.83687904942371        1.31432932991430
C           -3.36868311171990       -0.63631253491024        1.15083676316710
C           -2.40194294177436        1.65259674619797       -1.59186471040326
C           -1.13647483816062        0.81000005533643       -1.62329381809120
C           -0.42254759641718        1.19297047713260       -0.32016461379161
N            0.50722059431201        0.26706942687960        0.20600005876843
C            1.90442737268793        0.58539493330677        0.26631847426805
C            2.65725286837761        0.35071627964290       -1.06762557444618
C            4.13545871991833        0.41764804668749       -0.83241993635401
C            4.85361250444709        1.58425075698413       -1.05874633364779
C            6.21266461401314        1.64588079259044       -0.79662502100457
C            6.88696924651279        0.54168626949488       -0.28950216691039
O            8.19362134391068        0.48560838281804        0.01042842868558
C            9.00348809633081        1.62186054759730       -0.18924201887740
C            6.15866652627032       -0.66101842918187       -0.05114050809532
O            6.88634488579563       -1.67990352787731        0.43850052211681
C            6.26165989291635       -2.91214360314420        0.71123321455207
C            4.80054710214500       -0.69774049723983       -0.32710370552374
C            0.14581388135872       -1.12124001066798        0.29748770189994
C           -3.83173084040398        2.68067587802394        0.30561484564824
C           -4.35283629060171        2.44349268262944        1.71892212235320
C           -3.14995522353070        4.04680664318024        0.24587639118222
H           -4.88440877968317        0.46867477796852       -1.64615322327713
H           -7.08520222698768       -0.06170651220502       -2.26669568074724
H           -7.49118869650182       -1.59171158724080       -3.08037592966585
H           -5.87770184987291       -0.87521200413574       -3.30655059806277
H           -5.71896446034386       -3.83030036703376        2.48024214074965
H           -6.15327634145042       -5.12396976276907        1.33600085029416
H           -4.44791902095037       -4.64626840672218        1.52502633056854
H           -3.80827054198230       -2.44867723538190        2.17024520468609
H           -2.65743321050859       -0.34417013711751        1.90700174306255
H           -3.13170750616206        1.31925713835369       -2.32490328601295
H           -2.15486451417990        2.69123437499212       -1.80853656488519
H           -1.39271146541547       -0.24965270473236       -1.62123098255550
H           -0.51311930354024        1.01636185369606       -2.49293363914454
H            0.56935576863821        0.96983810992849        2.94677441712414
H            0.08085141426001        2.15812537852215       -0.44750448942821
H            2.36193687509809       -0.04120387130775        1.03615320860978
H            2.02388694857625        1.62920588062029        0.56422998456552
H            2.35142172053298        1.10177354470218       -1.79633737321048
H            2.38948920947595       -0.63519467948236       -1.45082112611845
H            4.35408169206970        2.45656697900979       -1.45120021349387
H            6.74396615397195        2.56337849650037       -0.99009767686812
H            8.66411143783517        2.46628395106161        0.41778476364089
H            9.02840017926018        1.91461064061981       -1.24294341478707
H           10.00212273279931        1.32711036182785        0.12772932953126
H            7.04821876350125       -3.55984780249661        1.09370135399721
H            5.48006590794660       -2.80543962834808        1.46998590716542
H            5.83613359190050       -3.35506897683722       -0.19434991190399
H            4.24278420268527       -1.60575759582828       -0.15846467599514
H            0.41047757519088       -1.68479729339130       -0.60588273989982
H           -0.92584410965714       -1.21464671028565        0.46353661875543
H            0.66591225340486       -1.57097403028008        1.14352554068063
H           -4.68043828209241        2.68478798048880       -0.38894476068314
H           -3.50361820466135        2.32746636654990        2.39460742569828
H           -4.96605485843537        1.54775978385752        1.77513190259550
H           -4.94630901739215        3.29166421879726        2.04856788191654
H           -2.27465782829318        4.06303841113806        0.89092756628453
H           -2.85277588284245        4.31921693970476       -0.76347060839872
H           -3.84177366698940        4.80745224689425        0.59805103743419
H           -0.17463900967662        1.26861094951363        2.58927418061343

          :  Hamiltonian                  GFN2-xTB          :
         :: total energy             -99.372558656455 Eh    ::
         :: gradient norm              0.002013287802 Eh/a0 ::
         :: HOMO-LUMO gap              0.909211385824 eV    ::
         :: SCC energy              -100.739038235665 Eh    ::
         :: -> dispersion             -0.076926243264 Eh    ::
         :: repulsion energy           1.365285925917 Eh    ::

    * Orbital Energies and Occupations

         #    Occupation            Energy/Eh            Energy/eV
      -------------------------------------------------------------
         1        2.0000           -0.8174312             -22.2434
       ...           ...                  ...                  ...
        78        1.9971           -0.5361043             -14.5881
        79        1.9967           -0.5342905             -14.5388
        80        1.9943           -0.5256191             -14.3028
        81        1.9943           -0.5254566             -14.2984
        82        1.9936           -0.5236486             -14.2492
        83        1.9924           -0.5209318             -14.1753
        84        1.9899           -0.5164178             -14.0524
        85        1.9682           -0.4981319             -13.5549
        86        1.9647           -0.4964507             -13.5091
        87        1.9617           -0.4951242             -13.4730
        88        1.8592           -0.4736825             -12.8896
        89        1.7655           -0.4647877             -12.6475
        90        1.7071           -0.4607333             -12.5372 (HOMO)
        91        0.8281           -0.4273204             -11.6280 (LUMO)
        92        0.0023           -0.3257172              -8.8632
        93        0.0016           -0.3197075              -8.6997
        94        0.0015           -0.3192651              -8.6876
        95        0.0015           -0.3183679              -8.6632
        96        0.0013           -0.3165528              -8.6138
        97        0.0000           -0.1969653              -5.3597
        98        0.0000           -0.1945664              -5.2944
        99                         -0.1126081              -3.0642
       100                         -0.0719414              -1.9576
       101                         -0.0677388              -1.8433
       ...                                ...                  ...
       171                          0.5989404              16.2980
      -------------------------------------------------------------
                  HL-Gap            0.0334129 Eh            0.9092 eV

     #   Z          covCN         q      C6AA      α(0)
     1   7 N        0.964    -0.271    26.702     7.444
     2   6 C        2.890     0.116    25.446     8.270
     3   6 C        3.924     0.016    20.248     6.395
     4   6 C        2.971     0.010    27.794     8.648
     5   6 C        2.920    -0.075    29.866     8.962
     6   6 C        2.861     0.135    25.047     8.203
     7   8 O        1.706    -0.217    17.611     5.666
     8   6 C        3.644     0.025    20.495     6.508
     9   6 C        2.864     0.135    25.041     8.202
    10   8 O        1.706    -0.215    17.567     5.659
    11   6 C        3.646     0.023    20.517     6.510
    12   6 C        2.913    -0.068    29.705     8.937
    13   6 C        2.921    -0.047    29.178     8.858
    14   6 C        3.836    -0.066    21.742     6.634
    15   6 C        3.824    -0.066    21.740     6.635
    16   6 C        3.811     0.032    20.020     6.369
    17   7 N        2.729    -0.081    22.823     7.095
    18   6 C        3.748    -0.006    20.759     6.499
    19   6 C        3.807    -0.071    21.849     6.654
    20   6 C        2.968     0.010    27.787     8.647
    21   6 C        2.921    -0.042    29.046     8.838
    22   6 C        2.912    -0.064    29.590     8.920
    23   6 C        2.863     0.137    25.002     8.196
    24   8 O        1.706    -0.210    17.496     5.647
    25   6 C        3.645     0.022    20.544     6.515
    26   6 C        2.862     0.137    25.011     8.197
    27   8 O        1.706    -0.215    17.567     5.659
    28   6 C        3.645     0.024    20.501     6.508
    29   6 C        2.919    -0.076    29.908     8.968
    30   6 C        3.696    -0.051    21.674     6.660
    31   6 C        3.852    -0.006    20.654     6.464
    32   6 C        3.756    -0.118    22.807     6.809
    33   6 C        3.756    -0.112    22.694     6.793
    34   1 H        0.926     0.055     2.256     2.349
    35   1 H        0.924     0.057     2.232     2.336
    36   1 H        0.925     0.086     1.923     2.168
    37   1 H        0.924     0.054     2.272     2.357
    38   1 H        0.924     0.060     2.195     2.317
    39   1 H        0.925     0.086     1.922     2.168
    40   1 H        0.924     0.056     2.244     2.343
    41   1 H        0.926     0.060     2.194     2.316
    42   1 H        0.926     0.064     2.150     2.293
    43   1 H        0.925     0.053     2.288     2.366
    44   1 H        0.925     0.052     2.291     2.367
    45   1 H        0.925     0.048     2.351     2.398
    46   1 H        0.925     0.049     2.329     2.387
    47   1 H        0.373    -0.022     7.298     4.840
    48   1 H        0.924     0.065     2.143     2.289
    49   1 H        0.924     0.060     2.202     2.321
    50   1 H        0.924     0.058     2.220     2.330
    51   1 H        0.924     0.051     2.307     2.375
    52   1 H        0.924     0.055     2.263     2.353
    53   1 H        0.926     0.055     2.259     2.351
    54   1 H        0.926     0.064     2.154     2.295
    55   1 H        0.924     0.060     2.195     2.317
    56   1 H        0.924     0.061     2.186     2.312
    57   1 H        0.925     0.087     1.912     2.162
    58   1 H        0.925     0.086     1.922     2.168
    59   1 H        0.924     0.054     2.267     2.354
    60   1 H        0.924     0.057     2.234     2.338
    61   1 H        0.926     0.054     2.273     2.358
    62   1 H        0.924     0.051     2.311     2.377
    63   1 H        0.925     0.063     2.162     2.299
    64   1 H        0.925     0.063     2.159     2.298
    65   1 H        0.924     0.047     2.358     2.401
    66   1 H        0.924     0.078     1.999     2.211
    67   1 H        0.925     0.041     2.439     2.442
    68   1 H        0.925     0.057     2.233     2.337
    69   1 H        0.925     0.050     2.323     2.384
    70   1 H        0.925     0.038     2.472     2.459
    71   1 H        0.925     0.057     2.236     2.338
    72   1 H        0.422     0.086     3.624     3.362

Wiberg/Mayer (AO) data.
largest (>0.10) Wiberg bond orders for each atom

     #   Z sym  total        # sym  WBO       # sym  WBO       # sym  WBO
 ---------------------------------------------------------------------------
     1   7 N    2.559 --     2 C    2.093    72 H    0.212
     2   6 C    3.925 --     1 N    2.093     3 C    0.890    16 C    0.844
     3   6 C    3.892 --    14 C    0.974     4 C    0.969    31 C    0.944
                             2 C    0.890
     4   6 C    3.922 --    13 C    1.392     5 C    1.375     3 C    0.969
     5   6 C    3.945 --     6 C    1.388     4 C    1.375    34 H    0.955
     6   6 C    3.880 --     5 C    1.388     9 C    1.207     7 O    1.113
     7   8 O    2.250 --     6 C    1.113     8 C    0.976
     8   6 C    3.926 --    36 H    0.976     7 O    0.976    37 H    0.972
                            35 H    0.971
     9   6 C    3.876 --    12 C    1.376     6 C    1.207    10 O    1.118
    10   8 O    2.251 --     9 C    1.118    11 C    0.974
    11   6 C    3.924 --    39 H    0.976    10 O    0.974    40 H    0.971
                            38 H    0.971
    12   6 C    3.950 --    13 C    1.418     9 C    1.376    41 H    0.962
    13   6 C    3.926 --    12 C    1.418     4 C    1.392    42 H    0.956
    14   6 C    3.983 --    15 C    1.008     3 C    0.974    44 H    0.968
                            43 H    0.964
    15   6 C    3.968 --    14 C    1.008    45 H    0.973    46 H    0.972
                            16 C    0.967
    16   6 C    3.895 --    17 N    1.053    15 C    0.967    48 H    0.943
                             2 C    0.844
    17   7 N    3.216 --    16 C    1.053    30 C    1.015    18 C    1.013
    18   6 C    3.957 --    17 N    1.013    50 H    0.967    49 H    0.965
                            19 C    0.951
    19   6 C    3.965 --    20 C    1.018    51 H    0.974    52 H    0.967
                            18 C    0.951
    20   6 C    3.919 --    21 C    1.388    29 C    1.379    19 C    1.018
    21   6 C    3.922 --    22 C    1.426    20 C    1.388    53 H    0.967
    22   6 C    3.944 --    21 C    1.426    23 C    1.370    54 H    0.962
    23   6 C    3.866 --    22 C    1.370    26 C    1.202    24 O    1.124
    24   8 O    2.250 --    23 C    1.124    25 C    0.973
    25   6 C    3.921 --    57 H    0.976    24 O    0.973    55 H    0.970
                            56 H    0.970
    26   6 C    3.876 --    29 C    1.389    23 C    1.202    27 O    1.116
    27   8 O    2.250 --    26 C    1.116    28 C    0.976
    28   6 C    3.926 --    27 O    0.976    58 H    0.976    59 H    0.972
                            60 H    0.971
    29   6 C    3.946 --    26 C    1.389    20 C    1.379    61 H    0.961
    30   6 C    3.965 --    17 N    1.015    64 H    0.973    63 H    0.971
                            62 H    0.961
    31   6 C    3.970 --    32 C    1.010    33 C    1.007    65 H    0.950
                             3 C    0.944
    32   6 C    3.959 --    31 C    1.010    67 H    0.980    68 H    0.978
                            66 H    0.948
    33   6 C    3.982 --    31 C    1.007    69 H    0.981    71 H    0.979
                            70 H    0.978
    34   1 H    0.995 --     5 C    0.955
    35   1 H    0.990 --     8 C    0.971
    36   1 H    0.992 --     8 C    0.976
    37   1 H    0.990 --     8 C    0.972
    38   1 H    0.989 --    11 C    0.971
    39   1 H    0.992 --    11 C    0.976
    40   1 H    0.990 --    11 C    0.971
    41   1 H    0.994 --    12 C    0.962
    42   1 H    0.994 --    13 C    0.956
    43   1 H    0.991 --    14 C    0.964
    44   1 H    0.996 --    14 C    0.968
    45   1 H    0.997 --    15 C    0.973
    46   1 H    0.992 --    15 C    0.972
    47   1 H    0.822 --    72 H    0.749
    48   1 H    0.993 --    16 C    0.943
    49   1 H    0.992 --    18 C    0.965
    50   1 H    0.992 --    18 C    0.967
    51   1 H    0.995 --    19 C    0.974
    52   1 H    0.994 --    19 C    0.967
    53   1 H    0.996 --    21 C    0.967
    54   1 H    0.994 --    22 C    0.962
    55   1 H    0.988 --    25 C    0.970
    56   1 H    0.988 --    25 C    0.970
    57   1 H    0.991 --    25 C    0.976
    58   1 H    0.992 --    28 C    0.976
    59   1 H    0.990 --    28 C    0.972
    60   1 H    0.990 --    28 C    0.971
    61   1 H    0.995 --    29 C    0.961
    62   1 H    0.977 --    30 C    0.961
    63   1 H    0.993 --    30 C    0.971
    64   1 H    0.989 --    30 C    0.973
    65   1 H    0.982 --    31 C    0.950
    66   1 H    0.986 --    32 C    0.948
    67   1 H    0.995 --    32 C    0.980
    68   1 H    0.992 --    32 C    0.978
    69   1 H    0.995 --    33 C    0.981
    70   1 H    0.996 --    33 C    0.978
    71   1 H    0.993 --    33 C    0.979
    72   1 H    0.977 --    47 H    0.749     1 N    0.212
 ---------------------------------------------------------------------------

molecular dipole:
                 x           y           z       tot (Debye)
 q only:        0.607      -0.271      -0.624
   full:        0.640      -0.235      -1.103       3.296

           -------------------------------------------------
          | TOTAL ENERGY              -99.372558656455 Eh   |
          | GRADIENT NORM               0.002013287802 Eh/α |
          | HOMO-LUMO GAP               0.909211385824 eV   |
           -------------------------------------------------

 * finished run on 2024/04/06 at 11:12:28.940
