   * xtb version 6.6.1 (8d0f1dd) compiled by 'conda@1efc2f54142f' on 2023-08-01
          program call               : xtb struc.xyz --opt loose --input .xc1 --gfn2

   ID    Z sym.   atoms
    1    6 C      1, 3, 5-7, 10, 11, 14
    2    7 N      2, 4, 9, 13
    3    8 O      8, 12
    4    1 H      15-25
constraining bond 3 17 to    5.1400000 Å, actual value:    3.3163079 Å

          :  Hamiltonian                  GFN2-xTB          :
 * total energy  :   -36.3094416 Eh     change       -0.6650680E-10 Eh
 * total energy  :   -39.1457485 Eh     change       -0.2836307E+01 Eh
 * total energy  :   -40.9990037 Eh     change       -0.1853255E+01 Eh
 * total energy  :   -41.7865052 Eh     change       -0.7875015E+00 Eh
 * total energy  :   -41.9424455 Eh     change       -0.1559403E+00 Eh
 * total energy  :   -41.9542588 Eh     change       -0.1181339E-01 Eh
 * total energy  :   -41.9673116 Eh     change       -0.1305279E-01 Eh
 * total energy  :   -41.9799167 Eh     change       -0.1260507E-01 Eh
 * total energy  :   -41.9860644 Eh     change       -0.6147728E-02 Eh
 * total energy  :   -41.9896325 Eh     change       -0.3568032E-02 Eh
 * total energy  :   -42.0678935 Eh     change       -0.2401093E-01 Eh
 * total energy  :   -42.0723658 Eh     change       -0.4472382E-02 Eh
 * total energy  :   -42.0764463 Eh     change       -0.4080422E-02 Eh
 * total energy  :   -42.0776210 Eh     change       -0.1174759E-02 Eh
 * total energy  :   -42.0850843 Eh     change       -0.7463223E-02 Eh
 * total energy  :   -42.0874316 Eh     change       -0.2347346E-02 Eh
 * total energy  :   -42.0877653 Eh     change       -0.3336967E-03 Eh
 * total energy  :   -42.0879127 Eh     change       -0.1474285E-03 Eh
 * total energy  :   -42.0879375 Eh     change       -0.2475529E-04 Eh
   *** GEOMETRY OPTIMIZATION CONVERGED AFTER 26 ITERATIONS ***

 final structure:
================
25
 xtb: 6.6.1 (8d0f1dd)
C            3.11948454899553        1.56955813020090        0.01835534904762
N            2.37024786283177        0.38799744370981       -0.01732507149803
C            2.51230840720176       -2.60091377597530       -0.01265944883481
N            1.26384553938953       -2.30960781417585       -0.01206694404127
C            0.52444946466582       -1.11765073283713       -0.01085203434312
C            1.09743674375779        0.18636955925890       -0.00595955926872
C            0.13990051488566        1.35947719292551        0.00341122354806
O            0.53622735787575        2.50044098217612        0.01543221700622
N           -1.19121643532393        1.05283237843507       -0.00760555325916
C           -2.16107664383878        2.14279409746317       -0.00913332906907
C           -1.73694403611645       -0.21171986512957       -0.00642070573637
O           -2.92359797857695       -0.39501681029571       -0.00469131100220
N           -0.83047508195822       -1.28301855434612       -0.00522314916328
C           -1.44649552631504       -2.60121264129240        0.00470868850089
H            3.67347866530835        1.58324483996577        0.96430793824796
H            3.86355177529097        1.51630086003715       -0.78285943169545
H            2.56251381103509        2.53203728142098       -0.06781988100946
H            3.26781958763183       -1.82209726539034       -0.01580669596269
H           -1.62376436435958        3.08731982009061       -0.00232654603776
H           -2.78852860821916        2.06931973767051       -0.89715512007020
H           -2.79959167797985        2.06296915025235        0.87042210265991
H           -1.18514547204828       -3.15723153689168        0.90745644246527
H           -1.19973453808521       -3.16527084521462       -0.89709364201411
H           -2.52703217034818       -2.44454394730288        0.01250205102003
H            0.64276976839988       -3.12413914315525       -0.01042597159025

          :  Hamiltonian                  GFN2-xTB          :
         :: total energy             -42.087937481166 Eh    ::
         :: gradient norm              0.001532415560 Eh/a0 ::
         :: HOMO-LUMO gap              0.173917647739 eV    ::
         :: SCC energy               -42.595537935670 Eh    ::
         :: -> dispersion             -0.022098025630 Eh    ::
         :: repulsion energy           0.507396032285 Eh    ::

    * Orbital Energies and Occupations

         #    Occupation            Energy/Eh            Energy/eV
      -------------------------------------------------------------
         1        2.0000           -0.8961692             -24.3860
       ...           ...                  ...                  ...
        25        1.9999           -0.6768257             -18.4174
        26        1.9998           -0.6677802             -18.1712
        27        1.9994           -0.6473310             -17.6148
        28        1.9993           -0.6432074             -17.5026
        29        1.9989           -0.6358242             -17.3017
        30        1.9986           -0.6324001             -17.2085
        31        1.9970           -0.6203738             -16.8812
        32        1.9943           -0.6103111             -16.6074
        33        1.9910           -0.6031127             -16.4115
        34        1.9836           -0.5936106             -16.1530
        35        1.9671           -0.5824253             -15.8486
        36        1.7360           -0.5474668             -14.8973
        37        1.2468           -0.5256291             -14.3031 (HOMO)
        38        1.0502           -0.5192377             -14.1292 (LUMO)
        39        0.0364           -0.4544955             -12.3675
        40        0.0015           -0.4042090             -10.9991
        41        0.0005           -0.3853313             -10.4854
        42        0.0000           -0.3021124              -8.2209
        43                         -0.2115178              -5.7557
        44                         -0.1757395              -4.7821
        45                         -0.1517824              -4.1302
        46                         -0.1016416              -2.7658
        47                         -0.0888339              -2.4173
        48                         -0.0570694              -1.5529
       ...                                ...                  ...
        67                          0.5381035              14.6425
      -------------------------------------------------------------
                  HL-Gap            0.0063914 Eh            0.1739 eV

     #   Z          covCN         q      C6AA      α(0)
     1   6 C        3.686    -0.053    21.741     6.675
     2   7 N        1.831    -0.118    24.333     7.310
     3   6 C        1.841    -0.061    32.820     9.255
     4   7 N        2.687     0.005    21.178     6.835
     5   6 C        2.832     0.089    26.018     8.359
     6   6 C        2.883     0.054    26.787     8.485
     7   6 C        2.768     0.269    22.464     7.762
     8   8 O        0.859    -0.323    20.199     6.026
     9   7 N        2.738    -0.064    22.485     7.043
    10   6 C        3.710    -0.063    21.849     6.680
    11   6 C        2.727     0.318    21.592     7.607
    12   8 O        0.860    -0.347    20.658     6.094
    13   7 N        2.743    -0.044    22.101     6.982
    14   6 C        3.702    -0.084    22.268     6.748
    15   1 H        0.924     0.125     1.573     1.961
    16   1 H        0.924     0.122     1.596     1.975
    17   1 H        0.921     0.137     1.481     1.904
    18   1 H        0.925     0.130     1.535     1.937
    19   1 H        0.925     0.115     1.654     2.011
    20   1 H        0.925     0.107     1.722     2.052
    21   1 H        0.925     0.107     1.720     2.051
    22   1 H        0.924     0.094     1.838     2.120
    23   1 H        0.924     0.094     1.836     2.119
    24   1 H        0.924     0.141     1.451     1.884
    25   1 H        0.859     0.250     0.884     1.473

Wiberg/Mayer (AO) data.
largest (>0.10) Wiberg bond orders for each atom

     #   Z sym  total        # sym  WBO       # sym  WBO       # sym  WBO
 ---------------------------------------------------------------------------
     1   6 C    3.863 --     2 N    1.108    16 H    0.916    15 H    0.905
                            17 H    0.878
     2   7 N    2.836 --     6 C    1.566     1 C    1.108
     3   6 C    2.675 --     4 N    1.626    18 H    0.907
     4   7 N    3.662 --     3 C    1.626     5 C    1.083    25 H    0.865
     5   6 C    3.667 --    13 N    1.215     6 C    1.208     4 N    1.083
     6   6 C    3.916 --     2 N    1.566     5 C    1.208     7 C    0.928
     7   6 C    3.893 --     8 O    1.702     9 N    1.165     6 C    0.928
     8   8 O    2.019 --     7 C    1.702     9 N    0.137
     9   7 N    3.550 --     7 C    1.165    11 C    1.107    10 C    0.960
                             8 O    0.137    12 O    0.119
    10   6 C    3.891 --    19 H    0.967     9 N    0.960    21 H    0.959
                            20 H    0.959
    11   6 C    3.939 --    12 O    1.695     9 N    1.107    13 N    1.053
    12   8 O    2.011 --    11 C    1.695     9 N    0.119    13 N    0.109
    13   7 N    3.482 --     5 C    1.215    11 C    1.053    14 C    0.978
                            12 O    0.109
    14   6 C    3.913 --    13 N    0.978    22 H    0.958    23 H    0.958
                            24 H    0.950
    15   1 H    0.944 --     1 C    0.905
    16   1 H    0.947 --     1 C    0.916
    17   1 H    0.914 --     1 C    0.878
    18   1 H    0.939 --     3 C    0.907
    19   1 H    0.984 --    10 C    0.967
    20   1 H    0.979 --    10 C    0.959
    21   1 H    0.979 --    10 C    0.959
    22   1 H    0.981 --    14 C    0.958
    23   1 H    0.981 --    14 C    0.958
    24   1 H    0.978 --    14 C    0.950
    25   1 H    0.917 --     4 N    0.865
 ---------------------------------------------------------------------------

molecular dipole:
                 x           y           z       tot (Debye)
 q only:        1.344      -1.514       0.014
   full:        1.242      -1.321       0.023       4.609

           -------------------------------------------------
          | TOTAL ENERGY              -42.087937481166 Eh   |
          | GRADIENT NORM               0.001532415560 Eh/α |
          | HOMO-LUMO GAP               0.173917647739 eV   |
           -------------------------------------------------

 * finished run on 2024/06/05 at 19:57:54.674
