   * xtb version 6.6.1 (8d0f1dd) compiled by 'conda@1efc2f54142f' on 2023-08-01
          program call               : xtb struc.xyz --opt loose --input .xc1 --gfn2

   ID    Z sym.   atoms
    1    6 C      1, 3, 5-7, 10, 11, 14
    2    7 N      2, 4, 9, 13
    3    8 O      8, 12
    4    1 H      15-25
constraining bond 15 17 to    3.2800000 Å, actual value:    1.7729540 Å

          :  Hamiltonian                  GFN2-xTB          :
 * total energy  :   -38.1925802 Eh     change       -0.6650680E-10 Eh
 * total energy  :   -40.2857734 Eh     change       -0.2093193E+01 Eh
 * total energy  :   -41.6350387 Eh     change       -0.1349265E+01 Eh
 * total energy  :   -42.0383600 Eh     change       -0.4033214E+00 Eh
 * total energy  :   -42.0685494 Eh     change       -0.3018937E-01 Eh
 * total energy  :   -42.0697759 Eh     change       -0.1226553E-02 Eh
 * total energy  :   -42.0713473 Eh     change       -0.1571410E-02 Eh
 * total energy  :   -42.0748327 Eh     change       -0.3485404E-02 Eh
 * total energy  :   -42.0770951 Eh     change       -0.2262379E-02 Eh
 * total energy  :   -42.0808258 Eh     change       -0.3730700E-02 Eh
 * total energy  :   -42.1909494 Eh     change       -0.5343123E-03 Eh
 * total energy  :   -42.1915239 Eh     change       -0.5745865E-03 Eh
 * total energy  :   -42.1916846 Eh     change       -0.1606138E-03 Eh
 * total energy  :   -42.1916336 Eh     change        0.5100723E-04 Eh
 * total energy  :   -42.1919101 Eh     change       -0.2765418E-03 Eh
 * total energy  :   -42.1919762 Eh     change       -0.6613095E-04 Eh
 * total energy  :   -42.1920703 Eh     change       -0.9404769E-04 Eh
 * total energy  :   -42.1921160 Eh     change       -0.4577234E-04 Eh
 * total energy  :   -42.1921356 Eh     change       -0.1956575E-04 Eh
   *** GEOMETRY OPTIMIZATION CONVERGED AFTER 37 ITERATIONS ***

 final structure:
================
25
 xtb: 6.6.1 (8d0f1dd)
C            3.28831306905759        0.92784158646593       -0.04365992191019
N            2.37868287306638       -0.04492262551565        0.00483377289771
C            2.58722851780419       -1.37418434173147        0.13206909074608
N            1.38733379192774       -2.04262414376476        0.13641213829024
C            0.39682170542873       -1.14459493639086        0.01292282299110
C            0.99019811084992        0.12942318278487       -0.04972766657297
C            0.19163492564818        1.26579096667865       -0.01840485047380
O            0.63570201289823        2.51141117381444        0.07887125040138
N           -1.15561621054775        1.06438601398676       -0.05246101331638
C           -2.06926964698876        2.19790181986971       -0.05930981811767
C           -1.78050034191459       -0.19034234507760       -0.08095917422055
O           -2.97210758006321       -0.28841988730733       -0.13660916592086
N           -0.94650140326793       -1.31239157664246       -0.02029228196266
C           -1.54409609163319       -2.63354238074382       -0.00981905222764
H            4.31302477089697        0.68614063545341        0.12725448810291
H            3.05433089715950        1.88530831173395       -0.45952393671730
H            1.59612756297838        2.52421203788352        0.24799987096991
H            3.54304048457539       -1.84229862473099        0.21505173663752
H           -1.49723619515514        3.11963889674679       -0.06723955536533
H           -2.70658106340430        2.14054081274126       -0.94137774151837
H           -2.70715139024629        2.15760182260790        0.82339946950624
H           -1.30743711949084       -3.15190668608255        0.91995259427284
H           -1.19147527856310       -3.21483500716787       -0.86210522978345
H           -2.62321520605754       -2.50873399334344       -0.08324729595241
H            1.29918031914148       -3.04316217066834        0.21714108714364

          :  Hamiltonian                  GFN2-xTB          :
         :: total energy             -42.192135610174 Eh    ::
         :: gradient norm              0.002636585464 Eh/a0 ::
         :: HOMO-LUMO gap              1.533205172049 eV    ::
         :: SCC energy               -42.718147609726 Eh    ::
         :: -> dispersion             -0.023072322324 Eh    ::
         :: repulsion energy           0.525879299614 Eh    ::

    * Orbital Energies and Occupations

         #    Occupation            Energy/Eh            Energy/eV
      -------------------------------------------------------------
         1        2.0000           -0.9015728             -24.5330
       ...           ...                  ...                  ...
        25        2.0000           -0.6700479             -18.2329
        26        2.0000           -0.6683642             -18.1871
        27        2.0000           -0.6574748             -17.8908
        28        2.0000           -0.6465601             -17.5938
        29        2.0000           -0.6391371             -17.3918
        30        1.9999           -0.6218934             -16.9226
        31        1.9999           -0.6158740             -16.7588
        32        1.9999           -0.6121014             -16.6561
        33        1.9998           -0.6087090             -16.5638
        34        1.9992           -0.5842823             -15.8991
        35        1.9987           -0.5762310             -15.6800
        36        1.9956           -0.5569317             -15.1549
        37        1.7024           -0.4878374             -13.2747 (HOMO)
        38        0.2802           -0.4314931             -11.7415 (LUMO)
        39        0.0207           -0.3880424             -10.5592
        40        0.0037           -0.3607960              -9.8178
        41        0.0001           -0.2931329              -7.9766
        42        0.0000           -0.2052757              -5.5858
        43                         -0.1718849              -4.6772
        44                         -0.1443800              -3.9288
        45                         -0.1303585              -3.5472
        46                         -0.1096432              -2.9835
        47                         -0.0675890              -1.8392
        48                         -0.0353439              -0.9618
       ...                                ...                  ...
        67                          0.5371292              14.6160
      -------------------------------------------------------------
                  HL-Gap            0.0563443 Eh            1.5332 eV

     #   Z          covCN         q      C6AA      α(0)
     1   6 C        2.788    -0.130    31.290     9.163
     2   7 N        2.794     0.103    19.471     6.554
     3   6 C        3.036    -0.003    28.069     8.690
     4   7 N        2.773    -0.063    22.452     7.037
     5   6 C        3.016     0.105    25.669     8.311
     6   6 C        3.105    -0.037    28.779     8.790
     7   6 C        2.775     0.202    23.707     7.975
     8   8 O        1.659    -0.328    19.498     5.961
     9   7 N        2.746    -0.049    22.183     6.995
    10   6 C        3.706    -0.070    21.987     6.703
    11   6 C        2.727     0.312    21.693     7.625
    12   8 O        0.859    -0.356    20.811     6.116
    13   7 N        2.737    -0.058    22.366     7.024
    14   6 C        3.698    -0.072    22.045     6.716
    15   1 H        0.927     0.082     1.955     2.186
    16   1 H        0.927     0.071     2.078     2.254
    17   1 H        0.804     0.352     0.583     1.199
    18   1 H        0.927     0.105     1.741     2.063
    19   1 H        0.925     0.109     1.701     2.040
    20   1 H        0.925     0.107     1.721     2.052
    21   1 H        0.925     0.104     1.748     2.067
    22   1 H        0.924     0.084     1.941     2.178
    23   1 H        0.924     0.084     1.937     2.176
    24   1 H        0.925     0.125     1.576     1.963
    25   1 H        0.860     0.219     1.014     1.577

Wiberg/Mayer (AO) data.
largest (>0.10) Wiberg bond orders for each atom

     #   Z sym  total        # sym  WBO       # sym  WBO       # sym  WBO
 ---------------------------------------------------------------------------
     1   6 C    3.565 --     2 N    1.304    15 H    0.971    16 H    0.955
                             3 C    0.177
     2   7 N    3.720 --     1 C    1.304     3 C    1.250     6 C    1.070
     3   6 C    3.710 --     2 N    1.250     4 N    1.176    18 H    0.960
                             1 C    0.177
     4   7 N    3.555 --     5 C    1.259     3 C    1.176    25 H    0.924
     5   6 C    3.866 --     4 N    1.259     6 C    1.235    13 N    1.178
     6   6 C    3.906 --     7 C    1.295     5 C    1.235     2 N    1.070
     7   6 C    3.781 --     6 C    1.295     9 N    1.202     8 O    1.160
     8   8 O    2.179 --     7 C    1.160    17 H    0.825
     9   7 N    3.536 --     7 C    1.202    11 C    1.069    10 C    0.969
                            12 O    0.126
    10   6 C    3.916 --    19 H    0.971     9 N    0.969    21 H    0.964
                            20 H    0.963
    11   6 C    3.946 --    12 O    1.716    13 N    1.071     9 N    1.069
    12   8 O    2.069 --    11 C    1.716    13 N    0.135     9 N    0.126
    13   7 N    3.515 --     5 C    1.178    11 C    1.071    14 C    0.974
                            12 O    0.135
    14   6 C    3.926 --    13 N    0.974    23 H    0.971    22 H    0.970
                            24 H    0.965
    15   1 H    0.992 --     1 C    0.971
    16   1 H    0.994 --     1 C    0.955
    17   1 H    0.875 --     8 O    0.825
    18   1 H    0.988 --     3 C    0.960
    19   1 H    0.987 --    10 C    0.971
    20   1 H    0.983 --    10 C    0.963
    21   1 H    0.984 --    10 C    0.964
    22   1 H    0.989 --    14 C    0.970
    23   1 H    0.989 --    14 C    0.971
    24   1 H    0.984 --    14 C    0.965
    25   1 H    0.951 --     4 N    0.924
 ---------------------------------------------------------------------------

molecular dipole:
                 x           y           z       tot (Debye)
 q only:        1.780      -0.782       0.208
   full:        2.261      -1.070       0.222       6.384

           -------------------------------------------------
          | TOTAL ENERGY              -42.192135610174 Eh   |
          | GRADIENT NORM               0.002636585464 Eh/α |
          | HOMO-LUMO GAP               1.533205172049 eV   |
           -------------------------------------------------

 * finished run on 2024/06/05 at 20:00:15.849
