   * xtb version 6.6.1 (8d0f1dd) compiled by 'conda@1efc2f54142f' on 2023-08-01
          program call               : xtb struc.xyz --opt loose --input .xc1 --gfn2

   ID    Z sym.   atoms
    1    6 C      1, 3, 5-7, 10, 11, 14
    2    7 N      2, 4, 9, 13
    3    8 O      8, 12
    4    1 H      15-25
constraining bond 13 24 to    4.0600000 Å, actual value:    2.0566599 Å

          :  Hamiltonian                  GFN2-xTB          :
 * total energy  :   -13.5838431 Eh     change       -0.6650680E-10 Eh
 * total energy  :   -29.2585115 Eh     change       -0.1567467E+02 Eh
 * total energy  :   -37.1653166 Eh     change       -0.7906805E+01 Eh
 * total energy  :   -40.8386874 Eh     change       -0.3673371E+01 Eh
 * total energy  :   -41.6431689 Eh     change       -0.8044815E+00 Eh
 * total energy  :   -41.6941037 Eh     change       -0.5093481E-01 Eh
 * total energy  :   -41.7192024 Eh     change       -0.2509869E-01 Eh
 * total energy  :   -41.7786931 Eh     change       -0.5949075E-01 Eh
 * total energy  :   -41.8170415 Eh     change       -0.3834842E-01 Eh
 * total energy  :   -41.8579150 Eh     change       -0.4087341E-01 Eh
 * total energy  :   -42.0981727 Eh     change        0.1104390E-02 Eh
 * total energy  :   -42.1006365 Eh     change       -0.2463798E-02 Eh
 * total energy  :   -42.1023269 Eh     change       -0.1690448E-02 Eh
 * total energy  :   -42.1029630 Eh     change       -0.6360502E-03 Eh
 * total energy  :   -42.1034494 Eh     change       -0.4864266E-03 Eh
 * total energy  :   -42.1037084 Eh     change       -0.2590506E-03 Eh
 * total energy  :   -42.1038103 Eh     change       -0.1018823E-03 Eh
 * total energy  :   -42.1038997 Eh     change       -0.8940403E-04 Eh
 * total energy  :   -42.1039336 Eh     change       -0.3386375E-04 Eh
   *** GEOMETRY OPTIMIZATION CONVERGED AFTER 51 ITERATIONS ***

 final structure:
================
25
 xtb: 6.6.1 (8d0f1dd)
C            3.28818902678268        1.25764506204888        0.09571095752185
N            2.37692596113832        0.14495365268754        0.04648071347411
C            2.69981170686738       -1.14363101185263        0.03789474678050
N            1.58308629513100       -1.90024935499746       -0.00275438604195
C            0.50222354048489       -1.05402333669602       -0.02183410753108
C            1.00714233264242        0.24055347559382        0.00824436123451
C            0.15127700859373        1.40709432491687       -0.00106721772571
O            0.52372210553448        2.55819051088864        0.03107437961663
N           -1.19725347503331        1.04276306427897       -0.05403867033338
C           -2.17720815740593        2.12346058112447       -0.09029719261742
C           -1.73934457159587       -0.21505426046788       -0.08884496411564
O           -2.91584481032597       -0.43017472093466       -0.14632450853471
N           -0.82072553278171       -1.34176168649597       -0.05183625053689
C           -1.34374706975534       -2.57881953463146       -0.05046503253398
H            3.89500551496033        1.20851809245200        0.99984938819505
H            3.94863220667801        1.24506175118675       -0.77124334864528
H            2.71096931586208        2.18179272263186        0.09724665654600
H            3.69850670816144       -1.53381837325710        0.05813102505414
H           -1.63668698070454        3.06633847604959       -0.06568167142131
H           -2.77184202412653        2.05129968407524       -0.99978189624866
H           -2.84371272119903        2.04722644576803        0.76739568447199
H           -0.70404894862265       -3.43954052600289       -0.02341697205175
H           -2.41986835138465       -2.68061794574906       -0.04190212404801
H           -4.22080314023545       -3.52934373954787        0.31804441290530
H            1.56602557443423       -2.90962481146967       -0.01941236551445

          :  Hamiltonian                  GFN2-xTB          :
         :: total energy             -42.103933581729 Eh    ::
         :: gradient norm              0.003814570510 Eh/a0 ::
         :: HOMO-LUMO gap              0.071248739141 eV    ::
         :: SCC energy               -42.625581772200 Eh    ::
         :: -> dispersion             -0.022784136414 Eh    ::
         :: repulsion energy           0.521572952686 Eh    ::

    * Orbital Energies and Occupations

         #    Occupation            Energy/Eh            Energy/eV
      -------------------------------------------------------------
         1        2.0000           -0.9172552             -24.9598
       ...           ...                  ...                  ...
        25        2.0000           -0.6687534             -18.1977
        26        2.0000           -0.6682628             -18.1844
        27        2.0000           -0.6597162             -17.9518
        28        1.9999           -0.6355947             -17.2954
        29        1.9998           -0.6328874             -17.2217
        30        1.9998           -0.6282505             -17.0956
        31        1.9996           -0.6198504             -16.8670
        32        1.9987           -0.5988810             -16.2964
        33        1.9976           -0.5895087             -16.0413
        34        1.9968           -0.5848591             -15.9148
        35        1.9880           -0.5638210             -15.3423
        36        1.9872           -0.5627875             -15.3142
        37        1.0012           -0.4829819             -13.1426 (HOMO)
        38        0.9187           -0.4803636             -13.0714 (LUMO)
        39        0.1003           -0.4363789             -11.8745
        40        0.0106           -0.4000070             -10.8847
        41        0.0020           -0.3733556             -10.1595
        42        0.0000           -0.2885923              -7.8530
        43                         -0.2123271              -5.7777
        44                         -0.2009715              -5.4687
        45                         -0.1507101              -4.1010
        46                         -0.1339625              -3.6453
        47                         -0.0670383              -1.8242
        48                         -0.0395605              -1.0765
       ...                                ...                  ...
        67                          0.5539803              15.0746
      -------------------------------------------------------------
                  HL-Gap            0.0026183 Eh            0.0712 eV

     #   Z          covCN         q      C6AA      α(0)
     1   6 C        3.691    -0.097    22.543     6.794
     2   7 N        2.831     0.085    19.767     6.603
     3   6 C        3.052     0.054    26.749     8.482
     4   7 N        2.790    -0.057    22.338     7.020
     5   6 C        3.040     0.092    25.910     8.349
     6   6 C        3.114    -0.016    28.254     8.707
     7   6 C        2.764     0.267    22.499     7.768
     8   8 O        0.858    -0.367    21.030     6.148
     9   7 N        2.744    -0.079    22.772     7.087
    10   6 C        3.713    -0.064    21.864     6.681
    11   6 C        2.734     0.310    21.728     7.632
    12   8 O        0.859    -0.340    20.510     6.072
    13   7 N        2.736     0.010    21.079     6.819
    14   6 C        2.797    -0.059    29.440     8.889
    15   1 H        0.925     0.108     1.711     2.046
    16   1 H        0.925     0.108     1.709     2.045
    17   1 H        0.925     0.140     1.463     1.892
    18   1 H        0.926     0.128     1.553     1.949
    19   1 H        0.925     0.116     1.646     2.006
    20   1 H        0.925     0.099     1.798     2.097
    21   1 H        0.925     0.099     1.799     2.097
    22   1 H        0.926     0.086     1.923     2.168
    23   1 H        0.926     0.133     1.512     1.923
    24   1 H        0.000     0.014     7.028     4.847
    25   1 H        0.860     0.229     0.968     1.542

Wiberg/Mayer (AO) data.
largest (>0.10) Wiberg bond orders for each atom

     #   Z sym  total        # sym  WBO       # sym  WBO       # sym  WBO
 ---------------------------------------------------------------------------
     1   6 C    3.912 --     2 N    0.984    17 H    0.959    15 H    0.959
                            16 H    0.959
     2   7 N    3.672 --     3 C    1.385     6 C    1.166     1 C    0.984
     3   6 C    3.840 --     2 N    1.385     4 N    1.287    18 H    0.952
     4   7 N    3.554 --     3 C    1.287     5 C    1.166    25 H    0.918
     5   6 C    3.885 --     6 C    1.339     4 N    1.166    13 N    1.163
     6   6 C    3.858 --     5 C    1.339     2 N    1.166     7 C    1.074
     7   6 C    3.917 --     8 O    1.672     9 N    1.084     6 C    1.074
     8   8 O    1.987 --     7 C    1.672     9 N    0.139
     9   7 N    3.569 --    11 C    1.165     7 C    1.084    10 C    0.963
                            12 O    0.151     8 O    0.139
    10   6 C    3.912 --    19 H    0.968    21 H    0.966    20 H    0.966
                             9 N    0.963
    11   6 C    3.923 --    12 O    1.724     9 N    1.165    13 N    0.939
    12   8 O    2.051 --    11 C    1.724     9 N    0.151
    13   7 N    3.622 --    14 C    1.297     5 C    1.163    11 C    0.939
    14   6 C    3.312 --    13 N    1.297    22 H    0.969    23 H    0.935
    15   1 H    0.985 --     1 C    0.959
    16   1 H    0.985 --     1 C    0.959
    17   1 H    0.980 --     1 C    0.959
    18   1 H    0.983 --     3 C    0.952
    19   1 H    0.985 --    10 C    0.968
    20   1 H    0.986 --    10 C    0.966
    21   1 H    0.986 --    10 C    0.966
    22   1 H    0.991 --    14 C    0.969
    23   1 H    0.982 --    14 C    0.935
    24   1 H    0.028
    25   1 H    0.947 --     4 N    0.918
 ---------------------------------------------------------------------------

molecular dipole:
                 x           y           z       tot (Debye)
 q only:        2.731      -1.819       0.048
   full:        3.024      -2.396       0.054       9.807

           -------------------------------------------------
          | TOTAL ENERGY              -42.103933581729 Eh   |
          | GRADIENT NORM               0.003814570510 Eh/α |
          | HOMO-LUMO GAP               0.071248739141 eV   |
           -------------------------------------------------

 * finished run on 2024/06/05 at 20:00:19.715
