   * xtb version 6.6.1 (8d0f1dd) compiled by 'conda@1efc2f54142f' on 2023-08-01
          program call               : xtb struc.xyz --opt loose --input .xc1 --gfn2

   ID    Z sym.   atoms
    1    6 C      1, 3, 5-7, 10, 11, 14
    2    7 N      2, 4, 9, 13
    3    8 O      8, 12
    4    1 H      15-25
constraining bond 5 7 to    5.0000000 Å, actual value:    2.4816200 Å

          :  Hamiltonian                  GFN2-xTB          :
 * total energy  :   -19.5993205 Eh     change       -0.6650680E-10 Eh
 * total energy  :   -29.0841235 Eh     change       -0.9484803E+01 Eh
 * total energy  :   -35.1410862 Eh     change       -0.6056963E+01 Eh
 * total energy  :   -39.2203993 Eh     change       -0.4079313E+01 Eh
 * total energy  :   -41.2263044 Eh     change       -0.2005905E+01 Eh
 * total energy  :   -41.5660125 Eh     change       -0.3397082E+00 Eh
 * total energy  :   -41.5795208 Eh     change       -0.1350829E-01 Eh
 * total energy  :   -41.5811329 Eh     change       -0.1612109E-02 Eh
 * total energy  :   -41.6248181 Eh     change       -0.4368520E-01 Eh
 * total energy  :   -41.6434063 Eh     change       -0.1858819E-01 Eh
 * total energy  :   -42.0282272 Eh     change       -0.7665640E-03 Eh
 * total energy  :   -42.0286398 Eh     change       -0.4126310E-03 Eh
 * total energy  :   -42.0289023 Eh     change       -0.2624496E-03 Eh
 * total energy  :   -42.0291837 Eh     change       -0.2814211E-03 Eh
 * total energy  :   -42.0295181 Eh     change       -0.3343805E-03 Eh
 * total energy  :   -42.0297344 Eh     change       -0.2163256E-03 Eh
 * total energy  :   -42.0298683 Eh     change       -0.1339052E-03 Eh
 * total energy  :   -42.0299576 Eh     change       -0.8924781E-04 Eh
 * total energy  :   -42.0299885 Eh     change       -0.3094503E-04 Eh
   *** GEOMETRY OPTIMIZATION CONVERGED AFTER 52 ITERATIONS ***

 final structure:
================
25
 xtb: 6.6.1 (8d0f1dd)
C            2.73279582063295        1.07635524714729        0.05224696934194
N            1.73992258296039        0.00070765478205       -0.00054164597761
C            2.32322920048330       -1.19776537085809       -0.01498261992458
N            1.87540836537077       -2.49215850988709       -0.03127957353869
C            0.64458698130761       -3.04901007934646       -0.00711974972099
C            0.40230310136093        0.33273435632403       -0.01390652980902
C           -0.13584465490392        1.87782612074492       -0.02831527682620
O            0.61816696757518        2.83405410011340       -0.07225285436757
N           -1.43643817252588        1.88137252683858        0.01156203277975
C           -2.33614864555300        2.93885506355954       -0.00830470659573
C           -0.61669392544285       -0.68660110208006       -0.02699893506757
O           -1.78722297605584       -0.39290880986085       -0.05672395608521
N           -0.40445948932360       -2.25900411790536        0.00607820933749
C           -1.67604974849967       -2.97057446933644        0.02499668086878
H            3.24645738333166        1.05994231090779        1.01384516375823
H            3.46163323241973        0.95807748571466       -0.74823436781697
H            2.24822742702422        2.04647331419219       -0.06026524822357
H            3.40444360903422       -1.14334270917320       -0.00200711162763
H           -1.82818079387149        3.91202664784006       -0.06995325582374
H           -3.00444702159389        2.82765674646213       -0.86958809002654
H           -2.95167419752211        2.90762625306812        0.89775101549627
H           -1.67924764383763       -3.68821441028219        0.84487270895680
H           -1.80954421791100       -3.51265076840903       -0.91212180444173
H           -2.49927805776030       -2.26936021873166        0.14934132671516
H            2.62848638740008       -3.17387872022416       -0.04692676348104

          :  Hamiltonian                  GFN2-xTB          :
         :: total energy             -42.029988523205 Eh    ::
         :: gradient norm              0.002740026302 Eh/a0 ::
         :: HOMO-LUMO gap              0.143554086615 eV    ::
         :: SCC energy               -42.515589907352 Eh    ::
         :: -> dispersion             -0.021125946560 Eh    ::
         :: repulsion energy           0.485025767604 Eh    ::

    * Orbital Energies and Occupations

         #    Occupation            Energy/Eh            Energy/eV
      -------------------------------------------------------------
         1        2.0000           -0.8776107             -23.8810
       ...           ...                  ...                  ...
        25        1.9998           -0.6569140             -17.8755
        26        1.9998           -0.6526433             -17.7593
        27        1.9993           -0.6353519             -17.2888
        28        1.9992           -0.6338281             -17.2473
        29        1.9988           -0.6262211             -17.0403
        30        1.9983           -0.6209162             -16.8960
        31        1.9965           -0.6096190             -16.5886
        32        1.9925           -0.5974552             -16.2576
        33        1.9822           -0.5837276             -15.8840
        34        1.9095           -0.5573586             -15.1665
        35        1.7405           -0.5392043             -14.6725
        36        1.7100           -0.5371658             -14.6170
        37        1.3441           -0.5204304             -14.1616 (HOMO)
        38        1.1898           -0.5151549             -14.0181 (LUMO)
        39        0.1392           -0.4680131             -12.7353
        40        0.0005           -0.3766137             -10.2482
        41        0.0001           -0.3584045              -9.7527
        42        0.0000           -0.3092935              -8.4163
        43        0.0000           -0.2780099              -7.5650
        44                         -0.2061097              -5.6085
        45                         -0.1835287              -4.9941
        46                         -0.1335476              -3.6340
        47                         -0.0797091              -2.1690
        48                         -0.0577257              -1.5708
       ...                                ...                  ...
        67                          0.5393122              14.6754
      -------------------------------------------------------------
                  HL-Gap            0.0052755 Eh            0.1436 eV

     #   Z          covCN         q      C6AA      α(0)
     1   6 C        3.737    -0.106    22.622     6.787
     2   7 N        2.729     0.085    19.774     6.604
     3   6 C        2.805     0.058    26.683     8.463
     4   7 N        2.692    -0.050    22.204     6.998
     5   6 C        1.867    -0.015    31.532     9.070
     6   6 C        2.869    -0.028    28.687     8.780
     7   6 C        2.730     0.287    22.126     7.701
     8   8 O        0.858    -0.362    20.937     6.135
     9   7 N        1.829    -0.117    24.308     7.306
    10   6 C        3.690    -0.038    21.449     6.628
    11   6 C        2.729     0.243    22.921     7.838
    12   8 O        0.860    -0.269    19.235     5.880
    13   7 N        2.718    -0.014    21.518     6.889
    14   6 C        3.727    -0.075    22.040     6.703
    15   1 H        0.924     0.102     1.766     2.078
    16   1 H        0.925     0.099     1.798     2.097
    17   1 H        0.924     0.159     1.331     1.804
    18   1 H        0.925     0.108     1.709     2.045
    19   1 H        0.923     0.125     1.570     1.960
    20   1 H        0.924     0.125     1.574     1.962
    21   1 H        0.924     0.123     1.588     1.971
    22   1 H        0.925     0.102     1.768     2.080
    23   1 H        0.924     0.102     1.771     2.081
    24   1 H        0.925     0.120     1.616     1.988
    25   1 H        0.860     0.234     0.946     1.524

Wiberg/Mayer (AO) data.
largest (>0.10) Wiberg bond orders for each atom

     #   Z sym  total        # sym  WBO       # sym  WBO       # sym  WBO
 ---------------------------------------------------------------------------
     1   6 C    3.875 --    16 H    0.964     2 N    0.962    15 H    0.959
                            17 H    0.918
     2   7 N    3.665 --     3 C    1.379     6 C    1.189     1 C    0.962
     3   6 C    3.738 --     2 N    1.379     4 N    1.213    18 H    0.947
     4   7 N    3.506 --     5 C    1.235     3 C    1.213    25 H    0.914
     5   6 C    2.929 --    13 N    1.528     4 N    1.235
     6   6 C    3.543 --     2 N    1.189    11 C    1.187     7 C    0.880
     7   6 C    3.920 --     8 O    1.573     9 N    1.385     6 C    0.880
     8   8 O    1.863 --     7 C    1.573     9 N    0.129
     9   7 N    2.704 --     7 C    1.385    10 C    1.102     8 O    0.129
    10   6 C    3.853 --     9 N    1.102    21 H    0.911    20 H    0.909
                            19 H    0.893
    11   6 C    3.843 --    12 O    1.743     6 C    1.187    13 N    0.794
    12   8 O    2.052 --    11 C    1.743
    13   7 N    3.486 --     5 C    1.528    14 C    0.986    11 C    0.794
    14   6 C    3.895 --    13 N    0.986    22 H    0.957    23 H    0.952
                            24 H    0.952
    15   1 H    0.981 --     1 C    0.959
    16   1 H    0.984 --     1 C    0.964
    17   1 H    0.970 --     1 C    0.918
    18   1 H    0.985 --     3 C    0.947
    19   1 H    0.899 --    10 C    0.893
    20   1 H    0.929 --    10 C    0.909
    21   1 H    0.931 --    10 C    0.911
    22   1 H    0.976 --    14 C    0.957
    23   1 H    0.972 --    14 C    0.952
    24   1 H    0.980 --    14 C    0.952
    25   1 H    0.942 --     4 N    0.914
 ---------------------------------------------------------------------------

molecular dipole:
                 x           y           z       tot (Debye)
 q only:        1.376      -1.496       0.062
   full:        1.708      -1.433       0.050       5.669

           -------------------------------------------------
          | TOTAL ENERGY              -42.029988523205 Eh   |
          | GRADIENT NORM               0.002740026302 Eh/α |
          | HOMO-LUMO GAP               0.143554086615 eV   |
           -------------------------------------------------

 * finished run on 2024/06/05 at 19:59:12.120
