   * xtb version 6.6.1 (8d0f1dd) compiled by 'conda@1efc2f54142f' on 2023-08-01
          program call               : xtb xtbopt.xyz --opt crude --input .xc2 --gfn2

   ID    Z sym.   atoms
    1    6 C      1, 3, 5-7, 10, 11, 14
    2    7 N      2, 4, 9, 13
    3    8 O      8, 12
    4    1 H      15-25
########################################################################
[WARNING] Please study the warnings concerning your input carefully
-1- readin_getIntValue: could not parse ''
########################################################################

          :  Hamiltonian                  GFN2-xTB          :
 * total energy  :   -42.0304765 Eh     change       -0.1342926E-11 Eh
 * total energy  :   -42.0416370 Eh     change       -0.1116048E-01 Eh
 * total energy  :   -42.0487768 Eh     change       -0.7139849E-02 Eh
 * total energy  :   -42.0502547 Eh     change       -0.1477890E-02 Eh
 * total energy  :   -42.0515181 Eh     change       -0.1263393E-02 Eh
 * total energy  :   -42.0538206 Eh     change       -0.2302532E-02 Eh
 * total energy  :   -42.0628541 Eh     change       -0.9033512E-02 Eh
 * total energy  :   -42.0877799 Eh     change       -0.2492579E-01 Eh
 * total energy  :   -42.0862286 Eh     change        0.1551357E-02 Eh
 * total energy  :   -42.0934677 Eh     change       -0.7239107E-02 Eh
 * total energy  :   -42.0969733 Eh     change       -0.3505580E-02 Eh
 * total energy  :   -42.0985935 Eh     change       -0.1620243E-02 Eh
 * total energy  :   -42.0990873 Eh     change       -0.4937775E-03 Eh
 * total energy  :   -42.0994564 Eh     change       -0.3691322E-03 Eh
   *** GEOMETRY OPTIMIZATION CONVERGED AFTER 14 ITERATIONS ***

 final structure:
================
25
 xtb: 6.6.1 (8d0f1dd)
C            2.88076742390308        1.13835559116731        0.08016707249724
N            1.94248402811123        0.02946687582217       -0.00029697628847
C            2.44988153721168       -1.18822513343703       -0.03619849848021
N            1.79338795522683       -2.38580528514106       -0.07081495427391
C            0.50798003514795       -2.77656385142539       -0.02443247497445
C            0.57773365641798        0.31097394852028       -0.00555364531348
C           -0.01023943977488        1.65383717871173       -0.03093398483812
O            0.49144970452043        2.75605381289482       -0.06224904050561
N           -1.36155702259554        1.42780969255815       -0.01772908532883
C           -2.41133328915238        2.40129375067627       -0.04143819061180
C           -0.48521271916534       -0.57378857199068        0.00691966388973
O           -1.66062459025145        0.08782314356619        0.00264848553823
N           -0.53372156394751       -1.95523787521393        0.02250990875980
C           -1.84356503141809       -2.60064054824000        0.04434989738723
H            3.36985281475650        1.14428502471165        1.05513757294573
H            3.63805768854456        1.04755007690158       -0.69686831463831
H            2.35173371075134        2.08175433654258       -0.04786448837268
H            3.52885823789359       -1.25058999958901       -0.03268895059550
H           -1.91785462229169        3.37127996010613       -0.08994932090628
H           -3.04782323726105        2.25901569065265       -0.91657126252920
H           -3.01938783744002        2.33647778087146        0.86331440312023
H           -1.83892545043363       -3.38200532398624        0.80269564115653
H           -2.04470365567788       -3.06042835776588       -0.92506002256540
H           -2.62148368864021       -1.87456715918551        0.26750351655083
H            2.42467686966439       -3.17988621612796       -0.11542533372310

          :  Hamiltonian                  GFN2-xTB          :
         :: total energy             -42.099456411668 Eh    ::
         :: gradient norm              0.008902191178 Eh/a0 ::
         :: HOMO-LUMO gap              1.285118492985 eV    ::
         :: SCC energy               -42.589670277676 Eh    ::
         :: -> dispersion             -0.022093049661 Eh    ::
         :: repulsion energy           0.490098572077 Eh    ::

    * Orbital Energies and Occupations

         #    Occupation            Energy/Eh            Energy/eV
      -------------------------------------------------------------
         1        2.0000           -0.9381389             -25.5281
       ...           ...                  ...                  ...
        25        2.0000           -0.6673314             -18.1590
        26        2.0000           -0.6652793             -18.1032
        27        1.9999           -0.6542700             -17.8036
        28        1.9998           -0.6434789             -17.5100
        29        1.9995           -0.6258043             -17.0290
        30        1.9993           -0.6199764             -16.8704
        31        1.9991           -0.6174597             -16.8019
        32        1.9991           -0.6170083             -16.7896
        33        1.9983           -0.6069133             -16.5150
        34        1.9571           -0.5551445             -15.1063
        35        1.9369           -0.5488613             -14.9353
        36        1.8536           -0.5348414             -14.5538
        37        1.7433           -0.5249834             -14.2855 (HOMO)
        38        0.5119           -0.4777562             -13.0004 (LUMO)
        39        0.0021           -0.3861202             -10.5069
        40        0.0002           -0.3471132              -9.4454
        41        0.0000           -0.3037462              -8.2654
        42        0.0000           -0.2495258              -6.7899
        43                         -0.1934112              -5.2630
        44                         -0.1704345              -4.6378
        45                         -0.1309012              -3.5620
        46                         -0.1069137              -2.9093
        47                         -0.0749061              -2.0383
        48                         -0.0362403              -0.9862
       ...                                ...                  ...
        67                          0.5731061              15.5950
      -------------------------------------------------------------
                  HL-Gap            0.0472272 Eh            1.2851 eV

     #   Z          covCN         q      C6AA      α(0)
     1   6 C        3.714    -0.098    22.499     6.777
     2   7 N        2.730     0.056    20.263     6.686
     3   6 C        2.791     0.059    26.651     8.456
     4   7 N        2.685    -0.059    22.383     7.027
     5   6 C        1.865    -0.056    32.645     9.229
     6   6 C        2.954    -0.035    28.867     8.812
     7   6 C        2.822     0.247    22.867     7.835
     8   8 O        0.857    -0.389    21.466     6.212
     9   7 N        2.876     0.066    20.096     6.658
    10   6 C        3.685    -0.075    22.141     6.737
    11   6 C        2.925     0.169    24.372     8.096
    12   8 O        1.784    -0.138    16.376     5.464
    13   7 N        2.732     0.026    20.801     6.774
    14   6 C        3.718    -0.081    22.170     6.726
    15   1 H        0.924     0.098     1.804     2.100
    16   1 H        0.925     0.095     1.830     2.115
    17   1 H        0.925     0.143     1.441     1.877
    18   1 H        0.926     0.105     1.740     2.063
    19   1 H        0.925     0.126     1.567     1.958
    20   1 H        0.924     0.102     1.768     2.079
    21   1 H        0.924     0.102     1.771     2.081
    22   1 H        0.925     0.106     1.728     2.056
    23   1 H        0.924     0.101     1.779     2.086
    24   1 H        0.925     0.097     1.811     2.104
    25   1 H        0.860     0.233     0.951     1.528

Wiberg/Mayer (AO) data.
largest (>0.10) Wiberg bond orders for each atom

     #   Z sym  total        # sym  WBO       # sym  WBO       # sym  WBO
 ---------------------------------------------------------------------------
     1   6 C    3.903 --     2 N    0.971    16 H    0.967    15 H    0.960
                            17 H    0.946
     2   7 N    3.576 --     3 C    1.397     6 C    1.067     1 C    0.971
     3   6 C    3.684 --     2 N    1.397     4 N    1.197    18 H    0.949
     4   7 N    3.547 --     5 C    1.256     3 C    1.197    25 H    0.914
     5   6 C    2.720 --    13 N    1.336     4 N    1.256
     6   6 C    3.824 --    11 C    1.398     7 C    1.070     2 N    1.067
     7   6 C    3.955 --     8 O    1.620     9 N    1.153     6 C    1.070
     8   8 O    1.972 --     7 C    1.620     9 N    0.165
     9   7 N    3.427 --     7 C    1.153    10 C    0.993    12 O    0.986
                             8 O    0.165
    10   6 C    3.914 --     9 N    0.993    20 H    0.960    21 H    0.959
                            19 H    0.958
    11   6 C    3.773 --     6 C    1.398    12 O    1.096    13 N    1.093
    12   8 O    2.299 --    11 C    1.096     9 N    0.986
    13   7 N    3.570 --     5 C    1.336    11 C    1.093    14 C    0.968
    14   6 C    3.919 --    24 H    0.973    22 H    0.968    13 N    0.968
                            23 H    0.964
    15   1 H    0.980 --     1 C    0.960
    16   1 H    0.984 --     1 C    0.967
    17   1 H    0.977 --     1 C    0.946
    18   1 H    0.986 --     3 C    0.949
    19   1 H    0.982 --    10 C    0.958
    20   1 H    0.980 --    10 C    0.960
    21   1 H    0.979 --    10 C    0.959
    22   1 H    0.983 --    14 C    0.968
    23   1 H    0.981 --    14 C    0.964
    24   1 H    0.989 --    14 C    0.973
    25   1 H    0.941 --     4 N    0.914
 ---------------------------------------------------------------------------

molecular dipole:
                 x           y           z       tot (Debye)
 q only:        0.819      -1.732       0.025
   full:        0.956      -1.619       0.026       4.780

           -------------------------------------------------
          | TOTAL ENERGY              -42.099456411668 Eh   |
          | GRADIENT NORM               0.008902191178 Eh/α |
          | HOMO-LUMO GAP               1.285118492985 eV   |
           -------------------------------------------------

 * finished run on 2024/06/05 at 19:59:12.695
