   * xtb version 6.6.1 (8d0f1dd) compiled by 'conda@1efc2f54142f' on 2023-08-01
          program call               : xtb struc.xyz --opt loose --input .xc1 --gfn2

   ID    Z sym.   atoms
    1    7 N      1, 17
    2    6 C      2-6, 8, 9, 11-16, 18-23, 25, 26, 28-33
    3    8 O      7, 10, 24, 27
    4    1 H      34-72
constraining bond 29 49 to    4.7133300 Å, actual value:    3.1004314 Å

          :  Hamiltonian                  GFN2-xTB          :
 * total energy  :   -99.8686267 Eh     change       -0.4035485E-08 Eh
 * total energy  :  -100.3047544 Eh     change       -0.4361276E+00 Eh
 * total energy  :  -100.8417734 Eh     change       -0.5370191E+00 Eh
 * total energy  :  -101.5349048 Eh     change       -0.6931314E+00 Eh
 * total energy  :  -100.5951590 Eh     change        0.9397459E+00 Eh
 * total energy  :  -101.7788716 Eh     change       -0.1183713E+01 Eh
 * total energy  :  -101.8118712 Eh     change       -0.3299967E-01 Eh
 * total energy  :  -101.8799799 Eh     change       -0.6810862E-01 Eh
 * total energy  :  -101.9156605 Eh     change       -0.3568062E-01 Eh
 * total energy  :  -101.9311397 Eh     change       -0.1547926E-01 Eh
 * total energy  :  -101.9962653 Eh     change       -0.1653702E-03 Eh
 * total energy  :  -101.9964267 Eh     change       -0.1613962E-03 Eh
 * total energy  :  -101.9965507 Eh     change       -0.1239745E-03 Eh
 * total energy  :  -101.9966307 Eh     change       -0.7999259E-04 Eh
 * total energy  :  -101.9966985 Eh     change       -0.6785828E-04 Eh
 * total energy  :  -101.9967498 Eh     change       -0.5125479E-04 Eh
 * total energy  :  -101.9967962 Eh     change       -0.4647699E-04 Eh
 * total energy  :  -101.9968664 Eh     change       -0.7019393E-04 Eh
 * total energy  :  -101.9968907 Eh     change       -0.2421614E-04 Eh
   *** GEOMETRY OPTIMIZATION CONVERGED AFTER 49 ITERATIONS ***

 final structure:
================
72
 xtb: 6.6.1 (8d0f1dd)
N           -1.65155193968120        2.87486574669536        2.12153915285747
C           -1.77423220912165        2.05594104073895        1.18461000098949
C           -3.00833598242608        1.92468426416487        0.33424972304498
C           -3.48146453507380        0.48063705254650        0.36148673179120
C           -4.42250925632001        0.03005488085075       -0.56630103779026
C           -4.90772783392615       -1.26687724510368       -0.53395265948063
O           -5.81813789783610       -1.78097310741147       -1.38950287513318
C           -6.42414086754458       -0.93661277095403       -2.33912508388917
C           -4.44046399107044       -2.16480485785872        0.46231174443358
O           -4.96661948128806       -3.40718601818949        0.42052794663021
C           -4.62543963590077       -4.32614496377610        1.43144132641781
C           -3.51228359584487       -1.70949555680272        1.38470798096483
C           -3.04418173464899       -0.40384287628587        1.33566928402779
C           -2.57928051720777        2.34368661667978       -1.09837195821218
C           -1.70968925045151        1.32068604088642       -1.84163427557645
C           -0.29989996089516        1.29680541716343       -1.37234599059934
N            0.51097285303977        0.24034295167467       -1.45513559456626
C            1.78066549761872        0.27686037182800       -1.04473255862494
C            2.76557894953335       -0.83568867826048       -1.18966111838345
C            4.14891765692177       -0.43439243417530       -0.75361999800097
C            4.74561105397097        0.71032220004450       -1.16551049520375
C            6.04294757427304        1.07464514204411       -0.76750441601745
C            6.78321844271834        0.26041104623513        0.09125754475623
O            8.02687750904576        0.53595724447793        0.54662439911829
C            8.65817835497361        1.72671527606483        0.13349849805862
C            6.23635051911284       -0.94059348727752        0.54747032121875
O            6.99215727724015       -1.67237092737078        1.37763044365690
C            6.52235732048232       -2.91151525786478        1.85553780451588
C            4.87103986911401       -1.42954690721214        0.12768688076548
C           -0.04418577577001       -0.99383792537167       -1.98416235253976
C           -4.19434422023736        2.81831544416029        0.80509370972481
C           -4.64876854406502        2.44805379550338        2.21513228174346
C           -3.89327460925024        4.31331037724334        0.74082514514800
H           -4.79131418604721        0.70982513394737       -1.31641239976078
H           -6.94011305682177       -0.09895836956274       -1.85987986127826
H           -7.15166755828389       -1.55728981126468       -2.85892397152047
H           -5.69605416942064       -0.55363550132079       -3.06198030951137
H           -4.90070637911457       -3.95237394282350        2.42209504113532
H           -5.19722928421489       -5.22600788106983        1.21370312337950
H           -3.55694336890202       -4.56369459727614        1.41519799398468
H           -3.15441479441397       -2.36176215780843        2.16463341325466
H           -2.34868843313146       -0.07744577411647        2.09315312942367
H           -3.47999945688698        2.51634525579248       -1.68773711222498
H           -2.04262670804368        3.29060952245937       -1.03720548463321
H           -2.17485634692819        0.33770529152767       -1.76130045454092
H           -1.72253524275416        1.59875245891640       -2.90561737622842
H           -0.96825373827300        1.37931072632273        0.85269567136656
H            0.15074128725171        2.22634464321947       -1.06642695534556
H            4.45893625074180       -1.63774775764035        0.71076929901767
H            2.12443014504789        1.21025371989465       -0.63519467084332
H            2.82232227459400       -1.14948895120652       -2.24273744372996
H            2.45096438890400       -1.71403648331553       -0.61361514671176
H            4.21571641684345        1.38170288600851       -1.82491001211236
H            6.45718273838444        1.99733833491216       -1.13375565759341
H            8.09728918367355        2.61008994136607        0.45165598898902
H            8.79779202966237        1.75088835038874       -0.95139858835088
H            9.63066791785812        1.72240881059707        0.62113791963628
H            7.31151786366561       -3.29697831734935        2.49841496660904
H            5.60488869734929       -2.79936575948016        2.44140219637946
H            6.34826337349106       -3.61845957720052        1.03775782707909
H            5.07162229574742       -2.31036519002545       -0.53373104486764
H           -0.45364803609259       -0.82039078762970       -2.97918750763363
H           -0.84336218505507       -1.35230947817829       -1.33243233238583
H            0.71903163789216       -1.76128151351477       -2.04991722774362
H           -5.02476103974485        2.60874384499501        0.11993162820840
H           -3.86291157734244        2.67065565543275        2.93031591757239
H           -4.90247558089011        1.39281832527180        2.28339902548587
H           -5.52932389791897        3.02820537908139        2.47870861049189
H           -3.03392247417989        4.54852617803959        1.36073044073304
H           -3.70656637879624        4.64754646221007       -0.27607298223700
H           -4.74999457582001        4.86500363712082        1.11973444267576
H           -0.76082347450716        2.90424492070125        2.60852424059138

          :  Hamiltonian                  GFN2-xTB          :
         :: total energy            -101.996890670607 Eh    ::
         :: gradient norm              0.002225351346 Eh/a0 ::
         :: HOMO-LUMO gap              0.833775993120 eV    ::
         :: SCC energy              -100.737672833436 Eh    ::
         :: -> dispersion             -0.073329221759 Eh    ::
         :: repulsion energy           1.553089423725 Eh    ::

    * Orbital Energies and Occupations

         #    Occupation            Energy/Eh            Energy/eV
      -------------------------------------------------------------
         1        2.0000           -0.8278417             -22.5267
       ...           ...                  ...                  ...
        78        1.9989           -0.5289848             -14.3944
        79        1.9988           -0.5277772             -14.3615
        80        1.9982           -0.5213516             -14.1867
        81        1.9982           -0.5210223             -14.1777
        82        1.9972           -0.5143257             -13.9955
        83        1.9954           -0.5066457             -13.7865
        84        1.9948           -0.5046695             -13.7328
        85        1.9937           -0.5014163             -13.6442
        86        1.9797           -0.4828539             -13.1391
        87        1.9536           -0.4695794             -12.7779
        88        1.9290           -0.4626357             -12.5890
        89        1.8686           -0.4523876             -12.3101
        90        1.5690           -0.4308087             -11.7229 (HOMO)
        91        0.6891           -0.4001680             -10.8891 (LUMO)
        92        0.0210           -0.3383880              -9.2080
        93        0.0104           -0.3271804              -8.9030
        94        0.0048           -0.3148485              -8.5675
        95        0.0033           -0.3087775              -8.4023
        96        0.0027           -0.3054758              -8.3124
        97        0.0000           -0.2266197              -6.1666
        98        0.0000           -0.1829854              -4.9793
        99                         -0.1062679              -2.8917
       100                         -0.0866705              -2.3584
       101                         -0.0792700              -2.1570
       ...                                ...                  ...
       171                          1.4051400              38.2358
      -------------------------------------------------------------
                  HL-Gap            0.0306407 Eh            0.8338 eV

     #   Z          covCN         q      C6AA      α(0)
     1   7 N        1.774    -0.273    27.914     7.824
     2   6 C        2.828     0.103    25.720     8.310
     3   6 C        3.907     0.006    20.413     6.422
     4   6 C        2.975     0.002    27.970     8.675
     5   6 C        2.920    -0.079    29.986     8.980
     6   6 C        2.862     0.128    25.189     8.227
     7   8 O        1.706    -0.233    17.864     5.707
     8   6 C        3.644     0.029    20.429     6.497
     9   6 C        2.864     0.128    25.196     8.228
    10   8 O        1.706    -0.231    17.836     5.702
    11   6 C        3.646     0.028    20.431     6.496
    12   6 C        2.914    -0.073    29.819     8.954
    13   6 C        2.922    -0.051    29.262     8.871
    14   6 C        3.812    -0.064    21.717     6.633
    15   6 C        3.801    -0.065    21.746     6.639
    16   6 C        2.872    -0.046    29.139     8.849
    17   7 N        2.730     0.077    19.898     6.625
    18   6 C        2.867    -0.054    29.336     8.878
    19   6 C        3.807    -0.064    21.722     6.635
    20   6 C        2.954    -0.013    28.334     8.731
    21   6 C        2.903    -0.045    29.107     8.846
    22   6 C        2.913    -0.072    29.784     8.949
    23   6 C        2.849     0.129    25.172     8.223
    24   8 O        1.706    -0.238    17.936     5.718
    25   6 C        3.644     0.026    20.472     6.504
    26   6 C        2.851     0.121    25.344     8.251
    27   8 O        1.706    -0.198    17.306     5.617
    28   6 C        3.643     0.020    20.581     6.521
    29   6 C        3.810    -0.107    22.534     6.757
    30   6 C        3.715    -0.076    22.077     6.713
    31   6 C        3.853    -0.007    20.671     6.466
    32   6 C        3.756    -0.116    22.776     6.805
    33   6 C        3.755    -0.120    22.851     6.816
    34   1 H        0.926     0.051     2.303     2.373
    35   1 H        0.924     0.053     2.286     2.364
    36   1 H        0.925     0.079     1.986     2.204
    37   1 H        0.924     0.046     2.371     2.408
    38   1 H        0.924     0.054     2.274     2.358
    39   1 H        0.925     0.079     1.988     2.205
    40   1 H        0.924     0.047     2.360     2.402
    41   1 H        0.926     0.051     2.313     2.378
    42   1 H        0.926     0.040     2.442     2.444
    43   1 H        0.925     0.055     2.257     2.349
    44   1 H        0.925     0.054     2.274     2.358
    45   1 H        0.924     0.058     2.220     2.330
    46   1 H        0.923     0.062     2.177     2.308
    47   1 H        0.923     0.010     2.898     2.662
    48   1 H        0.926     0.053     2.288     2.365
    49   1 H        0.930     0.128     1.550     1.947
    50   1 H        0.926     0.054     2.272     2.357
    51   1 H        0.923     0.069     2.101     2.267
    52   1 H        0.924     0.056     2.248     2.345
    53   1 H        0.926     0.054     2.267     2.355
    54   1 H        0.926     0.062     2.171     2.304
    55   1 H        0.924     0.053     2.284     2.363
    56   1 H        0.924     0.054     2.273     2.358
    57   1 H        0.925     0.082     1.962     2.190
    58   1 H        0.925     0.091     1.872     2.139
    59   1 H        0.924     0.058     2.217     2.329
    60   1 H        0.924     0.060     2.199     2.319
    61   1 H        0.920     0.081     1.969     2.194
    62   1 H        0.925     0.082     1.954     2.186
    63   1 H        0.924     0.079     1.986     2.204
    64   1 H        0.925     0.084     1.935     2.175
    65   1 H        0.924     0.036     2.508     2.477
    66   1 H        0.925     0.063     2.162     2.299
    67   1 H        0.925     0.034     2.535     2.490
    68   1 H        0.925     0.049     2.329     2.386
    69   1 H        0.925     0.066     2.131     2.283
    70   1 H        0.925     0.036     2.509     2.477
    71   1 H        0.925     0.052     2.291     2.367
    72   1 H        0.860     0.153     1.381     1.841

Wiberg/Mayer (AO) data.
largest (>0.10) Wiberg bond orders for each atom

     #   Z sym  total        # sym  WBO       # sym  WBO       # sym  WBO
 ---------------------------------------------------------------------------
     1   7 N    3.018 --     2 C    1.951    72 H    0.943
     2   6 C    3.935 --     1 N    1.951     3 C    0.994    47 H    0.917
     3   6 C    3.974 --     2 C    0.994     4 C    0.976    14 C    0.951
                            31 C    0.944
     4   6 C    3.948 --    13 C    1.412     5 C    1.370     3 C    0.976
     5   6 C    3.962 --     6 C    1.401     4 C    1.370    34 H    0.958
     6   6 C    3.903 --     5 C    1.401     9 C    1.226     7 O    1.094
     7   8 O    2.248 --     6 C    1.094     8 C    0.979
     8   6 C    3.934 --     7 O    0.979    36 H    0.977    35 H    0.974
                            37 H    0.974
     9   6 C    3.899 --    12 C    1.391     6 C    1.226    10 O    1.097
    10   8 O    2.247 --     9 C    1.097    11 C    0.979
    11   6 C    3.933 --    10 O    0.979    39 H    0.977    40 H    0.974
                            38 H    0.974
    12   6 C    3.963 --    13 C    1.409     9 C    1.391    41 H    0.964
    13   6 C    3.953 --     4 C    1.412    12 C    1.409    42 H    0.962
    14   6 C    3.982 --    15 C    0.996    44 H    0.972    43 H    0.968
                             3 C    0.951
    15   6 C    3.987 --    16 C    1.050    14 C    0.996    45 H    0.955
                            46 H    0.935
    16   6 C    3.653 --    17 N    1.333    15 C    1.050    48 H    0.960
                            18 C    0.210
    17   7 N    3.723 --    16 C    1.333    18 C    1.331    30 C    0.986
    18   6 C    3.620 --    17 N    1.331    19 C    1.031    50 H    0.961
                            16 C    0.210
    19   6 C    3.989 --    18 C    1.031    20 C    1.014    52 H    0.949
                            51 H    0.928
    20   6 C    3.781 --    21 C    1.614    29 C    1.017    19 C    1.014
    21   6 C    3.980 --    20 C    1.614    22 C    1.295    53 H    0.962
    22   6 C    3.734 --    23 C    1.331    21 C    1.295    54 H    0.965
    23   6 C    3.910 --    22 C    1.331    26 C    1.328    24 O    1.088
    24   8 O    2.243 --    23 C    1.088    25 C    0.976
    25   6 C    3.930 --    57 H    0.977    24 O    0.976    55 H    0.974
                            56 H    0.974
    26   6 C    3.664 --    23 C    1.328    27 O    1.148    29 C    1.018
    27   8 O    2.269 --    26 C    1.148    28 C    0.974
    28   6 C    3.924 --    58 H    0.976    27 O    0.974    59 H    0.971
                            60 H    0.969
    29   6 C    3.971 --    26 C    1.018    20 C    1.017    49 H    0.944
                            61 H    0.900
    30   6 C    3.957 --    17 N    0.986    64 H    0.973    62 H    0.971
                            63 H    0.966
    31   6 C    3.974 --    32 C    1.008    33 C    1.008    65 H    0.960
                             3 C    0.944
    32   6 C    3.981 --    31 C    1.008    68 H    0.982    67 H    0.982
                            66 H    0.976
    33   6 C    3.979 --    31 C    1.008    70 H    0.983    71 H    0.980
                            69 H    0.974
    34   1 H    0.996 --     5 C    0.958
    35   1 H    0.994 --     8 C    0.974
    36   1 H    0.993 --     8 C    0.977
    37   1 H    0.994 --     8 C    0.974
    38   1 H    0.993 --    11 C    0.974
    39   1 H    0.993 --    11 C    0.977
    40   1 H    0.994 --    11 C    0.974
    41   1 H    0.996 --    12 C    0.964
    42   1 H    0.998 --    13 C    0.962
    43   1 H    0.995 --    14 C    0.968
    44   1 H    0.996 --    14 C    0.972
    45   1 H    0.992 --    15 C    0.955
    46   1 H    0.973 --    15 C    0.935
    47   1 H    0.982 --     2 C    0.917
    48   1 H    0.997 --    16 C    0.960
    49   1 H    0.972 --    29 C    0.944
    50   1 H    0.997 --    18 C    0.961
    51   1 H    0.969 --    19 C    0.928
    52   1 H    0.980 --    19 C    0.949
    53   1 H    0.997 --    21 C    0.962
    54   1 H    0.995 --    22 C    0.965
    55   1 H    0.994 --    25 C    0.974
    56   1 H    0.994 --    25 C    0.974
    57   1 H    0.993 --    25 C    0.977
    58   1 H    0.991 --    28 C    0.976
    59   1 H    0.990 --    28 C    0.971
    60   1 H    0.990 --    28 C    0.969
    61   1 H    0.945 --    29 C    0.900
    62   1 H    0.993 --    30 C    0.971
    63   1 H    0.993 --    30 C    0.966
    64   1 H    0.993 --    30 C    0.973
    65   1 H    0.992 --    31 C    0.960
    66   1 H    0.992 --    32 C    0.976
    67   1 H    0.997 --    32 C    0.982
    68   1 H    0.995 --    32 C    0.982
    69   1 H    0.992 --    33 C    0.974
    70   1 H    0.997 --    33 C    0.983
    71   1 H    0.994 --    33 C    0.980
    72   1 H    0.970 --     1 N    0.943
 ---------------------------------------------------------------------------

molecular dipole:
                 x           y           z       tot (Debye)
 q only:        1.912      -0.865      -0.968
   full:        2.174      -1.080      -1.162       6.840

           -------------------------------------------------
          | TOTAL ENERGY             -101.996890670607 Eh   |
          | GRADIENT NORM               0.002225351346 Eh/α |
          | HOMO-LUMO GAP               0.833775993120 eV   |
           -------------------------------------------------

 * finished run on 2024/04/06 at 11:15:38.782
