   * xtb version 6.6.1 (8d0f1dd) compiled by 'conda@1efc2f54142f' on 2023-08-01
          program call               : xtb xtbopt.xyz --opt crude --input .xc2 --gfn2

   ID    Z sym.   atoms
    1    7 N      1, 17
    2    6 C      2-6, 8, 9, 11-16, 18-23, 25, 26, 28-33
    3    8 O      7, 10, 24, 27
    4    1 H      34-72
########################################################################
[WARNING] Please study the warnings concerning your input carefully
-1- readin_getIntValue: could not parse ''
########################################################################

          :  Hamiltonian                  GFN2-xTB          :
 * total energy  :   -99.1833250 Eh     change       -0.1607248E-10 Eh
 * total energy  :   -99.3448669 Eh     change       -0.1615419E+00 Eh
 * total energy  :   -99.3466471 Eh     change       -0.1780239E-02 Eh
 * total energy  :   -99.3475991 Eh     change       -0.9519801E-03 Eh
 * total energy  :   -99.3478183 Eh     change       -0.2191840E-03 Eh
   *** GEOMETRY OPTIMIZATION CONVERGED AFTER 5 ITERATIONS ***

 final structure:
================
72
 xtb: 6.6.1 (8d0f1dd)
N           -1.64609117699264        2.87233730390119        2.12190088400424
C           -1.76968279388944        2.05360190941413        1.18499135590010
C           -3.00456999506309        1.92326227315534        0.33558988487175
C           -3.47954542657338        0.47977302676812        0.36196180522958
C           -4.41991290730969        0.03068837625162       -0.56723253445931
C           -4.90627582471380       -1.26588294923082       -0.53619342396189
O           -5.81729104120137       -1.77831401495138       -1.39206596497596
C           -6.42081360473793       -0.93320837693583       -2.34236740672549
C           -4.43995685307850       -2.16516520066232        0.45928480322368
O           -4.96531953219860       -3.40777711815562        0.41426190328273
C           -4.62709356288122       -4.32783502278743        1.42522902599982
C           -3.51328948554932       -1.71101211107746        1.38378579769890
C           -3.04465713726183       -0.40542364145096        1.33661519243052
C           -2.57560438710352        2.34229753688604       -1.09711617376027
C           -1.70788268020017        1.31757374008192       -1.84037330388097
C           -0.29675928113681        1.29644184541433       -1.37559642719405
N            0.51431570964809        0.24048969129858       -1.46003261244193
C            1.78528864586076        0.27720956997297       -1.05249885314621
C            2.76862222954335       -0.83568369211852       -1.20045644563537
C            4.15607281249832       -0.43564126588040       -0.77620059513998
C            4.74654783673765        0.71859493111283       -1.17780761059158
C            6.04640736678301        1.07881934673974       -0.78276702624734
C            6.78879894804453        0.26318135996979        0.07243691488852
O            8.02774591724869        0.54587308235130        0.53793190371494
C            8.65744105986052        1.73946645937897        0.12946854855747
C            6.24300886329760       -0.94407698477354        0.52229095043153
O            6.99450932968064       -1.66946636478187        1.36107420980683
C            6.53018192812041       -2.90742485898316        1.84348988548183
C            4.89622245082293       -1.41408830901572        0.08151732140724
C           -0.04121896829110       -0.99486475238689       -1.98690302884097
C           -4.18962976517418        2.81752303193676        0.80728017706465
C           -4.64228402166028        2.44817920764550        2.21800439676074
C           -3.88822796135852        4.31238096009743        0.74171811651276
H           -4.78720807362699        0.71107982830845       -1.31769355761660
H           -6.93556892442684       -0.09457637156541       -1.86391477654945
H           -7.14894693580777       -1.55270116291531       -2.86231341302381
H           -5.69146306080586       -0.55184565898776       -3.06465237931314
H           -4.90325145248712       -3.95423308965441        2.41584716776834
H           -5.19993772291719       -5.22676492046359        1.20615916896202
H           -3.55880560482787       -4.56722161582930        1.41043928597708
H           -3.15689048809261       -2.36419733595363        2.16368679263447
H           -2.35049544381449       -0.07957593797006        2.09559767189581
H           -3.47659122184077        2.51669250627893       -1.68528161141473
H           -2.03736249626393        3.28843082609887       -1.03565976337856
H           -2.17194831223713        0.33446930097438       -1.75378355329548
H           -1.72629936137275        1.59135362005757       -2.90527566349732
H           -0.96491681317446        1.37505307677159        0.85414216277911
H            0.15333403454387        2.22660492706132       -1.06817113529338
H            4.29128380405777       -1.68621914030815        0.95132200916487
H            2.12799278187840        1.20742177486277       -0.63341535719971
H            2.81266348934833       -1.15801130027359       -2.25181186325917
H            2.46128639414042       -1.71054219263645       -0.61306972223959
H            4.21197008356291        1.39876571892430       -1.82419934548365
H            6.45853171657421        2.00504857756156       -1.14357732005671
H            8.09376481557871        2.62116588841798        0.44910808007793
H            8.80067356708628        1.76748849415777       -0.95476953919705
H            9.62864099635042        1.73624477485385        0.62056026376649
H            7.32436125603814       -3.28957527537658        2.48189939840012
H            5.61729712623724       -2.79384330875800        2.43654198020330
H            6.34689556873574       -3.61599766113579        1.03049252824809
H            5.02453645850481       -2.35290812732390       -0.48974804838863
H           -0.45705871422781       -0.82032532075079       -2.97858528145033
H           -0.83538689484646       -1.35536113372729       -1.33133209793882
H            0.72195436171112       -1.76123965555078       -2.05863052993002
H           -5.02086719822384        2.60765220595726        0.12334063619620
H           -3.85587810493599        2.67213521769517        2.93199347183904
H           -4.89490241340117        1.39277825996133        2.28736880475884
H           -5.52302463573309        3.02774000974518        2.48191528121293
H           -3.02805016134357        4.54767027162784        1.36028108001100
H           -3.70284045848721        4.64597684973216       -0.27556468093648
H           -4.74429993223096        4.86434148360992        1.12135153938839
H           -0.75573312398623        2.89933612984801        2.60944548851838

          :  Hamiltonian                  GFN2-xTB          :
         :: total energy             -99.347818316752 Eh    ::
         :: gradient norm              0.007474710013 Eh/a0 ::
         :: HOMO-LUMO gap              0.829391727161 eV    ::
         :: SCC energy              -100.712870800098 Eh    ::
         :: -> dispersion             -0.073321965752 Eh    ::
         :: repulsion energy           1.363784640571 Eh    ::

    * Orbital Energies and Occupations

         #    Occupation            Energy/Eh            Energy/eV
      -------------------------------------------------------------
         1        2.0000           -0.8272986             -22.5119
       ...           ...                  ...                  ...
        78        1.9989           -0.5288971             -14.3920
        79        1.9988           -0.5273147             -14.3490
        80        1.9982           -0.5213460             -14.1865
        81        1.9982           -0.5210076             -14.1773
        82        1.9972           -0.5143028             -13.9949
        83        1.9954           -0.5066040             -13.7854
        84        1.9948           -0.5046524             -13.7323
        85        1.9937           -0.5013999             -13.6438
        86        1.9797           -0.4828278             -13.1384
        87        1.9520           -0.4689653             -12.7612
        88        1.9290           -0.4625935             -12.5878
        89        1.8688           -0.4523673             -12.3095
        90        1.5677           -0.4307079             -11.7202 (HOMO)
        91        0.6920           -0.4002283             -10.8908 (LUMO)
        92        0.0210           -0.3383172              -9.2061
        93        0.0104           -0.3271434              -8.9020
        94        0.0047           -0.3145410              -8.5591
        95        0.0033           -0.3087719              -8.4021
        96        0.0027           -0.3054659              -8.3122
        97        0.0000           -0.2277380              -6.1971
        98        0.0000           -0.1829838              -4.9792
        99                         -0.1062047              -2.8900
       100                         -0.0827008              -2.2504
       101                         -0.0762921              -2.0760
       ...                                ...                  ...
       171                          0.5795208              15.7696
      -------------------------------------------------------------
                  HL-Gap            0.0304796 Eh            0.8294 eV

     #   Z          covCN         q      C6AA      α(0)
     1   7 N        1.774    -0.274    27.916     7.824
     2   6 C        2.828     0.103    25.719     8.310
     3   6 C        3.907     0.006    20.414     6.422
     4   6 C        2.975     0.002    27.971     8.675
     5   6 C        2.920    -0.079    29.986     8.980
     6   6 C        2.862     0.128    25.189     8.227
     7   8 O        1.706    -0.233    17.864     5.706
     8   6 C        3.644     0.029    20.429     6.497
     9   6 C        2.864     0.128    25.196     8.228
    10   8 O        1.706    -0.231    17.836     5.702
    11   6 C        3.645     0.028    20.431     6.496
    12   6 C        2.914    -0.073    29.819     8.954
    13   6 C        2.922    -0.051    29.262     8.871
    14   6 C        3.812    -0.064    21.718     6.633
    15   6 C        3.801    -0.065    21.748     6.640
    16   6 C        2.871    -0.046    29.136     8.848
    17   7 N        2.730     0.078    19.893     6.624
    18   6 C        2.867    -0.053    29.324     8.876
    19   6 C        3.806    -0.064    21.719     6.634
    20   6 C        2.954    -0.008    28.218     8.713
    21   6 C        2.905    -0.044    29.092     8.844
    22   6 C        2.912    -0.071    29.774     8.948
    23   6 C        2.849     0.129    25.162     8.221
    24   8 O        1.706    -0.237    17.931     5.717
    25   6 C        3.644     0.026    20.474     6.504
    26   6 C        2.851     0.125    25.246     8.235
    27   8 O        1.706    -0.196    17.275     5.612
    28   6 C        3.643     0.021    20.573     6.520
    29   6 C        3.810    -0.075    21.929     6.666
    30   6 C        3.715    -0.076    22.083     6.714
    31   6 C        3.854    -0.007    20.671     6.466
    32   6 C        3.756    -0.116    22.777     6.805
    33   6 C        3.755    -0.120    22.851     6.816
    34   1 H        0.926     0.051     2.302     2.373
    35   1 H        0.924     0.053     2.286     2.364
    36   1 H        0.925     0.079     1.986     2.204
    37   1 H        0.924     0.046     2.371     2.408
    38   1 H        0.924     0.054     2.275     2.359
    39   1 H        0.925     0.079     1.988     2.205
    40   1 H        0.924     0.047     2.360     2.403
    41   1 H        0.926     0.050     2.314     2.379
    42   1 H        0.926     0.040     2.443     2.444
    43   1 H        0.925     0.055     2.257     2.349
    44   1 H        0.924     0.054     2.274     2.358
    45   1 H        0.924     0.058     2.218     2.329
    46   1 H        0.923     0.062     2.177     2.307
    47   1 H        0.923     0.009     2.903     2.664
    48   1 H        0.926     0.053     2.288     2.365
    49   1 H        0.924     0.079     1.994     2.208
    50   1 H        0.926     0.054     2.271     2.357
    51   1 H        0.923     0.069     2.101     2.267
    52   1 H        0.924     0.056     2.249     2.345
    53   1 H        0.926     0.055     2.261     2.352
    54   1 H        0.926     0.062     2.171     2.304
    55   1 H        0.924     0.053     2.285     2.364
    56   1 H        0.924     0.054     2.272     2.357
    57   1 H        0.925     0.082     1.961     2.190
    58   1 H        0.925     0.092     1.862     2.134
    59   1 H        0.924     0.059     2.216     2.328
    60   1 H        0.924     0.060     2.199     2.319
    61   1 H        0.922     0.082     1.955     2.187
    62   1 H        0.925     0.083     1.952     2.185
    63   1 H        0.924     0.080     1.984     2.203
    64   1 H        0.925     0.084     1.933     2.174
    65   1 H        0.924     0.036     2.508     2.477
    66   1 H        0.925     0.063     2.161     2.299
    67   1 H        0.925     0.034     2.535     2.490
    68   1 H        0.925     0.049     2.329     2.387
    69   1 H        0.925     0.066     2.132     2.283
    70   1 H        0.925     0.036     2.509     2.477
    71   1 H        0.925     0.052     2.291     2.367
    72   1 H        0.860     0.153     1.382     1.841

Wiberg/Mayer (AO) data.
largest (>0.10) Wiberg bond orders for each atom

     #   Z sym  total        # sym  WBO       # sym  WBO       # sym  WBO
 ---------------------------------------------------------------------------
     1   7 N    3.018 --     2 C    1.951    72 H    0.943
     2   6 C    3.935 --     1 N    1.951     3 C    0.994    47 H    0.917
     3   6 C    3.974 --     2 C    0.994     4 C    0.976    14 C    0.951
                            31 C    0.944
     4   6 C    3.948 --    13 C    1.412     5 C    1.370     3 C    0.976
     5   6 C    3.962 --     6 C    1.401     4 C    1.370    34 H    0.958
     6   6 C    3.903 --     5 C    1.401     9 C    1.226     7 O    1.094
     7   8 O    2.249 --     6 C    1.094     8 C    0.979
     8   6 C    3.934 --     7 O    0.979    36 H    0.977    35 H    0.974
                            37 H    0.974
     9   6 C    3.899 --    12 C    1.391     6 C    1.226    10 O    1.097
    10   8 O    2.247 --     9 C    1.097    11 C    0.979
    11   6 C    3.933 --    10 O    0.979    39 H    0.977    40 H    0.974
                            38 H    0.974
    12   6 C    3.963 --    13 C    1.409     9 C    1.391    41 H    0.964
    13   6 C    3.953 --     4 C    1.412    12 C    1.409    42 H    0.962
    14   6 C    3.982 --    15 C    0.996    44 H    0.972    43 H    0.968
                             3 C    0.951
    15   6 C    3.987 --    16 C    1.050    14 C    0.996    45 H    0.955
                            46 H    0.935
    16   6 C    3.652 --    17 N    1.333    15 C    1.050    48 H    0.960
                            18 C    0.210
    17   7 N    3.723 --    16 C    1.333    18 C    1.331    30 C    0.986
    18   6 C    3.620 --    17 N    1.331    19 C    1.032    50 H    0.961
                            16 C    0.210
    19   6 C    3.989 --    18 C    1.032    20 C    1.013    52 H    0.948
                            51 H    0.928
    20   6 C    3.783 --    21 C    1.608    29 C    1.028    19 C    1.013
    21   6 C    3.979 --    20 C    1.608    22 C    1.296    53 H    0.963
    22   6 C    3.738 --    23 C    1.334    21 C    1.296    54 H    0.965
    23   6 C    3.910 --    22 C    1.334    26 C    1.322    24 O    1.089
    24   8 O    2.243 --    23 C    1.089    25 C    0.976
    25   6 C    3.930 --    57 H    0.977    24 O    0.976    56 H    0.974
                            55 H    0.974
    26   6 C    3.667 --    23 C    1.322    27 O    1.148    29 C    1.032
    27   8 O    2.269 --    26 C    1.148    28 C    0.975
    28   6 C    3.924 --    58 H    0.976    27 O    0.975    60 H    0.969
                            59 H    0.968
    29   6 C    3.985 --    26 C    1.032    20 C    1.028    49 H    0.926
                            61 H    0.912
    30   6 C    3.956 --    17 N    0.986    64 H    0.973    62 H    0.971
                            63 H    0.966
    31   6 C    3.974 --    32 C    1.008    33 C    1.008    65 H    0.960
                             3 C    0.944
    32   6 C    3.981 --    31 C    1.008    68 H    0.982    67 H    0.982
                            66 H    0.976
    33   6 C    3.980 --    31 C    1.008    70 H    0.983    71 H    0.980
                            69 H    0.974
    34   1 H    0.996 --     5 C    0.958
    35   1 H    0.994 --     8 C    0.974
    36   1 H    0.993 --     8 C    0.977
    37   1 H    0.994 --     8 C    0.974
    38   1 H    0.993 --    11 C    0.974
    39   1 H    0.993 --    11 C    0.977
    40   1 H    0.994 --    11 C    0.974
    41   1 H    0.996 --    12 C    0.964
    42   1 H    0.998 --    13 C    0.962
    43   1 H    0.995 --    14 C    0.968
    44   1 H    0.996 --    14 C    0.972
    45   1 H    0.992 --    15 C    0.955
    46   1 H    0.973 --    15 C    0.935
    47   1 H    0.982 --     2 C    0.917
    48   1 H    0.997 --    16 C    0.960
    49   1 H    0.962 --    29 C    0.926
    50   1 H    0.997 --    18 C    0.961
    51   1 H    0.970 --    19 C    0.928
    52   1 H    0.980 --    19 C    0.948
    53   1 H    0.997 --    21 C    0.963
    54   1 H    0.995 --    22 C    0.965
    55   1 H    0.994 --    25 C    0.974
    56   1 H    0.994 --    25 C    0.974
    57   1 H    0.993 --    25 C    0.977
    58   1 H    0.991 --    28 C    0.976
    59   1 H    0.990 --    28 C    0.968
    60   1 H    0.990 --    28 C    0.969
    61   1 H    0.950 --    29 C    0.912
    62   1 H    0.993 --    30 C    0.971
    63   1 H    0.993 --    30 C    0.966
    64   1 H    0.993 --    30 C    0.973
    65   1 H    0.992 --    31 C    0.960
    66   1 H    0.992 --    32 C    0.976
    67   1 H    0.997 --    32 C    0.982
    68   1 H    0.995 --    32 C    0.982
    69   1 H    0.992 --    33 C    0.974
    70   1 H    0.997 --    33 C    0.983
    71   1 H    0.994 --    33 C    0.980
    72   1 H    0.970 --     1 N    0.943
 ---------------------------------------------------------------------------

molecular dipole:
                 x           y           z       tot (Debye)
 q only:        1.942      -0.844      -0.982
   full:        2.185      -1.084      -1.146       6.849

           -------------------------------------------------
          | TOTAL ENERGY              -99.347818316752 Eh   |
          | GRADIENT NORM               0.007474710013 Eh/α |
          | HOMO-LUMO GAP               0.829391727161 eV   |
           -------------------------------------------------

 * finished run on 2024/04/06 at 11:15:39.898
