   * xtb version 6.6.1 (8d0f1dd) compiled by 'conda@1efc2f54142f' on 2023-08-01
          program call               : xtb xtbopt.xyz --opt crude --input .xc2 --gfn2

   ID    Z sym.   atoms
    1    6 C      1, 3, 5-7, 10, 11, 14
    2    7 N      2, 4, 9, 13
    3    8 O      8, 12
    4    1 H      15-25

          :  Hamiltonian                  GFN2-xTB          :
 * total energy  :   -42.0644671 Eh     change       -0.1593037E-10 Eh
   *** GEOMETRY OPTIMIZATION CONVERGED AFTER 1 ITERATIONS ***

 final structure:
================
25
 xtb: 6.6.1 (8d0f1dd)
C            3.32174891281334        1.41122706163537        0.03365654100852
N            2.54696926273715        0.19877270444026       -0.00915197854070
C            3.19480234384105       -1.01566290248135       -0.01949302478617
N            2.66802073910545       -2.15679092890616       -0.03133160346383
C            0.50323447861912       -1.03699943985423       -0.01451752607342
C            1.17741639190854        0.15133373821845       -0.00776142966224
C            0.26273283950573        1.31294027578661       -0.01367319246568
O            0.65381857583481        2.46531667699806       -0.02626640313090
N           -1.08650143496901        1.00493981657020       -0.00663134364244
C           -2.03642554479590        2.10052714099521       -0.00452168879678
C           -1.64850300004504       -0.28029796449684       -0.00505130488272
O           -2.83808022432274       -0.45970235561591        0.00313329298041
N           -0.72787426680712       -1.29866753308391       -0.01361760266923
C           -3.11555918090478       -3.42130937768681        0.01596178832806
H            3.82441349526823        1.50630385865658        1.00038917378953
H            4.08035623095370        1.39962533374694       -0.75130625564655
H            2.67114334110481        2.27478539568962       -0.10620625766317
H            4.27834174310476       -0.96050772866541       -0.01705581946509
H           -1.48692678284761        3.04142059929453        0.00490221224218
H           -2.67009334962598        2.04237434176706       -0.89215068681612
H           -2.67978577513922        2.02874546501621        0.87499243969281
H           -2.73325107696228       -3.81232697558126        0.93874928935150
H           -2.80212867408766       -3.84754720986784       -0.91694464833624
H           -3.81652957411477       -2.60650417815281        0.02658217327494
H            1.61909204392564       -2.22375727282267       -0.03151452672669

          :  Hamiltonian                  GFN2-xTB          :
         :: total energy             -42.064467100788 Eh    ::
         :: gradient norm              0.002545658899 Eh/a0 ::
         :: HOMO-LUMO gap              0.904482835859 eV    ::
         :: SCC energy               -42.594463822113 Eh    ::
         :: -> dispersion             -0.020867638627 Eh    ::
         :: repulsion energy           0.529951873332 Eh    ::

    * Orbital Energies and Occupations

         #    Occupation            Energy/Eh            Energy/eV
      -------------------------------------------------------------
         1        2.0000           -0.8901553             -24.2224
       ...           ...                  ...                  ...
        25        1.9923           -0.6487131             -17.6524
        26        1.9911           -0.6454197             -17.5628
        27        1.9910           -0.6449917             -17.5511
        28        1.9816           -0.6279981             -17.0887
        29        1.9806           -0.6267658             -17.0552
        30        1.9795           -0.6254616             -17.0197
        31        1.9603           -0.6094700             -16.5845
        32        1.9552           -0.6065789             -16.5059
        33        1.9449           -0.6015160             -16.3681
        34        1.8914           -0.5847553             -15.9120
        35        1.8856           -0.5834360             -15.8761
        36        1.8314           -0.5735319             -15.6066
        37        1.3781           -0.5357818             -14.5794 (HOMO)
        38        0.7070           -0.5025427             -13.6749 (LUMO)
        39        0.4897           -0.4901295             -13.3371
        40        0.0320           -0.4190540             -11.4030
        41        0.0176           -0.4046624             -11.0114
        42        0.0050           -0.3746449             -10.1946
        43        0.0001           -0.2883862              -7.8474
        44        0.0000           -0.1901075              -5.1731
        45        0.0000           -0.1533395              -4.1726
        46                         -0.0795729              -2.1653
        47                         -0.0429489              -1.1687
        48                         -0.0361235              -0.9830
       ...                                ...                  ...
        67                          0.5392913              14.6749
      -------------------------------------------------------------
                  HL-Gap            0.0332391 Eh            0.9045 eV

     #   Z          covCN         q      C6AA      α(0)
     1   6 C        3.697    -0.086    22.312     6.757
     2   7 N        2.740     0.034    20.658     6.751
     3   6 C        2.795     0.117    25.407     8.257
     4   7 N        1.775    -0.210    26.380     7.606
     5   6 C        2.057     0.056    29.552     8.781
     6   6 C        2.924     0.024    27.467     8.595
     7   6 C        2.786     0.274    22.370     7.747
     8   8 O        0.858    -0.339    20.504     6.071
     9   7 N        2.741    -0.068    22.559     7.054
    10   6 C        3.706    -0.058    21.765     6.669
    11   6 C        2.760     0.341    21.217     7.543
    12   8 O        0.859    -0.317    20.097     6.010
    13   7 N        1.836    -0.173    25.556     7.492
    14   6 C        2.779    -0.077    29.915     8.958
    15   1 H        0.924     0.111     1.692     2.034
    16   1 H        0.924     0.108     1.713     2.047
    17   1 H        0.924     0.140     1.461     1.890
    18   1 H        0.925     0.130     1.536     1.938
    19   1 H        0.925     0.126     1.567     1.957
    20   1 H        0.924     0.117     1.639     2.002
    21   1 H        0.924     0.117     1.637     2.001
    22   1 H        0.926     0.131     1.528     1.933
    23   1 H        0.926     0.131     1.524     1.931
    24   1 H        0.926     0.152     1.380     1.837
    25   1 H        0.918     0.221     0.998     1.562

Wiberg/Mayer (AO) data.
largest (>0.10) Wiberg bond orders for each atom

     #   Z sym  total        # sym  WBO       # sym  WBO       # sym  WBO
 ---------------------------------------------------------------------------
     1   6 C    3.868 --     2 N    0.996    16 H    0.949    15 H    0.940
                            17 H    0.935
     2   7 N    3.453 --     6 C    1.165     3 C    1.145     1 C    0.996
     3   6 C    3.908 --     4 N    1.788     2 N    1.145    18 H    0.914
     4   7 N    2.811 --     3 C    1.788    25 H    0.751
     5   6 C    3.467 --    13 N    1.661     6 C    1.350    25 H    0.166
     6   6 C    3.733 --     5 C    1.350     2 N    1.165     7 C    1.010
     7   6 C    3.892 --     8 O    1.625     9 N    1.143     6 C    1.010
     8   8 O    1.924 --     7 C    1.625     9 N    0.120
     9   7 N    3.474 --     7 C    1.143    11 C    1.064    10 C    0.978
                             8 O    0.120    12 O    0.103
    10   6 C    3.850 --     9 N    0.978    19 H    0.950    21 H    0.941
                            20 H    0.940
    11   6 C    3.889 --    12 O    1.668    13 N    1.075     9 N    1.064
    12   8 O    1.947 --    11 C    1.668     9 N    0.103
    13   7 N    2.985 --     5 C    1.661    11 C    1.075
    14   6 C    2.908 --    22 H    0.969    23 H    0.969    24 H    0.957
    15   1 H    0.956 --     1 C    0.940
    16   1 H    0.964 --     1 C    0.949
    17   1 H    0.966 --     1 C    0.935
    18   1 H    0.957 --     3 C    0.914
    19   1 H    0.969 --    10 C    0.950
    20   1 H    0.958 --    10 C    0.940
    21   1 H    0.959 --    10 C    0.941
    22   1 H    0.971 --    14 C    0.969
    23   1 H    0.971 --    14 C    0.969
    24   1 H    0.962 --    14 C    0.957
    25   1 H    0.944 --     4 N    0.751     5 C    0.166
 ---------------------------------------------------------------------------

molecular dipole:
                 x           y           z       tot (Debye)
 q only:        0.856      -0.908       0.028
   full:        1.018      -0.633       0.036       3.047

           -------------------------------------------------
          | TOTAL ENERGY              -42.064467100788 Eh   |
          | GRADIENT NORM               0.002545658899 Eh/α |
          | HOMO-LUMO GAP               0.904482835859 eV   |
           -------------------------------------------------

 * finished run on 2024/06/05 at 19:58:45.229
