   * xtb version 6.6.1 (8d0f1dd) compiled by 'conda@1efc2f54142f' on 2023-08-01
          program call               : xtb struc.xyz --opt loose --input .xc1 --gfn2

   ID    Z sym.   atoms
    1    6 C      1, 3, 5-7, 10, 11, 14
    2    7 N      2, 4, 9, 13
    3    8 O      8, 12
    4    1 H      15-25
constraining bond 7 25 to    4.7133300 Å, actual value:    4.5346068 Å

          :  Hamiltonian                  GFN2-xTB          :
 * total energy  :   -42.3048920 Eh     change       -0.6650680E-10 Eh
 * total energy  :   -43.4015656 Eh     change       -0.1096674E+01 Eh
 * total energy  :   -45.6383962 Eh     change       -0.2236831E+01 Eh
 * total energy  :   -49.2548023 Eh     change       -0.3616406E+01 Eh
 * total energy  :   -54.6604246 Eh     change       -0.5405622E+01 Eh
 * total energy  :   -60.3381217 Eh     change       -0.5677697E+01 Eh
 * total energy  :   -61.3200075 Eh     change       -0.9818858E+00 Eh
 * total energy  :   -69.1348455 Eh     change       -0.7814838E+01 Eh
 * total energy  :   -48.4023029 Eh     change        0.2073254E+02 Eh
 * total energy  :   -66.1247719 Eh     change       -0.1772247E+02 Eh
 * total energy  :   -73.3250051 Eh     change       -0.3102832E-04 Eh
 * total energy  :   -73.3250151 Eh     change       -0.9958290E-05 Eh
 * total energy  :   -73.3250452 Eh     change       -0.3010087E-04 Eh
 * total energy  :   -73.3250692 Eh     change       -0.2402546E-04 Eh
 * total energy  :   -73.3250856 Eh     change       -0.1642730E-04 Eh
 * total energy  :   -73.3250968 Eh     change       -0.1120527E-04 Eh
 * total energy  :   -73.3251061 Eh     change       -0.9271832E-05 Eh
 * total energy  :   -73.3251113 Eh     change       -0.5226739E-05 Eh
 * total energy  :   -73.3251160 Eh     change       -0.4671395E-05 Eh
   *** GEOMETRY OPTIMIZATION CONVERGED AFTER 107 ITERATIONS ***

 final structure:
================
25
 xtb: 6.6.1 (8d0f1dd)
C            3.27585016672856        1.01960915721273        0.74583711580845
N            2.44055757361970        0.12820322370970       -0.02453072974445
C            2.86348070470795       -1.02182497333215       -0.65193603060409
N            1.98232515525650       -1.67088496712300       -1.28858191082748
C           -0.14424393669912       -1.76278023511656       -0.41857511212220
C            1.11412372434868        0.32586048642644       -0.23546465463016
C            0.68560899899325       -0.90932908917268       -1.23428276035954
O            0.39753837546001        1.20030241511543        0.14501059489837
N           -2.64151956683426        1.88125264614097       -0.57022697094529
C           -2.73564854306678        3.25230265555256       -0.29147005882199
C           -2.29105548156400        0.77421721130747       -0.38523203393876
O           -2.04504760322595       -0.36985332228283       -0.35773003512899
N           -0.55110323033354       -2.64280924424629        0.21955255750367
C           -1.30017119281838       -3.53325692485787        0.95668766829539
H            3.75629294077712        0.47457410765624        1.55818395961266
H            4.03981928622103        1.46281860128896        0.10667125950807
H            2.64823802830924        1.80823986402263        1.15733840977043
H            3.88911611733471       -1.34063321006018       -0.59126877336323
H           -1.77489301159425        3.63925896835502        0.05338741729033
H           -3.02914169627320        3.76364701609076       -1.20842517282437
H           -3.49584555822849        3.42537076959947        0.47269497890556
H           -0.80417680740016       -3.71601811000646        1.91159061673701
H           -1.37903011959843       -4.47165743738396        0.40378690759043
H           -2.29762778917622       -3.12222469751551        1.12826434228188
H            0.55698497911101       -0.77614636983226       -1.57010996699484

          :  Hamiltonian                  GFN2-xTB          :
         :: total energy             -73.325116001638 Eh    ::
         :: gradient norm              0.001701276177 Eh/a0 ::
         :: HOMO-LUMO gap              3.020567908301 eV    ::
         :: SCC energy               -42.771157944863 Eh    ::
         :: -> dispersion             -0.018819880958 Eh    ::
         :: repulsion energy           2.920278324161 Eh    ::

    * Orbital Energies and Occupations

         #    Occupation            Energy/Eh            Energy/eV
      -------------------------------------------------------------
         1        2.0000           -0.8881113             -24.1667
       ...           ...                  ...                  ...
        25        2.0000           -0.6543523             -17.8058
        26        2.0000           -0.6500548             -17.6889
        27        1.9999           -0.6339447             -17.2505
        28        1.9998           -0.6263272             -17.0432
        29        1.9998           -0.6255999             -17.0234
        30        1.9998           -0.6241998             -16.9853
        31        1.9998           -0.6232642             -16.9599
        32        1.9997           -0.6176150             -16.8062
        33        1.9983           -0.5916654             -16.1000
        34        1.9907           -0.5646318             -15.3644
        35        1.9741           -0.5482596             -14.9189
        36        1.9591           -0.5409015             -14.7187
        37        1.9523           -0.5384285             -14.6514 (HOMO)
        38        0.0712           -0.4274247             -11.6308 (LUMO)
        39        0.0381           -0.4172384             -11.3536
        40        0.0169           -0.4042085             -10.9991
        41        0.0007           -0.3530470              -9.6069
        42        0.0000           -0.3024090              -8.2290
        43        0.0000           -0.2867392              -7.8026
        44                         -0.1981012              -5.3906
        45                         -0.1731097              -4.7106
        46                         -0.1472865              -4.0079
        47                         -0.1123241              -3.0565
        48                         -0.0793656              -2.1596
       ...                                ...                  ...
        67                         14.0045227             381.0825
      -------------------------------------------------------------
                  HL-Gap            0.1110038 Eh            3.0206 eV

     #   Z          covCN         q      C6AA      α(0)
     1   6 C        3.691    -0.064    21.917     6.699
     2   7 N        2.761    -0.042    22.059     6.976
     3   6 C        2.927     0.122    25.327     8.253
     4   7 N        1.871    -0.240    27.117     7.719
     5   6 C        1.960     0.147    27.514     8.471
     6   6 C        2.831     0.276    22.335     7.744
     7   6 C        3.859    -0.014    20.791     6.485
     8   8 O        0.856    -0.341    20.542     6.077
     9   7 N        1.820    -0.116    24.287     7.302
    10   6 C        3.685    -0.035    21.407     6.624
    11   6 C        1.769     0.314    24.179     7.950
    12   8 O        0.857    -0.325    20.235     6.031
    13   7 N        1.820     0.078    20.535     6.714
    14   6 C        3.685    -0.067    22.004     6.716
    15   1 H        0.925     0.089     1.886     2.148
    16   1 H        0.924     0.093     1.848     2.126
    17   1 H        0.925     0.101     1.772     2.082
    18   1 H        0.926     0.108     1.711     2.045
    19   1 H        0.924     0.092     1.864     2.135
    20   1 H        0.925     0.101     1.774     2.083
    21   1 H        0.924     0.094     1.839     2.121
    22   1 H        0.924     0.133     1.513     1.924
    23   1 H        0.924     0.140     1.463     1.892
    24   1 H        0.924     0.141     1.457     1.888
    25   1 H        0.969     0.216     1.019     1.577

Wiberg/Mayer (AO) data.
largest (>0.10) Wiberg bond orders for each atom

     #   Z sym  total        # sym  WBO       # sym  WBO       # sym  WBO
 ---------------------------------------------------------------------------
     1   6 C    3.930 --     2 N    0.975    17 H    0.974    15 H    0.969
                            16 H    0.968
     2   7 N    3.602 --     6 C    1.198     3 C    1.137     1 C    0.975
                             8 O    0.155     4 N    0.104
     3   6 C    3.926 --     4 N    1.760     2 N    1.137    18 H    0.944
     4   7 N    2.997 --     3 C    1.760     7 C    0.947     2 N    0.104
     5   6 C    3.850 --    13 N    2.406     7 C    1.090
     6   6 C    3.923 --     8 O    1.778     2 N    1.198     7 C    0.780
     7   6 C    3.927 --     5 C    1.090     4 N    0.947    25 H    0.893
                             6 C    0.780
     8   8 O    2.137 --     6 C    1.778     2 N    0.155
     9   7 N    3.451 --    11 C    2.071    10 C    1.022    12 O    0.345
    10   6 C    3.922 --     9 N    1.022    20 H    0.957    19 H    0.952
                            21 H    0.951
    11   6 C    3.939 --     9 N    2.071    12 O    1.781
    12   8 O    2.230 --    11 C    1.781     9 N    0.345
    13   7 N    3.656 --     5 C    2.406    14 C    1.052
    14   6 C    3.920 --    13 N    1.052    22 H    0.934    23 H    0.930
                            24 H    0.927
    15   1 H    0.990 --     1 C    0.969
    16   1 H    0.990 --     1 C    0.968
    17   1 H    0.989 --     1 C    0.974
    18   1 H    0.986 --     3 C    0.944
    19   1 H    0.980 --    10 C    0.952
    20   1 H    0.981 --    10 C    0.957
    21   1 H    0.979 --    10 C    0.951
    22   1 H    0.978 --    14 C    0.934
    23   1 H    0.972 --    14 C    0.930
    24   1 H    0.975 --    14 C    0.927
    25   1 H    0.952 --     7 C    0.893
 ---------------------------------------------------------------------------

molecular dipole:
                 x           y           z       tot (Debye)
 q only:        0.370      -1.449       0.582
   full:        0.574      -1.143       0.756       3.776

           -------------------------------------------------
          | TOTAL ENERGY              -73.325116001638 Eh   |
          | GRADIENT NORM               0.001701276177 Eh/α |
          | HOMO-LUMO GAP               3.020567908301 eV   |
           -------------------------------------------------

 * finished run on 2024/06/05 at 19:58:15.381
