   * xtb version 6.6.1 (8d0f1dd) compiled by 'conda@1efc2f54142f' on 2023-08-01
          program call               : xtb xtbopt.xyz --opt crude --input .xc2 --gfn2

   ID    Z sym.   atoms
    1    6 C      1, 3, 5-7, 10, 11, 14
    2    7 N      2, 4, 9, 13
    3    8 O      8, 12
    4    1 H      15-25

          :  Hamiltonian                  GFN2-xTB          :
 * total energy  :   -39.8507698 Eh     change       -0.1989520E-12 Eh
 * total energy  :   -42.1129581 Eh     change       -0.2262188E+01 Eh
 * total energy  :   -42.1316978 Eh     change       -0.1873973E-01 Eh
 * total energy  :   -42.1359957 Eh     change       -0.4297909E-02 Eh
 * total energy  :   -42.1369249 Eh     change       -0.9291830E-03 Eh
 * total energy  :   -42.1365668 Eh     change        0.3581554E-03 Eh
 * total energy  :   -42.1381973 Eh     change       -0.1630524E-02 Eh
 * total energy  :   -42.1388589 Eh     change       -0.6616248E-03 Eh
 * total energy  :   -42.1397252 Eh     change       -0.8662703E-03 Eh
 * total energy  :   -42.1401288 Eh     change       -0.4036243E-03 Eh
 * total energy  :   -42.1403162 Eh     change       -0.1873407E-03 Eh
   *** GEOMETRY OPTIMIZATION CONVERGED AFTER 11 ITERATIONS ***

 final structure:
================
25
 xtb: 6.6.1 (8d0f1dd)
C            3.32643323923211        1.11067052758046        0.70243621204042
N            2.48251318767189        0.16537951655086        0.01389799461502
C            2.90190980558601       -0.97836551312180       -0.62314972654565
N            1.99359822005085       -1.65362108741428       -1.19978653420752
C           -0.18546296143343       -1.80363921093250       -0.34982846412393
C            1.13066241835335        0.29866480804097       -0.12602480491594
C            0.73801669155293       -0.94854218723243       -1.00139950152792
O            0.41492107606545        1.15728523375996        0.29985312766593
N           -2.53769593557712        1.83736949446840       -0.59734616346169
C           -2.67816796456251        3.20063447932677       -0.29661328301398
C           -2.24706352574275        0.72150314720547       -0.36864529166439
O           -2.03566165560674       -0.43098044628722       -0.33569531325280
N           -0.60587339289408       -2.69746306884988        0.25987835257402
C           -1.41445887362486       -3.58024455052098        0.94111105197164
H            3.84996445468703        0.61992453168551        1.52323687021390
H            4.05585140038561        1.53495457159366        0.01226269797373
H            2.69580147357447        1.90530916936387        1.09765085954887
H            3.93741782229907       -1.27047467100763       -0.62735547180581
H           -1.73082610716938        3.60873389732581        0.05984383783173
H           -2.97845267206136        3.71448765175988       -1.20970158387662
H           -3.44702683138933        3.34213883425918        0.46497996387080
H           -0.96827435296336       -3.79028323802442        1.91482895147808
H           -1.48514926744549       -4.50817407804372        0.37014360217667
H           -2.40827312993556       -3.14679673878844        1.07253362504650
H            0.35572839500263       -0.59023253114835       -1.96593939071446

          :  Hamiltonian                  GFN2-xTB          :
         :: total energy             -42.140316160695 Eh    ::
         :: gradient norm              0.006125523511 Eh/a0 ::
         :: HOMO-LUMO gap              3.106715823221 eV    ::
         :: SCC energy               -42.769327164258 Eh    ::
         :: -> dispersion             -0.018813706634 Eh    ::
         :: repulsion energy           0.628903972351 Eh    ::

    * Orbital Energies and Occupations

         #    Occupation            Energy/Eh            Energy/eV
      -------------------------------------------------------------
         1        2.0000           -0.8778353             -23.8871
       ...           ...                  ...                  ...
        25        2.0000           -0.6545307             -17.8107
        26        2.0000           -0.6481625             -17.6374
        27        1.9999           -0.6317579             -17.1910
        28        1.9998           -0.6265859             -17.0503
        29        1.9998           -0.6236035             -16.9691
        30        1.9997           -0.6190373             -16.8449
        31        1.9997           -0.6188422             -16.8396
        32        1.9997           -0.6159562             -16.7610
        33        1.9981           -0.5883735             -16.0105
        34        1.9862           -0.5570070             -15.1569
        35        1.9703           -0.5447408             -14.8232
        36        1.9659           -0.5425095             -14.7624
        37        1.9585           -0.5393129             -14.6755 (HOMO)
        38        0.0673           -0.4251432             -11.5687 (LUMO)
        39        0.0372           -0.4154827             -11.3059
        40        0.0174           -0.4032720             -10.9736
        41        0.0006           -0.3485687              -9.4850
        42        0.0000           -0.3052540              -8.3064
        43        0.0000           -0.2876974              -7.8286
        44                         -0.1703959              -4.6367
        45                         -0.1390199              -3.7829
        46                         -0.0898070              -2.4438
        47                         -0.0799595              -2.1758
        48                         -0.0679819              -1.8499
       ...                                ...                  ...
        67                          1.2316393              33.5146
      -------------------------------------------------------------
                  HL-Gap            0.1141697 Eh            3.1067 eV

     #   Z          covCN         q      C6AA      α(0)
     1   6 C        3.690    -0.063    21.907     6.698
     2   7 N        2.776    -0.043    22.075     6.978
     3   6 C        2.995     0.121    25.330     8.256
     4   7 N        1.864    -0.229    26.854     7.681
     5   6 C        1.915     0.158    27.289     8.436
     6   6 C        2.852     0.279    22.297     7.739
     7   6 C        3.949     0.044    19.772     6.318
     8   8 O        0.856    -0.355    20.801     6.115
     9   7 N        1.820    -0.116    24.284     7.302
    10   6 C        3.685    -0.036    21.415     6.625
    11   6 C        1.769     0.313    24.197     7.953
    12   8 O        0.859    -0.326    20.250     6.033
    13   7 N        1.821     0.083    20.437     6.698
    14   6 C        3.686    -0.068    22.012     6.717
    15   1 H        0.924     0.088     1.896     2.153
    16   1 H        0.925     0.090     1.876     2.142
    17   1 H        0.925     0.102     1.771     2.081
    18   1 H        0.926     0.107     1.723     2.053
    19   1 H        0.924     0.093     1.849     2.127
    20   1 H        0.925     0.101     1.776     2.084
    21   1 H        0.924     0.093     1.853     2.129
    22   1 H        0.924     0.135     1.497     1.913
    23   1 H        0.924     0.140     1.465     1.893
    24   1 H        0.924     0.140     1.461     1.890
    25   1 H        0.924     0.149     1.398     1.849

Wiberg/Mayer (AO) data.
largest (>0.10) Wiberg bond orders for each atom

     #   Z sym  total        # sym  WBO       # sym  WBO       # sym  WBO
 ---------------------------------------------------------------------------
     1   6 C    3.932 --     2 N    0.980    17 H    0.973    15 H    0.969
                            16 H    0.968
     2   7 N    3.600 --     6 C    1.180     3 C    1.146     1 C    0.980
                             8 O    0.155     4 N    0.108
     3   6 C    3.932 --     4 N    1.749     2 N    1.146    18 H    0.948
     4   7 N    2.995 --     3 C    1.749     7 C    0.977     2 N    0.108
     5   6 C    3.844 --    13 N    2.412     7 C    1.092
     6   6 C    3.932 --     8 O    1.759     2 N    1.180     7 C    0.846
     7   6 C    3.971 --     5 C    1.092     4 N    0.977    25 H    0.884
                             6 C    0.846
     8   8 O    2.103 --     6 C    1.759     2 N    0.155
     9   7 N    3.461 --    11 C    2.078    10 C    1.021    12 O    0.344
    10   6 C    3.924 --     9 N    1.021    20 H    0.959    21 H    0.952
                            19 H    0.952
    11   6 C    3.940 --     9 N    2.078    12 O    1.771
    12   8 O    2.239 --    11 C    1.771     9 N    0.344
    13   7 N    3.653 --     5 C    2.412    14 C    1.052
    14   6 C    3.920 --    13 N    1.052    22 H    0.933    23 H    0.930
                            24 H    0.927
    15   1 H    0.990 --     1 C    0.969
    16   1 H    0.990 --     1 C    0.968
    17   1 H    0.989 --     1 C    0.973
    18   1 H    0.987 --     3 C    0.948
    19   1 H    0.980 --    10 C    0.952
    20   1 H    0.982 --    10 C    0.959
    21   1 H    0.981 --    10 C    0.952
    22   1 H    0.978 --    14 C    0.933
    23   1 H    0.974 --    14 C    0.930
    24   1 H    0.976 --    14 C    0.927
    25   1 H    0.971 --     7 C    0.884
 ---------------------------------------------------------------------------

molecular dipole:
                 x           y           z       tot (Debye)
 q only:        0.265      -1.531       0.413
   full:        0.400      -1.212       0.519       3.502

           -------------------------------------------------
          | TOTAL ENERGY              -42.140316160695 Eh   |
          | GRADIENT NORM               0.006125523511 Eh/α |
          | HOMO-LUMO GAP               3.106715823221 eV   |
           -------------------------------------------------

 * finished run on 2024/06/05 at 19:58:15.796
