   * xtb version 6.6.1 (8d0f1dd) compiled by 'conda@1efc2f54142f' on 2023-08-01
          program call               : xtb xtbopt.xyz --opt crude --input .xc2 --gfn2

   ID    Z sym.   atoms
    1    6 C      1, 3, 5-7, 10, 11, 14
    2    7 N      2, 4, 9, 13
    3    8 O      8, 12
    4    1 H      15-25

          :  Hamiltonian                  GFN2-xTB          :
 * total energy  :   -42.0790820 Eh     change       -0.2553691E-10 Eh
   *** GEOMETRY OPTIMIZATION CONVERGED AFTER 1 ITERATIONS ***

 final structure:
================
25
 xtb: 6.6.1 (8d0f1dd)
C            3.25273817919757        1.24806087187577        0.02568256759480
N            2.32350027886799        0.14914239492580        0.04960089646790
C            2.61803307419695       -1.13839970400648        0.08744581169365
N            1.49188356092731       -1.87345350594973        0.12034766741315
C            0.42292478809676       -1.00759641744199        0.09973880381277
C            0.95640841790844        0.27641986934391        0.05550813642516
C            0.12268654668947        1.45974391067143        0.01376614335914
O            0.51681348748428        2.60198892462912       -0.02329555357666
N           -1.23246259730302        1.11642139080769        0.01880387889770
C           -2.19471989476252        2.21523409491883       -0.03279019581135
C           -1.80250765515830       -0.12627594869784        0.05831163457524
O           -2.98193043771674       -0.32165633905663        0.05001452737414
N           -0.90187817167942       -1.27649175930715        0.11501532197754
C           -1.45848139938131       -2.49739028061733        0.18955112233345
H            3.76845930119283        1.32816918435891        0.98369748873871
H            3.99248178472917        1.10016768020748       -0.76027123936478
H            2.70029443244241        2.17016720399376       -0.15432951689901
H            3.61052843205232       -1.54965994126333        0.08971254767275
H           -1.63921005789781        3.14940604424364       -0.02560386258082
H           -2.79262677765046        2.13927862317556       -0.93981981807623
H           -2.85934149085190        2.16290770621287        0.82792512377849
H           -0.85115205503878       -3.37836891705529        0.21836967411030
H           -2.82946148533189       -4.69771010761347       -1.38977620774305
H           -2.52846048708702       -2.54906778121163        0.21264628958775
H            1.45591174017345       -2.88279865554387        0.14092037613907

          :  Hamiltonian                  GFN2-xTB          :
         :: total energy             -42.079082013340 Eh    ::
         :: gradient norm              0.003771515363 Eh/a0 ::
         :: HOMO-LUMO gap              0.217021246918 eV    ::
         :: SCC energy               -42.604150662293 Eh    ::
         :: -> dispersion             -0.022669455944 Eh    ::
         :: repulsion energy           0.524984727845 Eh    ::

    * Orbital Energies and Occupations

         #    Occupation            Energy/Eh            Energy/eV
      -------------------------------------------------------------
         1        2.0000           -0.9236995             -25.1351
       ...           ...                  ...                  ...
        25        2.0000           -0.6709645             -18.2579
        26        2.0000           -0.6692941             -18.2124
        27        2.0000           -0.6602332             -17.9659
        28        2.0000           -0.6398516             -17.4112
        29        2.0000           -0.6309064             -17.1678
        30        2.0000           -0.6293609             -17.1258
        31        2.0000           -0.6234173             -16.9640
        32        2.0000           -0.5985424             -16.2872
        33        2.0000           -0.5926485             -16.1268
        34        2.0000           -0.5852059             -15.9243
        35        2.0000           -0.5651464             -15.3784
        36        1.9999           -0.5630393             -15.3211
        37        1.2405           -0.4850439             -13.1987 (HOMO)
        38        0.7472           -0.4770685             -12.9817 (LUMO)
        39        0.0124           -0.4409489             -11.9988
        40        0.0001           -0.4010859             -10.9141
        41        0.0000           -0.3746211             -10.1940
        42                         -0.2903586              -7.9011
        43                         -0.2161639              -5.8821
        44                         -0.2042236              -5.5572
        45                         -0.1538261              -4.1858
        46                         -0.1372060              -3.7336
        47                         -0.0712089              -1.9377
        48                         -0.0456172              -1.2413
       ...                                ...                  ...
        67                          0.5576699              15.1750
      -------------------------------------------------------------
                  HL-Gap            0.0079754 Eh            0.2170 eV

     #   Z          covCN         q      C6AA      α(0)
     1   6 C        3.692    -0.099    22.575     6.799
     2   7 N        2.835     0.094    19.614     6.578
     3   6 C        3.059     0.062    26.563     8.452
     4   7 N        2.793    -0.054    22.283     7.011
     5   6 C        3.040     0.093    25.908     8.348
     6   6 C        3.120    -0.018    28.288     8.711
     7   6 C        2.763     0.268    22.467     7.762
     8   8 O        0.858    -0.368    21.049     6.151
     9   7 N        2.744    -0.080    22.787     7.090
    10   6 C        3.714    -0.065    21.874     6.683
    11   6 C        2.734     0.311    21.709     7.628
    12   8 O        0.859    -0.336    20.440     6.062
    13   7 N        2.735     0.007    21.130     6.827
    14   6 C        2.796    -0.060    29.487     8.896
    15   1 H        0.924     0.113     1.669     2.021
    16   1 H        0.925     0.109     1.705     2.042
    17   1 H        0.925     0.142     1.446     1.880
    18   1 H        0.926     0.131     1.524     1.930
    19   1 H        0.925     0.115     1.653     2.010
    20   1 H        0.925     0.097     1.814     2.106
    21   1 H        0.925     0.098     1.805     2.101
    22   1 H        0.926     0.087     1.907     2.159
    23   1 H        0.000    -0.016     8.334     5.279
    24   1 H        0.926     0.134     1.504     1.918
    25   1 H        0.860     0.232     0.955     1.531

Wiberg/Mayer (AO) data.
largest (>0.10) Wiberg bond orders for each atom

     #   Z sym  total        # sym  WBO       # sym  WBO       # sym  WBO
 ---------------------------------------------------------------------------
     1   6 C    3.910 --     2 N    0.982    16 H    0.962    17 H    0.958
                            15 H    0.954
     2   7 N    3.720 --     3 C    1.419     6 C    1.169     1 C    0.982
     3   6 C    3.916 --     2 N    1.419     4 N    1.307    18 H    0.950
     4   7 N    3.576 --     3 C    1.307     5 C    1.159    25 H    0.917
     5   6 C    3.887 --     6 C    1.332    13 N    1.174     4 N    1.159
     6   6 C    3.864 --     5 C    1.332     2 N    1.169     7 C    1.071
     7   6 C    3.930 --     8 O    1.681     9 N    1.087     6 C    1.071
     8   8 O    2.009 --     7 C    1.681     9 N    0.144
     9   7 N    3.583 --    11 C    1.170     7 C    1.087    10 C    0.960
                            12 O    0.153     8 O    0.144
    10   6 C    3.917 --    19 H    0.969    21 H    0.969    20 H    0.968
                             9 N    0.960
    11   6 C    3.932 --    12 O    1.735     9 N    1.170    13 N    0.929
    12   8 O    2.072 --    11 C    1.735     9 N    0.153
    13   7 N    3.633 --    14 C    1.293     5 C    1.174    11 C    0.929
    14   6 C    3.376 --    13 N    1.293    22 H    0.970    24 H    0.957
    15   1 H    0.986 --     1 C    0.954
    16   1 H    0.987 --     1 C    0.962
    17   1 H    0.980 --     1 C    0.958
    18   1 H    0.982 --     3 C    0.950
    19   1 H    0.986 --    10 C    0.969
    20   1 H    0.990 --    10 C    0.968
    21   1 H    0.990 --    10 C    0.969
    22   1 H    0.992 --    14 C    0.970
    23   1 H    0.054
    24   1 H    0.981 --    14 C    0.957
    25   1 H    0.945 --     4 N    0.917
 ---------------------------------------------------------------------------

molecular dipole:
                 x           y           z       tot (Debye)
 q only:        2.939      -1.586       0.227
   full:        3.238      -2.182       0.237       9.942

           -------------------------------------------------
          | TOTAL ENERGY              -42.079082013340 Eh   |
          | GRADIENT NORM               0.003771515363 Eh/α |
          | HOMO-LUMO GAP               0.217021246918 eV   |
           -------------------------------------------------

 * finished run on 2024/06/05 at 19:57:59.046
