   * xtb version 6.6.1 (8d0f1dd) compiled by 'conda@1efc2f54142f' on 2023-08-01
          program call               : xtb struc.xyz --opt loose --input .xc1 --gfn2

   ID    Z sym.   atoms
    1    6 C      1, 3, 5-7, 10, 11, 14
    2    7 N      2, 4, 9, 13
    3    8 O      8, 12
    4    1 H      15-25
constraining bond 12 19 to    4.6333300 Å, actual value:    3.7175586 Å

          :  Hamiltonian                  GFN2-xTB          :
 * total energy  :   -43.7426971 Eh     change       -0.6633627E-10 Eh
 * total energy  :   -46.9468198 Eh     change       -0.3204123E+01 Eh
 * total energy  :   -51.2270928 Eh     change       -0.4280273E+01 Eh
 * total energy  :   -56.7235183 Eh     change       -0.5496425E+01 Eh
 * total energy  :   -63.2960820 Eh     change       -0.6572564E+01 Eh
 * total energy  :   -68.1560782 Eh     change       -0.4859996E+01 Eh
 * total energy  :   -70.9850549 Eh     change       -0.2828977E+01 Eh
 * total energy  :   -66.5223540 Eh     change        0.4462701E+01 Eh
 * total energy  :   -71.3416728 Eh     change       -0.4819319E+01 Eh
 * total energy  :   -71.4739345 Eh     change       -0.1322617E+00 Eh
 * total energy  :   -72.1125293 Eh     change       -0.2392523E-03 Eh
 * total energy  :   -72.1127875 Eh     change       -0.2581701E-03 Eh
 * total energy  :   -72.1130619 Eh     change       -0.2743820E-03 Eh
 * total energy  :   -72.1132554 Eh     change       -0.1935536E-03 Eh
 * total energy  :   -72.1134619 Eh     change       -0.2064538E-03 Eh
 * total energy  :   -72.1135266 Eh     change       -0.6465943E-04 Eh
 * total energy  :   -72.1065389 Eh     change        0.6987629E-02 Eh
 * total energy  :   -72.1137306 Eh     change       -0.7191670E-02 Eh
 * total energy  :   -72.1137788 Eh     change       -0.4818638E-04 Eh
   *** GEOMETRY OPTIMIZATION CONVERGED AFTER 70 ITERATIONS ***

 final structure:
================
25
 xtb: 6.6.1 (8d0f1dd)
C            2.99517521296496        1.20358390852856        0.04950795305709
N            2.26020603997761       -0.03300564951025       -0.00161045374133
C            2.75985309719065       -1.25467285566476       -0.08618506627790
N            1.75789194698750       -2.15836212583052       -0.10937645123631
C            0.57130595127524       -1.47796266901772       -0.03595269507771
C            0.89032944698889       -0.12738305009939        0.03113943435463
C           -0.16759044120171        0.88249035308775        0.15188384300296
O            0.00676232015066        2.08162243994306        0.22683059355299
N           -1.40389663022895        0.28167628952391        0.17878541864229
C           -3.13348384163714        3.40017384363339       -0.22763114266431
C           -1.66370058350129       -0.96164557090202        0.10580102781709
O           -2.80296298067900        2.45807083563912        0.60775503551944
N           -0.69871405540464       -1.92822019118848       -0.00827991202107
C           -1.03117087441592       -3.33325976360401       -0.07872359640060
H            3.69599872684962        1.19360159681805        0.88389490519353
H            3.55075029088700        1.35314337387577       -0.87660466472533
H            2.28401696794716        2.01957840760568        0.17835777148686
H            3.80262371995471       -1.50021911426263       -0.12831304394635
H           -2.44903351706433        2.36187102754246        0.78278747269169
H           -4.14154667651206        3.43355860370334       -0.61668357644929
H           -2.40878327723843        4.14637230244385       -0.53636190813070
H           -0.53118394374121       -3.88886631773081        0.71699146355770
H           -0.75145713455758       -3.74956443642718       -1.04860949761272
H           -2.10780849954212       -3.42542124461311        0.04712266523462
H            1.87685024859765       -3.15892145193020       -0.17535395791870

          :  Hamiltonian                  GFN2-xTB          :
         :: total energy             -72.113778788088 Eh    ::
         :: gradient norm              0.003812179219 Eh/a0 ::
         :: HOMO-LUMO gap              0.452898522338 eV    ::
         :: SCC energy               -42.624336978833 Eh    ::
         :: -> dispersion             -0.021130349289 Eh    ::
         :: repulsion energy           2.412615914278 Eh    ::

    * Orbital Energies and Occupations

         #    Occupation            Energy/Eh            Energy/eV
      -------------------------------------------------------------
         1        2.0000           -0.8939516             -24.3257
       ...           ...                  ...                  ...
        25        2.0000           -0.6600645             -17.9613
        26        2.0000           -0.6553731             -17.8336
        27        2.0000           -0.6363984             -17.3173
        28        2.0000           -0.6201693             -16.8757
        29        2.0000           -0.6117076             -16.6454
        30        2.0000           -0.6086776             -16.5630
        31        2.0000           -0.6020251             -16.3819
        32        2.0000           -0.5767933             -15.6953
        33        2.0000           -0.5727812             -15.5862
        34        2.0000           -0.5425340             -14.7631
        35        1.9999           -0.5301863             -14.4271
        36        1.9999           -0.5277981             -14.3621
        37        1.4658           -0.4567138             -12.4278 (HOMO)
        38        0.5021           -0.4400701             -11.9749 (LUMO)
        39        0.0321           -0.4161325             -11.3235
        40        0.0001           -0.3733334             -10.1589
        41        0.0000           -0.3559002              -9.6845
        42                         -0.2449004              -6.6641
        43                         -0.1796919              -4.8897
        44                         -0.1503502              -4.0912
        45                         -0.1139316              -3.1002
        46                         -0.0657621              -1.7895
        47                         -0.0252127              -0.6861
        48                         -0.0140042              -0.3811
       ...                                ...                  ...
        67                          5.4193894             147.4691
      -------------------------------------------------------------
                  HL-Gap            0.0166437 Eh            0.4529 eV

     #   Z          covCN         q      C6AA      α(0)
     1   6 C        3.692    -0.087    22.361     6.766
     2   7 N        2.837     0.074    19.961     6.636
     3   6 C        3.052     0.057    26.666     8.469
     4   7 N        2.797    -0.071    22.610     7.062
     5   6 C        3.071     0.113    25.452     8.272
     6   6 C        3.121    -0.018    28.270     8.708
     7   6 C        2.772     0.285    22.168     7.711
     8   8 O        0.858    -0.417    22.023     6.292
     9   7 N        1.844    -0.239    27.104     7.716
    10   6 C        2.795     0.070    26.417     8.420
    11   6 C        1.906    -0.010    31.386     9.048
    12   8 O        1.664    -0.220    17.671     5.675
    13   7 N        2.741    -0.000    21.271     6.850
    14   6 C        3.696    -0.069    21.995     6.709
    15   1 H        0.925     0.099     1.792     2.093
    16   1 H        0.924     0.101     1.779     2.086
    17   1 H        0.925     0.133     1.512     1.923
    18   1 H        0.926     0.115     1.656     2.012
    19   1 H        0.899     0.375     0.525     1.134
    20   1 H        0.926     0.126     1.562     1.955
    21   1 H        0.925     0.111     1.689     2.032
    22   1 H        0.924     0.069     2.091     2.262
    23   1 H        0.924     0.073     2.053     2.241
    24   1 H        0.925     0.109     1.703     2.041
    25   1 H        0.860     0.222     1.002     1.568

Wiberg/Mayer (AO) data.
largest (>0.10) Wiberg bond orders for each atom

     #   Z sym  total        # sym  WBO       # sym  WBO       # sym  WBO
 ---------------------------------------------------------------------------
     1   6 C    3.921 --     2 N    0.985    15 H    0.964    17 H    0.962
                            16 H    0.961
     2   7 N    3.705 --     3 C    1.412     6 C    1.160     1 C    0.985
     3   6 C    3.915 --     2 N    1.412     4 N    1.287    18 H    0.954
     4   7 N    3.588 --     3 C    1.287     5 C    1.167    25 H    0.922
     5   6 C    3.943 --     6 C    1.364    13 N    1.216     4 N    1.167
     6   6 C    3.902 --     5 C    1.364     2 N    1.160     7 C    1.041
     7   6 C    3.918 --     8 O    1.662     9 N    1.127     6 C    1.041
     8   8 O    2.003 --     7 C    1.662     9 N    0.121
     9   7 N    3.077 --    11 C    1.665     7 C    1.127     8 O    0.121
    10   6 C    3.318 --    12 O    1.374    20 H    0.962    21 H    0.958
    11   6 C    2.997 --     9 N    1.665    13 N    1.153
    12   8 O    2.276 --    10 C    1.374    19 H    0.851
    13   7 N    3.587 --     5 C    1.216    11 C    1.153    14 C    0.986
    14   6 C    3.947 --    13 N    0.986    24 H    0.974    22 H    0.973
                            23 H    0.972
    15   1 H    0.989 --     1 C    0.964
    16   1 H    0.989 --     1 C    0.961
    17   1 H    0.982 --     1 C    0.962
    18   1 H    0.986 --     3 C    0.954
    19   1 H    0.859 --    12 O    0.851
    20   1 H    0.984 --    10 C    0.962
    21   1 H    0.988 --    10 C    0.958
    22   1 H    0.993 --    14 C    0.973
    23   1 H    0.993 --    14 C    0.972
    24   1 H    0.987 --    14 C    0.974
    25   1 H    0.950 --     4 N    0.922
 ---------------------------------------------------------------------------

molecular dipole:
                 x           y           z       tot (Debye)
 q only:        1.150      -0.804      -0.268
   full:        2.135      -1.505      -0.265       6.673

           -------------------------------------------------
          | TOTAL ENERGY              -72.113778788088 Eh   |
          | GRADIENT NORM               0.003812179219 Eh/α |
          | HOMO-LUMO GAP               0.452898522338 eV   |
           -------------------------------------------------

 * finished run on 2024/06/05 at 19:58:06.269
