   * xtb version 6.6.1 (8d0f1dd) compiled by 'conda@1efc2f54142f' on 2023-08-01
          program call               : xtb xtbopt.xyz --opt crude --input .xc2 --gfn2

   ID    Z sym.   atoms
    1    6 C      1, 3, 5-7, 10, 11, 14
    2    7 N      2, 4, 9, 13
    3    8 O      8, 12
    4    1 H      15-25

          :  Hamiltonian                  GFN2-xTB          :
 * total energy  :   -40.2117129 Eh     change       -0.4622791E-10 Eh
 * total energy  :   -42.0374395 Eh     change       -0.1825727E+01 Eh
 * total energy  :   -42.0691533 Eh     change       -0.3171381E-01 Eh
 * total energy  :   -42.0716572 Eh     change       -0.2503920E-02 Eh
 * total energy  :   -42.0740391 Eh     change       -0.2381890E-02 Eh
 * total energy  :   -42.0749718 Eh     change       -0.9326324E-03 Eh
 * total energy  :   -42.0761910 Eh     change       -0.1219203E-02 Eh
 * total energy  :   -42.0772432 Eh     change       -0.1052225E-02 Eh
 * total energy  :   -42.0781086 Eh     change       -0.8653587E-03 Eh
 * total energy  :   -42.0789700 Eh     change       -0.8613909E-03 Eh
 * total energy  :   -42.0798282 Eh     change       -0.8582635E-03 Eh
 * total energy  :   -42.0806815 Eh     change       -0.8533175E-03 Eh
 * total energy  :   -42.0816403 Eh     change       -0.9587932E-03 Eh
 * total energy  :   -42.0822918 Eh     change       -0.6515077E-03 Eh
 * total energy  :   -42.0827140 Eh     change       -0.4221695E-03 Eh
 * total energy  :   -42.0828483 Eh     change       -0.1342980E-03 Eh
 * total energy  :   -42.0830980 Eh     change       -0.2497100E-03 Eh
 * total energy  :   -42.0832877 Eh     change       -0.1897376E-03 Eh
   *** GEOMETRY OPTIMIZATION CONVERGED AFTER 18 ITERATIONS ***

 final structure:
================
25
 xtb: 6.6.1 (8d0f1dd)
C            2.60808090084731        1.33973131871389        0.06585716192159
N            2.03309775116831        0.02145892814934        0.00085602112626
C            2.67576343292211       -1.12163526598914       -0.18185525956694
N            1.79757830335758       -2.14807722727876       -0.18164358046039
C            0.54269909492772       -1.63346906548554        0.00912383445853
C            0.68939008884184       -0.25499220643223        0.12341288431297
C           -0.48621057286061        0.57554777932402        0.29837725969186
O           -0.45547759918669        1.81392346493497        0.37430479718261
N           -1.62628899538008       -0.14291424608477        0.34979078408943
C           -2.75210052247254        3.96657002636428       -0.27643536580649
C           -1.74378243622222       -1.42153240091460        0.26420077952126
O           -2.76004372810329        2.85451258046871        0.31855029897976
N           -0.65570132833667       -2.23765042419825        0.08042717217241
C           -0.80391922420258       -3.67153197164440       -0.03159662131919
H            3.33797419651001        1.39551311970168        0.87340225905137
H            3.10284320618946        1.58731446955337       -0.87391740110833
H            1.80671403608935        2.05440223662940        0.25175646788443
H            3.73401035040190       -1.22403649951026       -0.31440435523930
H           -1.81961934276082        2.38551633779382        0.42630784786622
H           -3.69410447346254        4.47797520716530       -0.40802022839786
H           -1.84091462505373        4.42454599215134       -0.65970130656196
H           -0.24884808978112       -4.18034255407660        0.75758663404462
H           -0.45789787556555       -4.02085458814409       -1.00601810406484
H           -1.86155624718565       -3.90131548944873        0.07286412919338
H            2.03874521336461       -3.12042098018416       -0.30205449105984

          :  Hamiltonian                  GFN2-xTB          :
         :: total energy             -42.083287758939 Eh    ::
         :: gradient norm              0.009694582297 Eh/a0 ::
         :: HOMO-LUMO gap              0.612519658442 eV    ::
         :: SCC energy               -42.596420507364 Eh    ::
         :: -> dispersion             -0.020875815359 Eh    ::
         :: repulsion energy           0.513131873929 Eh    ::

    * Orbital Energies and Occupations

         #    Occupation            Energy/Eh            Energy/eV
      -------------------------------------------------------------
         1        2.0000           -0.8938731             -24.3235
       ...           ...                  ...                  ...
        25        2.0000           -0.6661052             -18.1256
        26        2.0000           -0.6573975             -17.8887
        27        2.0000           -0.6406671             -17.4334
        28        2.0000           -0.6247002             -16.9990
        29        2.0000           -0.6092607             -16.5788
        30        2.0000           -0.6090977             -16.5744
        31        2.0000           -0.6033742             -16.4186
        32        2.0000           -0.5963348             -16.2271
        33        2.0000           -0.5695729             -15.4989
        34        2.0000           -0.5491003             -14.9418
        35        2.0000           -0.5348155             -14.5531
        36        1.9998           -0.5199461             -14.1485
        37        1.5739           -0.4557523             -12.4017 (HOMO)
        38        0.3541           -0.4332427             -11.7891 (LUMO)
        39        0.0719           -0.4193655             -11.4115
        40        0.0003           -0.3754607             -10.2168
        41        0.0000           -0.3580668              -9.7435
        42                         -0.2448058              -6.6615
        43                         -0.1812249              -4.9314
        44                         -0.1508996              -4.1062
        45                         -0.1118545              -3.0437
        46                         -0.0664724              -1.8088
        47                         -0.0421349              -1.1465
        48                         -0.0225426              -0.6134
       ...                                ...                  ...
        67                          0.5135864              13.9754
      -------------------------------------------------------------
                  HL-Gap            0.0225097 Eh            0.6125 eV

     #   Z          covCN         q      C6AA      α(0)
     1   6 C        3.691    -0.085    22.320     6.760
     2   7 N        2.833     0.067    20.069     6.654
     3   6 C        3.047     0.057    26.681     8.472
     4   7 N        2.794    -0.072    22.632     7.066
     5   6 C        3.063     0.113    25.448     8.272
     6   6 C        3.119    -0.013    28.171     8.693
     7   6 C        2.780     0.278    22.293     7.734
     8   8 O        0.888    -0.460    22.904     6.417
     9   7 N        1.847    -0.230    26.881     7.684
    10   6 C        2.706     0.107    25.605     8.282
    11   6 C        1.904    -0.023    31.730     9.097
    12   8 O        1.633    -0.211    17.537     5.653
    13   7 N        2.742     0.006    21.151     6.831
    14   6 C        3.698    -0.071    22.026     6.712
    15   1 H        0.925     0.099     1.796     2.095
    16   1 H        0.924     0.098     1.802     2.099
    17   1 H        0.925     0.128     1.551     1.948
    18   1 H        0.926     0.114     1.663     2.016
    19   1 H        0.808     0.402     0.480     1.088
    20   1 H        0.926     0.122     1.595     1.975
    21   1 H        0.925     0.095     1.834     2.118
    22   1 H        0.924     0.072     2.062     2.246
    23   1 H        0.924     0.072     2.066     2.248
    24   1 H        0.925     0.113     1.675     2.024
    25   1 H        0.860     0.222     1.001     1.568

Wiberg/Mayer (AO) data.
largest (>0.10) Wiberg bond orders for each atom

     #   Z sym  total        # sym  WBO       # sym  WBO       # sym  WBO
 ---------------------------------------------------------------------------
     1   6 C    3.924 --     2 N    0.986    17 H    0.964    15 H    0.963
                            16 H    0.963
     2   7 N    3.684 --     3 C    1.402     6 C    1.147     1 C    0.986
     3   6 C    3.885 --     2 N    1.402     4 N    1.283    18 H    0.954
     4   7 N    3.581 --     3 C    1.283     5 C    1.166    25 H    0.922
     5   6 C    3.946 --     6 C    1.350    13 N    1.231     4 N    1.166
     6   6 C    3.912 --     5 C    1.350     2 N    1.147     7 C    1.086
     7   6 C    3.918 --     8 O    1.502     9 N    1.224     6 C    1.086
     8   8 O    2.041 --     7 C    1.502    19 H    0.175     9 N    0.120
     9   7 N    3.073 --    11 C    1.582     7 C    1.224     8 O    0.120
    10   6 C    3.484 --    12 O    1.565    21 H    0.960    20 H    0.956
    11   6 C    2.930 --     9 N    1.582    13 N    1.165
    12   8 O    2.290 --    10 C    1.565    19 H    0.636
    13   7 N    3.604 --     5 C    1.231    11 C    1.165    14 C    0.986
    14   6 C    3.946 --    13 N    0.986    24 H    0.973    22 H    0.972
                            23 H    0.972
    15   1 H    0.988 --     1 C    0.963
    16   1 H    0.989 --     1 C    0.963
    17   1 H    0.984 --     1 C    0.964
    18   1 H    0.986 --     3 C    0.954
    19   1 H    0.837 --    12 O    0.636     8 O    0.175
    20   1 H    0.985 --    10 C    0.956
    21   1 H    0.991 --    10 C    0.960
    22   1 H    0.993 --    14 C    0.972
    23   1 H    0.993 --    14 C    0.972
    24   1 H    0.986 --    14 C    0.973
    25   1 H    0.950 --     4 N    0.922
 ---------------------------------------------------------------------------

molecular dipole:
                 x           y           z       tot (Debye)
 q only:        1.783      -0.229      -0.555
   full:        2.805      -0.658      -0.727       7.552

           -------------------------------------------------
          | TOTAL ENERGY              -42.083287758939 Eh   |
          | GRADIENT NORM               0.009694582297 Eh/α |
          | HOMO-LUMO GAP               0.612519658442 eV   |
           -------------------------------------------------

 * finished run on 2024/06/05 at 19:58:06.941
