   * xtb version 6.6.1 (8d0f1dd) compiled by 'conda@1efc2f54142f' on 2023-08-01
          program call               : xtb xtbopt.xyz --opt crude --input .xc2 --gfn2

   ID    Z sym.   atoms
    1    6 C      1, 3, 5-7, 10, 11, 14
    2    7 N      2, 4, 9, 13
    3    8 O      8, 12
    4    1 H      15-25

          :  Hamiltonian                  GFN2-xTB          :
 * total energy  :   -42.1045873 Eh     change       -0.4639844E-11 Eh
   *** GEOMETRY OPTIMIZATION CONVERGED AFTER 1 ITERATIONS ***

 final structure:
================
25
 xtb: 6.6.1 (8d0f1dd)
C            3.29582539807791        1.08691208419803        0.04412977383353
N            2.33906198679106        0.01299737748386        0.00918047516710
C            2.60247532926834       -1.29048925455467        0.03498610123772
N            1.44610641043309       -1.99326667600570        0.00928692958202
C            0.41312925396096       -1.10545512894555       -0.03406917771934
C            0.97007291951678        0.16763098007350       -0.03573032470458
C            0.17332182620660        1.35564704035086       -0.09841078970929
O            0.55486035029909        2.50464624823747       -0.11547336806650
N           -1.22852494685954        1.04031570518954       -0.15239223161615
C           -2.08474923772190        2.06936087375175       -0.24459672759089
C           -1.79909580592975       -0.26305780480672       -0.11718054884521
O           -2.98845367811594       -0.42209947567860       -0.13616870520765
N           -0.91492869263646       -1.33786562290563       -0.06444624561259
C           -1.45331873720963       -2.68658565812584       -0.04266172290656
H            3.80392857620424        1.10890254698497        1.00881668425140
H            4.03897081112405        0.95745578811951       -0.74198921611190
H            2.76963247936158        2.02946191404041       -0.10100560707022
H            3.58102753537416       -1.72564518404594        0.07130538526653
H           -1.67116363881991        3.05927886835420       -0.27467544794380
H           -3.13649955465832        1.86250278970631       -0.28524573674375
H           -4.11550009151851        3.43979365905640        1.39192659784437
H           -1.13198663482800       -3.20779383977854        0.85852752938639
H           -1.14004513686710       -3.23584371870421       -0.93063096526722
H           -2.53973482372070       -2.60790278904953       -0.03991944625716
H            1.37601961636786       -3.00066218134583        0.01760840270369

          :  Hamiltonian                  GFN2-xTB          :
         :: total energy             -42.104587295047 Eh    ::
         :: gradient norm              0.002952660521 Eh/a0 ::
         :: HOMO-LUMO gap              0.290314875639 eV    ::
         :: SCC energy               -42.625426507234 Eh    ::
         :: -> dispersion             -0.022717405040 Eh    ::
         :: repulsion energy           0.520752517247 Eh    ::

    * Orbital Energies and Occupations

         #    Occupation            Energy/Eh            Energy/eV
      -------------------------------------------------------------
         1        2.0000           -0.9115599             -24.8048
       ...           ...                  ...                  ...
        25        2.0000           -0.6713017             -18.2670
        26        2.0000           -0.6692960             -18.2125
        27        2.0000           -0.6632268             -18.0473
        28        1.9999           -0.6328437             -17.2206
        29        1.9999           -0.6300974             -17.1458
        30        1.9999           -0.6279743             -17.0881
        31        1.9998           -0.6192047             -16.8494
        32        1.9997           -0.6145951             -16.7240
        33        1.9997           -0.6134166             -16.6919
        34        1.9981           -0.5854738             -15.9316
        35        1.9940           -0.5668526             -15.4248
        36        1.9901           -0.5588229             -15.2063
        37        1.1077           -0.4783146             -13.0156 (HOMO)
        38        0.7752           -0.4676457             -12.7253 (LUMO)
        39        0.1157           -0.4307126             -11.7203
        40        0.0173           -0.3997903             -10.8788
        41        0.0031           -0.3722646             -10.1298
        42        0.0000           -0.2877864              -7.8311
        43                         -0.2081431              -5.6639
        44                         -0.1971587              -5.3650
        45                         -0.1509287              -4.1070
        46                         -0.1453602              -3.9555
        47                         -0.0789708              -2.1489
        48                         -0.0542491              -1.4762
       ...                                ...                  ...
        67                          0.5478962              14.9090
      -------------------------------------------------------------
                  HL-Gap            0.0106689 Eh            0.2903 eV

     #   Z          covCN         q      C6AA      α(0)
     1   6 C        3.691    -0.094    22.494     6.787
     2   7 N        2.830     0.078    19.892     6.624
     3   6 C        3.050     0.047    26.895     8.505
     4   7 N        2.792    -0.058    22.352     7.022
     5   6 C        3.041     0.106    25.624     8.303
     6   6 C        3.110    -0.023    28.432     8.736
     7   6 C        2.775     0.254    22.724     7.807
     8   8 O        0.857    -0.362    20.938     6.135
     9   7 N        2.741    -0.032    21.855     6.943
    10   6 C        2.816    -0.022    28.549     8.754
    11   6 C        2.738     0.309    21.749     7.636
    12   8 O        0.859    -0.351    20.722     6.103
    13   7 N        2.737    -0.050    22.201     6.998
    14   6 C        3.698    -0.074    22.082     6.721
    15   1 H        0.924     0.107     1.721     2.051
    16   1 H        0.925     0.105     1.740     2.063
    17   1 H        0.925     0.135     1.499     1.915
    18   1 H        0.926     0.124     1.583     1.967
    19   1 H        0.926     0.134     1.502     1.916
    20   1 H        0.926     0.132     1.519     1.927
    21   1 H        0.000     0.009     7.249     4.923
    22   1 H        0.925     0.084     1.942     2.179
    23   1 H        0.925     0.085     1.933     2.174
    24   1 H        0.925     0.128     1.554     1.949
    25   1 H        0.860     0.229     0.969     1.542

Wiberg/Mayer (AO) data.
largest (>0.10) Wiberg bond orders for each atom

     #   Z sym  total        # sym  WBO       # sym  WBO       # sym  WBO
 ---------------------------------------------------------------------------
     1   6 C    3.916 --     2 N    0.986    16 H    0.963    17 H    0.962
                            15 H    0.957
     2   7 N    3.649 --     3 C    1.379     6 C    1.147     1 C    0.986
     3   6 C    3.822 --     2 N    1.379     4 N    1.267    18 H    0.953
     4   7 N    3.580 --     3 C    1.267     5 C    1.194    25 H    0.919
     5   6 C    3.900 --     6 C    1.328     4 N    1.194    13 N    1.191
     6   6 C    3.909 --     5 C    1.328     2 N    1.147     7 C    1.116
     7   6 C    3.869 --     8 O    1.675     6 C    1.116     9 N    0.987
     8   8 O    1.960 --     7 C    1.675     9 N    0.108
     9   7 N    3.615 --    10 C    1.341    11 C    1.017     7 C    0.987
                             8 O    0.108
    10   6 C    3.360 --     9 N    1.341    19 H    0.958    20 H    0.956
    11   6 C    3.906 --    12 O    1.707    13 N    1.087     9 N    1.017
    12   8 O    2.021 --    11 C    1.707    13 N    0.135
    13   7 N    3.565 --     5 C    1.191    11 C    1.087    14 C    0.970
                            12 O    0.135
    14   6 C    3.923 --    22 H    0.972    23 H    0.971    13 N    0.970
                            24 H    0.965
    15   1 H    0.984 --     1 C    0.957
    16   1 H    0.985 --     1 C    0.963
    17   1 H    0.982 --     1 C    0.962
    18   1 H    0.984 --     3 C    0.953
    19   1 H    0.981 --    10 C    0.958
    20   1 H    0.982 --    10 C    0.956
    21   1 H    0.032
    22   1 H    0.991 --    14 C    0.972
    23   1 H    0.991 --    14 C    0.971
    24   1 H    0.983 --    14 C    0.965
    25   1 H    0.947 --     4 N    0.919
 ---------------------------------------------------------------------------

molecular dipole:
                 x           y           z       tot (Debye)
 q only:        2.415      -2.028      -0.009
   full:        2.643      -2.482       0.015       9.214

           -------------------------------------------------
          | TOTAL ENERGY              -42.104587295047 Eh   |
          | GRADIENT NORM               0.002952660521 Eh/α |
          | HOMO-LUMO GAP               0.290314875639 eV   |
           -------------------------------------------------

 * finished run on 2024/06/05 at 20:00:13.714
