   * xtb version 6.6.1 (8d0f1dd) compiled by 'conda@1efc2f54142f' on 2023-08-01
          program call               : xtb xtbopt.xyz --opt crude --input .xc2 --gfn2

   ID    Z sym.   atoms
    1    6 C      1, 3, 5-7, 10, 11, 14
    2    7 N      2, 4, 9, 13
    3    8 O      8, 12
    4    1 H      15-25
########################################################################
[WARNING] Please study the warnings concerning your input carefully
-1- readin_getIntValue: could not parse ''
########################################################################

          :  Hamiltonian                  GFN2-xTB          :
 * total energy  :   -42.1921632 Eh     change       -0.3552714E-12 Eh
   *** GEOMETRY OPTIMIZATION CONVERGED AFTER 1 ITERATIONS ***

 final structure:
================
25
 xtb: 6.6.1 (8d0f1dd)
C            3.28598832176083        0.93165941382671       -0.03830561229456
N            2.37873277929899       -0.04337595203439        0.00733666925688
C            2.58793568995049       -1.37140275350054        0.14268970080664
N            1.38816162506680       -2.04168940930485        0.13801070645115
C            0.39840710777608       -1.14572682066400        0.00142634183940
C            0.99138571780091        0.12946622188050       -0.05613778367401
C            0.19073867684637        1.26457709045111       -0.02145508173613
O            0.63579813679048        2.50947479455322        0.09044037988791
N           -1.15554649616763        1.06428351572505       -0.06803938933943
C           -2.06937769470363        2.19652963729987       -0.05994998208637
C           -1.77948599945881       -0.19147337091273       -0.09216643577386
O           -2.97170614374857       -0.28988376812426       -0.13759832561793
N           -0.94459549297414       -1.31290939380450       -0.04179843378246
C           -1.54323498338679       -2.63358228809428       -0.01399019712367
H            4.31146394587065        0.68994904204241        0.12178969153167
H            3.05126513580263        1.88541907591368       -0.46423223812474
H            1.59155766243546        2.51804023241862        0.28208752089937
H            3.54423116963123       -1.83712375642068        0.23235304833019
H           -1.49800934963442        3.11870364282287       -0.04791655436884
H           -2.70172610672547        2.15576330189558       -0.94653436241667
H           -2.71287961778742        2.13971002567560        0.81780400321195
H           -1.29792327238043       -3.14383987313089        0.91796019538101
H           -1.19921421490840       -3.22237775683177       -0.86453306915194
H           -2.62287574052332       -2.50873860067158       -0.07859497992958
H            1.30134065746864       -3.04321370941090        0.21052580572372

          :  Hamiltonian                  GFN2-xTB          :
         :: total energy             -42.192163228359 Eh    ::
         :: gradient norm              0.006319163506 Eh/a0 ::
         :: HOMO-LUMO gap              1.537388171088 eV    ::
         :: SCC energy               -42.718241767915 Eh    ::
         :: -> dispersion             -0.023075464421 Eh    ::
         :: repulsion energy           0.525956336958 Eh    ::

    * Orbital Energies and Occupations

         #    Occupation            Energy/Eh            Energy/eV
      -------------------------------------------------------------
         1        2.0000           -0.9014326             -24.5292
       ...           ...                  ...                  ...
        25        2.0000           -0.6700205             -18.2322
        26        2.0000           -0.6684013             -18.1881
        27        2.0000           -0.6575544             -17.8930
        28        2.0000           -0.6464858             -17.5918
        29        2.0000           -0.6391983             -17.3935
        30        1.9999           -0.6219612             -16.9244
        31        1.9999           -0.6158615             -16.7584
        32        1.9999           -0.6119408             -16.6518
        33        1.9998           -0.6087718             -16.5655
        34        1.9992           -0.5843995             -15.9023
        35        1.9987           -0.5763196             -15.6825
        36        1.9955           -0.5569916             -15.1565
        37        1.7035           -0.4880117             -13.2795 (HOMO)
        38        0.2789           -0.4315137             -11.7421 (LUMO)
        39        0.0209           -0.3882586             -10.5651
        40        0.0037           -0.3608606              -9.8195
        41        0.0001           -0.2936164              -7.9897
        42        0.0000           -0.2048823              -5.5751
        43                         -0.1718021              -4.6750
        44                         -0.1436173              -3.9080
        45                         -0.1300633              -3.5392
        46                         -0.1085884              -2.9548
        47                         -0.0674921              -1.8366
        48                         -0.0353092              -0.9608
       ...                                ...                  ...
        67                          0.5364224              14.5968
      -------------------------------------------------------------
                  HL-Gap            0.0564980 Eh            1.5374 eV

     #   Z          covCN         q      C6AA      α(0)
     1   6 C        2.788    -0.130    31.306     9.165
     2   7 N        2.794     0.103    19.466     6.553
     3   6 C        3.037    -0.003    28.074     8.691
     4   7 N        2.773    -0.063    22.451     7.037
     5   6 C        3.015     0.105    25.668     8.311
     6   6 C        3.106    -0.037    28.777     8.789
     7   6 C        2.775     0.202    23.710     7.975
     8   8 O        1.659    -0.328    19.508     5.963
     9   7 N        2.746    -0.048    22.173     6.994
    10   6 C        3.706    -0.070    21.986     6.703
    11   6 C        2.727     0.312    21.696     7.625
    12   8 O        0.859    -0.356    20.811     6.116
    13   7 N        2.737    -0.058    22.363     7.023
    14   6 C        3.698    -0.072    22.046     6.716
    15   1 H        0.927     0.082     1.957     2.188
    16   1 H        0.926     0.071     2.072     2.251
    17   1 H        0.804     0.352     0.583     1.199
    18   1 H        0.927     0.105     1.741     2.063
    19   1 H        0.925     0.110     1.700     2.039
    20   1 H        0.925     0.107     1.722     2.052
    21   1 H        0.925     0.104     1.747     2.067
    22   1 H        0.924     0.083     1.944     2.181
    23   1 H        0.925     0.085     1.932     2.174
    24   1 H        0.925     0.125     1.576     1.963
    25   1 H        0.860     0.219     1.014     1.578

Wiberg/Mayer (AO) data.
largest (>0.10) Wiberg bond orders for each atom

     #   Z sym  total        # sym  WBO       # sym  WBO       # sym  WBO
 ---------------------------------------------------------------------------
     1   6 C    3.566 --     2 N    1.304    15 H    0.971    16 H    0.955
                             3 C    0.177
     2   7 N    3.721 --     1 C    1.304     3 C    1.250     6 C    1.071
     3   6 C    3.710 --     2 N    1.250     4 N    1.175    18 H    0.960
                             1 C    0.177
     4   7 N    3.555 --     5 C    1.260     3 C    1.175    25 H    0.924
     5   6 C    3.867 --     4 N    1.260     6 C    1.234    13 N    1.178
     6   6 C    3.906 --     7 C    1.295     5 C    1.234     2 N    1.071
     7   6 C    3.782 --     6 C    1.295     9 N    1.203     8 O    1.159
     8   8 O    2.178 --     7 C    1.159    17 H    0.826
     9   7 N    3.537 --     7 C    1.203    11 C    1.068    10 C    0.969
                            12 O    0.126
    10   6 C    3.916 --    19 H    0.971     9 N    0.969    21 H    0.964
                            20 H    0.963
    11   6 C    3.946 --    12 O    1.715    13 N    1.072     9 N    1.068
    12   8 O    2.068 --    11 C    1.715    13 N    0.135     9 N    0.126
    13   7 N    3.516 --     5 C    1.178    11 C    1.072    14 C    0.974
                            12 O    0.135
    14   6 C    3.926 --    13 N    0.974    23 H    0.971    22 H    0.970
                            24 H    0.965
    15   1 H    0.992 --     1 C    0.971
    16   1 H    0.994 --     1 C    0.955
    17   1 H    0.874 --     8 O    0.826
    18   1 H    0.988 --     3 C    0.960
    19   1 H    0.987 --    10 C    0.971
    20   1 H    0.983 --    10 C    0.963
    21   1 H    0.984 --    10 C    0.964
    22   1 H    0.989 --    14 C    0.970
    23   1 H    0.989 --    14 C    0.971
    24   1 H    0.984 --    14 C    0.965
    25   1 H    0.951 --     4 N    0.924
 ---------------------------------------------------------------------------

molecular dipole:
                 x           y           z       tot (Debye)
 q only:        1.774      -0.785       0.217
   full:        2.255      -1.077       0.230       6.379

           -------------------------------------------------
          | TOTAL ENERGY              -42.192163228359 Eh   |
          | GRADIENT NORM               0.006319163506 Eh/α |
          | HOMO-LUMO GAP               1.537388171088 eV   |
           -------------------------------------------------

 * finished run on 2024/06/05 at 19:59:21.214
