   * xtb version 6.6.1 (8d0f1dd) compiled by 'conda@1efc2f54142f' on 2023-08-01
          program call               : xtb xtbopt.xyz --opt crude --input .xc2 --gfn2

   ID    Z sym.   atoms
    1    6 C      1, 3, 5-7, 10, 11, 14
    2    7 N      2, 4, 9, 13
    3    8 O      8, 12
    4    1 H      15-25
########################################################################
[WARNING] Please study the warnings concerning your input carefully
-1- readin_getIntValue: could not parse ''
########################################################################

          :  Hamiltonian                  GFN2-xTB          :
 * total energy  :   -39.8723575 Eh     change       -0.3765876E-12 Eh
 * total energy  :   -42.1575859 Eh     change       -0.2285228E+01 Eh
 * total energy  :   -42.1879983 Eh     change       -0.3041242E-01 Eh
 * total energy  :   -42.1905509 Eh     change       -0.2552615E-02 Eh
 * total energy  :   -42.1915549 Eh     change       -0.1003973E-02 Eh
 * total energy  :   -42.1919964 Eh     change       -0.4415063E-03 Eh
 * total energy  :   -42.1928706 Eh     change       -0.8741772E-03 Eh
 * total energy  :   -42.1937796 Eh     change       -0.9089931E-03 Eh
 * total energy  :   -42.1947462 Eh     change       -0.9666435E-03 Eh
 * total energy  :   -42.1952968 Eh     change       -0.5506359E-03 Eh
 * total energy  :   -42.1955536 Eh     change       -0.2568164E-03 Eh
 * total energy  :   -42.1956733 Eh     change       -0.1197011E-03 Eh
 * total energy  :   -42.1957840 Eh     change       -0.1106900E-03 Eh
 * total energy  :   -42.1959309 Eh     change       -0.1468223E-03 Eh
 * total energy  :   -42.1960783 Eh     change       -0.1474054E-03 Eh
   *** GEOMETRY OPTIMIZATION CONVERGED AFTER 15 ITERATIONS ***

 final structure:
================
25
 xtb: 6.6.1 (8d0f1dd)
C            3.21060592886768        0.93793259638922       -0.08990926760058
N            2.29317233983498       -0.02619923162216       -0.03446129920369
C            2.52665201353993       -1.37202827286436        0.01632138139338
N            1.33041334822569       -2.04056863745272        0.06522891269700
C            0.33430025157454       -1.14049853243381        0.04598626147792
C            0.90474068149775        0.14686522900898       -0.01820093313626
C            0.07632470080988        1.24516930232510       -0.05042401507821
O            2.80300090137267        2.22021242024717       -0.14349087091669
N           -1.27279753296992        1.02210452989886       -0.01699857340573
C           -2.15827330840779        2.17082026555579       -0.06939664352679
C           -1.87426138965998       -0.23091221698648        0.04294924468846
O           -3.06539862258988       -0.37954456471891        0.06686987505848
N           -1.00747986504987       -1.33492650394198        0.07828424984381
C           -1.56282913204038       -2.67025939030401        0.14403240515058
H            4.25164736242190        0.66187605865486       -0.09749672959427
H            3.53244259285295        2.84371021932330       -0.17246493787949
H            0.41162501642685        2.26508979450066       -0.09986984429882
H            3.49183529406591       -1.82463290485209        0.02133884590371
H           -1.86669073164839        2.90177084285321        0.68382719341407
H           -2.12018437347538        2.63322536092340       -1.05752304781580
H           -3.17524079837339        1.83281504085264        0.12403233840554
H           -1.23086340419731       -3.17476968271603        1.05215172356116
H           -1.26907110722274       -3.24795319843932       -0.73348549285475
H           -2.64759026219467       -2.57731956005423        0.16295071297116
H            1.24435161043880       -3.04374042254699        0.11092012864510

          :  Hamiltonian                  GFN2-xTB          :
         :: total energy             -42.196078269076 Eh    ::
         :: gradient norm              0.009598570009 Eh/a0 ::
         :: HOMO-LUMO gap              1.169597502338 eV    ::
         :: SCC energy               -42.718406415076 Eh    ::
         :: -> dispersion             -0.022582103218 Eh    ::
         :: repulsion energy           0.522234412884 Eh    ::

    * Orbital Energies and Occupations

         #    Occupation            Energy/Eh            Energy/eV
      -------------------------------------------------------------
         1        2.0000           -0.8795953             -23.9350
       ...           ...                  ...                  ...
        25        2.0000           -0.6638140             -18.0633
        26        2.0000           -0.6554559             -17.8359
        27        2.0000           -0.6393689             -17.3981
        28        2.0000           -0.6370781             -17.3358
        29        2.0000           -0.6366247             -17.3234
        30        2.0000           -0.6223595             -16.9353
        31        1.9999           -0.6103049             -16.6072
        32        1.9999           -0.6099359             -16.5972
        33        1.9998           -0.5999484             -16.3254
        34        1.9995           -0.5816450             -15.8274
        35        1.9981           -0.5596330             -15.2284
        36        1.9946           -0.5434181             -14.7872
        37        1.5841           -0.4709862             -12.8162 (HOMO)
        38        0.4030           -0.4280043             -11.6466 (LUMO)
        39        0.0179           -0.3752941             -10.2123
        40        0.0032           -0.3477069              -9.4616
        41        0.0000           -0.2798073              -7.6139
        42        0.0000           -0.1909830              -5.1969
        43                         -0.1689130              -4.5964
        44                         -0.1230507              -3.3484
        45                         -0.1121518              -3.0518
        46                         -0.0960001              -2.6123
        47                         -0.0551160              -1.4998
        48                         -0.0254452              -0.6924
       ...                                ...                  ...
        67                          0.5474186              14.8960
      -------------------------------------------------------------
                  HL-Gap            0.0429819 Eh            1.1696 eV

     #   Z          covCN         q      C6AA      α(0)
     1   6 C        2.714     0.100    25.763     8.309
     2   7 N        2.800     0.070    20.019     6.645
     3   6 C        3.014    -0.016    28.381     8.739
     4   7 N        2.764    -0.059    22.384     7.027
     5   6 C        3.024     0.100    25.766     8.326
     6   6 C        3.070     0.018    27.541     8.605
     7   6 C        2.855    -0.003    28.084     8.686
     8   8 O        1.660    -0.337    19.669     5.987
     9   7 N        2.745    -0.026    21.741     6.925
    10   6 C        3.706    -0.075    22.085     6.718
    11   6 C        2.722     0.313    21.678     7.622
    12   8 O        0.859    -0.378    21.244     6.180
    13   7 N        2.737    -0.057    22.343     7.020
    14   6 C        3.698    -0.070    22.009     6.710
    15   1 H        0.926     0.073     2.053     2.240
    16   1 H        0.805     0.345     0.601     1.217
    17   1 H        0.926     0.112     1.681     2.027
    18   1 H        0.927     0.097     1.809     2.103
    19   1 H        0.925     0.088     1.897     2.154
    20   1 H        0.924     0.089     1.885     2.147
    21   1 H        0.925     0.117     1.637     2.001
    22   1 H        0.924     0.079     1.991     2.207
    23   1 H        0.924     0.079     1.991     2.206
    24   1 H        0.925     0.122     1.596     1.975
    25   1 H        0.860     0.217     1.022     1.583

Wiberg/Mayer (AO) data.
largest (>0.10) Wiberg bond orders for each atom

     #   Z sym  total        # sym  WBO       # sym  WBO       # sym  WBO
 ---------------------------------------------------------------------------
     1   6 C    3.581 --     2 N    1.283     8 O    1.123    15 H    0.957
                             3 C    0.119
     2   7 N    3.694 --     1 C    1.283     3 C    1.190     6 C    1.059
     3   6 C    3.626 --     2 N    1.190     4 N    1.185    18 H    0.962
                             1 C    0.119
     4   7 N    3.545 --     5 C    1.253     3 C    1.185    25 H    0.924
     5   6 C    3.844 --     4 N    1.253     6 C    1.222    13 N    1.174
     6   6 C    3.909 --     7 C    1.398     5 C    1.222     2 N    1.059
     7   6 C    3.698 --     6 C    1.398     9 N    1.204    17 H    0.953
     8   8 O    2.109 --     1 C    1.123    16 H    0.865
     9   7 N    3.528 --     7 C    1.204    11 C    1.101    10 C    0.980
                            12 O    0.128
    10   6 C    3.928 --     9 N    0.980    19 H    0.971    21 H    0.967
                            20 H    0.966
    11   6 C    3.947 --    12 O    1.693     9 N    1.101    13 N    1.059
    12   8 O    2.049 --    11 C    1.693    13 N    0.130     9 N    0.128
    13   7 N    3.488 --     5 C    1.174    11 C    1.059    14 C    0.980
                            12 O    0.130
    14   6 C    3.932 --    13 N    0.980    22 H    0.971    23 H    0.970
                            24 H    0.966
    15   1 H    0.994 --     1 C    0.957
    16   1 H    0.881 --     8 O    0.865
    17   1 H    0.986 --     7 C    0.953
    18   1 H    0.990 --     3 C    0.962
    19   1 H    0.987 --    10 C    0.971
    20   1 H    0.984 --    10 C    0.966
    21   1 H    0.985 --    10 C    0.967
    22   1 H    0.989 --    14 C    0.971
    23   1 H    0.989 --    14 C    0.970
    24   1 H    0.985 --    14 C    0.966
    25   1 H    0.952 --     4 N    0.924
 ---------------------------------------------------------------------------

molecular dipole:
                 x           y           z       tot (Debye)
 q only:        2.528      -0.297      -0.018
   full:        3.132      -0.412      -0.028       8.030

           -------------------------------------------------
          | TOTAL ENERGY              -42.196078269076 Eh   |
          | GRADIENT NORM               0.009598570009 Eh/α |
          | HOMO-LUMO GAP               1.169597502338 eV   |
           -------------------------------------------------

 * finished run on 2024/06/05 at 19:58:12.979
