   * xtb version 6.6.1 (8d0f1dd) compiled by 'conda@1efc2f54142f' on 2023-08-01
          program call               : xtb struc.xyz --opt loose --input .xc1 --gfn2

   ID    Z sym.   atoms
    1    7 N      1, 17
    2    6 C      2-6, 8, 9, 11-16, 18-23, 25, 26, 28-33
    3    8 O      7, 10, 24, 27
    4    1 H      34-72
constraining bond 6 36 to    3.7133300 Å, actual value:    3.2429655 Å

          :  Hamiltonian                  GFN2-xTB          :
 * total energy  :   -99.4436345 Eh     change       -0.4035485E-08 Eh
 * total energy  :   -99.5215257 Eh     change       -0.7789113E-01 Eh
 * total energy  :   -99.5899606 Eh     change       -0.6843497E-01 Eh
 * total energy  :   -99.6273988 Eh     change       -0.3743820E-01 Eh
 * total energy  :   -99.7063915 Eh     change       -0.7899271E-01 Eh
 * total energy  :   -99.8417142 Eh     change       -0.1353227E+00 Eh
 * total energy  :  -100.0560556 Eh     change       -0.2143414E+00 Eh
 * total energy  :  -100.3313811 Eh     change       -0.2753255E+00 Eh
 * total energy  :  -100.2667097 Eh     change        0.6467145E-01 Eh
 * total energy  :  -100.4341631 Eh     change       -0.1674534E+00 Eh
 * total energy  :  -100.7448924 Eh     change       -0.7484961E-04 Eh
 * total energy  :  -100.7449555 Eh     change       -0.6318311E-04 Eh
 * total energy  :  -100.7450298 Eh     change       -0.7423763E-04 Eh
 * total energy  :  -100.7450919 Eh     change       -0.6213203E-04 Eh
 * total energy  :  -100.7451506 Eh     change       -0.5869893E-04 Eh
 * total energy  :  -100.7452001 Eh     change       -0.4949144E-04 Eh
 * total energy  :  -100.7452442 Eh     change       -0.4406603E-04 Eh
 * total energy  :  -100.7452801 Eh     change       -0.3595848E-04 Eh
 * total energy  :  -100.7453051 Eh     change       -0.2494420E-04 Eh
   *** GEOMETRY OPTIMIZATION CONVERGED AFTER 94 ITERATIONS ***

 final structure:
================
72
 xtb: 6.6.1 (8d0f1dd)
N           -1.74410753448623        2.55803489844420        2.05500500525996
C           -1.97914159299203        1.69722837405925        1.17725264078084
C           -3.09262906343834        1.80532482909907        0.17019272893625
C           -3.85288381016933        0.48683900682936        0.13247189707545
C           -4.71302204246981        0.23262862176218       -1.01223567425999
C           -3.54369023206230       -2.77864601167155       -0.71212451473492
O           -2.76938768833345       -1.86895130036778       -1.06758159728464
C           -5.94496157977407       -0.26314343230423       -0.92426845246274
C           -4.37219868515669       -2.67612112168126        0.48933752844312
O           -5.02080705122235       -3.85622329103948        0.68769748685298
C           -5.91045208957918       -3.98974250863356        1.77021342082466
C           -4.39744833746604       -1.63004988332049        1.37488194854879
C           -3.82419071733189       -0.33151522550496        1.21625766343286
C           -2.39994195647284        2.09927860388070       -1.18682394339826
C           -1.54379494005823        0.94147220752486       -1.70862182470248
C           -0.20180307182362        0.89963211446904       -1.09962799341055
N            0.59304651975486       -0.14551595046194       -1.12236943271210
C            1.93110780178492       -0.07879357998260       -0.58299508941793
C            2.99752708612494       -0.09167306018539       -1.69394757424391
C            4.36370364154320        0.09590873779612       -1.09534760131742
C            4.99147954507585        1.32987760771114       -1.12792502591860
C            6.24535482083792        1.50325610752562       -0.56225355875127
C            6.89294864127628        0.44482329996243        0.05878488362071
O            8.10705527976951        0.49709743909669        0.63495981841740
C            8.83969233838386        1.70012340671361        0.58751739873436
C            6.25000507036127       -0.82403277310629        0.10880508816469
O            6.94448124402414       -1.79386398377511        0.73506594087068
C            6.39969148238947       -3.08903657498349        0.81944878642058
C            4.99984494118412       -0.97441119249816       -0.46961953580824
C            0.21809914906504       -1.37466457808870       -1.77665549496311
C           -4.12585462040674        2.93594812624246        0.47050448526913
C           -4.80275408585314        2.74231883555412        1.82515102052404
C           -3.52637186836273        4.33895802480596        0.40427498273800
H           -4.34366571680336        0.52213354647219       -1.98528788494662
H           -6.39456780798703       -0.51393238459252        0.02142914889137
H           -3.59123954371746       -3.46453081953127       -1.09383632962095
H           -6.55176610055924       -0.41650868170032       -1.79961135918398
H           -6.64756894150624       -3.18146322789906        1.78584241171835
H           -6.41628236625467       -4.94171858968005        1.61952860639512
H           -5.37563126545857       -4.01527122567729        2.72543688186750
H           -4.81250159134305       -1.81636742244687        2.35829045184675
H           -3.35782920666012        0.05082340643116        2.11918752962354
H           -3.17076462358363        2.33977616992352       -1.91809332444707
H           -1.77618871182749        2.98595379319105       -1.06843212273785
H           -2.06332734797101       -0.00777840702529       -1.55208963943942
H           -1.42439122323723        1.05062371282561       -2.79441308903493
H           -1.36772741551055        0.79087914278807        1.02826707938862
H            0.18779921779031        1.79727746656966       -0.64031432807286
H            2.08922961093123       -0.93302970472206        0.08170017816226
H            2.04132965713351        0.83605462798835        0.00295020953344
H            2.78716207503960        0.71634479626357       -2.39629462567224
H            2.95544822754492       -1.03870888673962       -2.23370835486884
H            4.51154492764999        2.16816219569534       -1.60934193477602
H            6.71304760491214        2.47260419803293       -0.61304655250211
H            8.32637845365171        2.50351403920601        1.12464552514579
H            9.02889873302651        2.01217957544782       -0.44388931627330
H            9.78624610368104        1.48502766608975        1.07941780142261
H            7.14423368112509       -3.68545686105948        1.34300942309555
H            5.46583262138381       -3.09476696666643        1.39099288240039
H            6.22569240865066       -3.51750981074387       -0.17234425978857
H            4.51169087927048       -1.93627038966204       -0.45163502829145
H            0.26605011694806       -1.26365157930553       -2.86199356963734
H           -0.80275249317767       -1.65847127926803       -1.51189062208740
H            0.89436351903782       -2.16960972244561       -1.47286505375716
H           -4.89602056530931        2.85139205451469       -0.30657530602823
H           -4.07146611009026        2.82160268985653        2.62410730366196
H           -5.29821441429450        1.77702906788507        1.88620568058226
H           -5.55225088919904        3.51580417405170        1.96970257780315
H           -2.68558896605033        4.41840628537190        1.08628265716392
H           -3.20666510210384        4.60066363766227       -0.60046975120110
H           -4.28037460120521        5.06099030286222        0.70661909913690
H           -0.95024383100852        2.39957715869643        2.66835643559146

          :  Hamiltonian                  GFN2-xTB          :
         :: total energy            -100.745305063012 Eh    ::
         :: gradient norm              0.002434186907 Eh/a0 ::
         :: HOMO-LUMO gap              1.611602984046 eV    ::
         :: SCC energy              -100.744929817622 Eh    ::
         :: -> dispersion             -0.075945312216 Eh    ::
         :: repulsion energy           1.528029764008 Eh    ::

    * Orbital Energies and Occupations

         #    Occupation            Energy/Eh            Energy/eV
      -------------------------------------------------------------
         1        2.0000           -0.8103462             -22.0506
       ...           ...                  ...                  ...
        78        1.9980           -0.5300564             -14.4236
        79        1.9979           -0.5286521             -14.3854
        80        1.9967           -0.5215690             -14.1926
        81        1.9965           -0.5208637             -14.1734
        82        1.9951           -0.5154438             -14.0259
        83        1.9938           -0.5117458             -13.9253
        84        1.9929           -0.5094825             -13.8637
        85        1.9856           -0.4982997             -13.5594
        86        1.9759           -0.4900971             -13.3362
        87        1.9710           -0.4870954             -13.2545
        88        1.9224           -0.4711178             -12.8198
        89        1.8298           -0.4579047             -12.4602
        90        1.7835           -0.4536885             -12.3455 (HOMO)
        91        0.3272           -0.3944632             -10.7339 (LUMO)
        92        0.2234           -0.3874687             -10.5436
        93        0.0108           -0.3377033              -9.1894
        94        0.0064           -0.3293497              -8.9621
        95        0.0025           -0.3145038              -8.5581
        96        0.0021           -0.3115699              -8.4782
        97        0.0002           -0.2720518              -7.4029
        98        0.0000           -0.2356976              -6.4137
        99        0.0000           -0.1892572              -5.1499
       100                         -0.1311649              -3.5692
       101                         -0.0697200              -1.8972
       ...                                ...                  ...
       171                          1.1483176              31.2473
      -------------------------------------------------------------
                  HL-Gap            0.0592253 Eh            1.6116 eV

     #   Z          covCN         q      C6AA      α(0)
     1   7 N        1.774    -0.277    27.994     7.835
     2   6 C        2.828     0.101    25.764     8.317
     3   6 C        3.909     0.006    20.423     6.423
     4   6 C        2.959     0.023    27.497     8.601
     5   6 C        2.894    -0.021    28.539     8.759
     6   6 C        2.770     0.161    24.509     8.108
     7   8 O        0.856    -0.434    22.379     6.342
     8   6 C        2.840    -0.079    29.953     8.969
     9   6 C        2.834     0.108    25.600     8.291
    10   8 O        1.707    -0.253    18.192     5.759
    11   6 C        3.641     0.029    20.432     6.500
    12   6 C        2.891    -0.049    29.208     8.861
    13   6 C        2.900    -0.030    28.740     8.790
    14   6 C        3.814    -0.065    21.744     6.637
    15   6 C        3.803    -0.085    22.115     6.695
    16   6 C        2.848     0.020    27.549     8.602
    17   7 N        2.730     0.037    20.603     6.741
    18   6 C        3.758    -0.020    20.976     6.530
    19   6 C        3.808    -0.071    21.853     6.655
    20   6 C        2.969     0.001    28.009     8.681
    21   6 C        2.922    -0.048    29.182     8.859
    22   6 C        2.914    -0.067    29.666     8.931
    23   6 C        2.865     0.134    25.064     8.206
    24   8 O        1.706    -0.220    17.648     5.672
    25   6 C        3.645     0.024    20.501     6.507
    26   6 C        2.863     0.134    25.074     8.208
    27   8 O        1.706    -0.223    17.700     5.680
    28   6 C        3.645     0.027    20.462     6.502
    29   6 C        2.919    -0.080    29.998     8.982
    30   6 C        3.703    -0.090    22.385     6.765
    31   6 C        3.853    -0.007    20.664     6.465
    32   6 C        3.756    -0.116    22.783     6.806
    33   6 C        3.755    -0.121    22.882     6.821
    34   1 H        0.926     0.058     2.223     2.331
    35   1 H        0.926     0.049     2.338     2.391
    36   1 H        0.930     0.091     1.870     2.138
    37   1 H        0.926     0.058     2.221     2.331
    38   1 H        0.924     0.052     2.294     2.368
    39   1 H        0.925     0.080     1.975     2.198
    40   1 H        0.924     0.054     2.273     2.357
    41   1 H        0.925     0.061     2.186     2.312
    42   1 H        0.925     0.051     2.307     2.375
    43   1 H        0.925     0.064     2.149     2.292
    44   1 H        0.924     0.057     2.237     2.339
    45   1 H        0.924     0.127     1.560     1.953
    46   1 H        0.924     0.087     1.910     2.161
    47   1 H        0.923     0.008     2.919     2.672
    48   1 H        0.926     0.074     2.047     2.237
    49   1 H        0.924     0.072     2.060     2.245
    50   1 H        0.924     0.067     2.115     2.274
    51   1 H        0.924     0.056     2.246     2.344
    52   1 H        0.924     0.061     2.190     2.314
    53   1 H        0.926     0.048     2.340     2.392
    54   1 H        0.926     0.060     2.197     2.318
    55   1 H        0.924     0.056     2.252     2.347
    56   1 H        0.924     0.057     2.235     2.338
    57   1 H        0.925     0.083     1.945     2.181
    58   1 H        0.925     0.083     1.951     2.184
    59   1 H        0.924     0.049     2.330     2.387
    60   1 H        0.924     0.053     2.278     2.360
    61   1 H        0.926     0.047     2.352     2.398
    62   1 H        0.924     0.083     1.953     2.186
    63   1 H        0.924     0.125     1.577     1.964
    64   1 H        0.925     0.079     1.985     2.204
    65   1 H        0.924     0.039     2.466     2.456
    66   1 H        0.925     0.061     2.190     2.314
    67   1 H        0.925     0.035     2.517     2.481
    68   1 H        0.925     0.052     2.290     2.366
    69   1 H        0.925     0.068     2.108     2.270
    70   1 H        0.925     0.037     2.486     2.466
    71   1 H        0.925     0.056     2.251     2.346
    72   1 H        0.860     0.153     1.379     1.840

Wiberg/Mayer (AO) data.
largest (>0.10) Wiberg bond orders for each atom

     #   Z sym  total        # sym  WBO       # sym  WBO       # sym  WBO
 ---------------------------------------------------------------------------
     1   7 N    3.013 --     2 C    1.944    72 H    0.943
     2   6 C    3.936 --     1 N    1.944     3 C    0.992    47 H    0.922
     3   6 C    3.971 --     2 C    0.992     4 C    0.973    14 C    0.950
                            31 C    0.938
     4   6 C    3.861 --    13 C    1.622     5 C    1.099     3 C    0.973
     5   6 C    3.965 --     8 C    1.866     4 C    1.099    34 H    0.948
     6   6 C    3.815 --     7 O    1.654     9 C    1.106    36 H    0.968
     7   8 O    1.856 --     6 C    1.654
     8   6 C    3.911 --     5 C    1.866    37 H    0.975    35 H    0.972
     9   6 C    3.835 --    12 C    1.497     6 C    1.106    10 O    1.077
    10   8 O    2.213 --     9 C    1.077    11 C    0.979
    11   6 C    3.931 --    10 O    0.979    39 H    0.976    38 H    0.973
                            40 H    0.969
    12   6 C    3.850 --     9 C    1.497    13 C    1.198    41 H    0.945
    13   6 C    3.923 --     4 C    1.622    12 C    1.198    42 H    0.940
    14   6 C    3.982 --    15 C    1.000    44 H    0.969    43 H    0.966
                             3 C    0.950
    15   6 C    3.978 --    16 C    1.073    14 C    1.000    46 H    0.918
                            45 H    0.913
    16   6 C    3.670 --    17 N    1.477    15 C    1.073    48 H    0.954
    17   7 N    3.549 --    16 C    1.477    30 C    0.995    18 C    0.987
    18   6 C    3.955 --    17 N    0.987    19 C    0.969    50 H    0.969
                            49 H    0.960
    19   6 C    3.980 --    20 C    1.008    51 H    0.974    18 C    0.969
                            52 H    0.968
    20   6 C    3.941 --    21 C    1.410    29 C    1.378    19 C    1.008
    21   6 C    3.947 --    22 C    1.415    20 C    1.410    53 H    0.967
    22   6 C    3.957 --    21 C    1.415    23 C    1.383    54 H    0.963
    23   6 C    3.892 --    22 C    1.383    26 C    1.216    24 O    1.113
    24   8 O    2.255 --    23 C    1.113    25 C    0.975
    25   6 C    3.927 --    57 H    0.977    24 O    0.975    56 H    0.972
                            55 H    0.972
    26   6 C    3.896 --    29 C    1.396    23 C    1.216    27 O    1.106
    27   8 O    2.254 --    26 C    1.106    28 C    0.978
    28   6 C    3.931 --    27 O    0.978    58 H    0.977    59 H    0.973
                            60 H    0.973
    29   6 C    3.957 --    26 C    1.396    20 C    1.378    61 H    0.962
    30   6 C    3.939 --    17 N    0.995    64 H    0.978    62 H    0.960
                            63 H    0.937
    31   6 C    3.968 --    32 C    1.009    33 C    1.007    65 H    0.961
                             3 C    0.938
    32   6 C    3.981 --    31 C    1.009    67 H    0.981    68 H    0.981
                            66 H    0.977
    33   6 C    3.977 --    31 C    1.007    70 H    0.982    71 H    0.978
                            69 H    0.973
    34   1 H    0.990 --     5 C    0.948
    35   1 H    0.996 --     8 C    0.972
    36   1 H    0.986 --     6 C    0.968
    37   1 H    0.995 --     8 C    0.975
    38   1 H    0.993 --    11 C    0.973
    39   1 H    0.992 --    11 C    0.976
    40   1 H    0.989 --    11 C    0.969
    41   1 H    0.989 --    12 C    0.945
    42   1 H    0.990 --    13 C    0.940
    43   1 H    0.994 --    14 C    0.966
    44   1 H    0.995 --    14 C    0.969
    45   1 H    0.975 --    15 C    0.913
    46   1 H    0.972 --    15 C    0.918
    47   1 H    0.984 --     2 C    0.922
    48   1 H    0.994 --    16 C    0.954
    49   1 H    0.990 --    18 C    0.960
    50   1 H    0.995 --    18 C    0.969
    51   1 H    0.996 --    19 C    0.974
    52   1 H    0.994 --    19 C    0.968
    53   1 H    0.997 --    21 C    0.967
    54   1 H    0.995 --    22 C    0.963
    55   1 H    0.991 --    25 C    0.972
    56   1 H    0.991 --    25 C    0.972
    57   1 H    0.992 --    25 C    0.977
    58   1 H    0.992 --    28 C    0.977
    59   1 H    0.993 --    28 C    0.973
    60   1 H    0.992 --    28 C    0.973
    61   1 H    0.996 --    29 C    0.962
    62   1 H    0.984 --    30 C    0.960
    63   1 H    0.980 --    30 C    0.937
    64   1 H    0.993 --    30 C    0.978
    65   1 H    0.991 --    31 C    0.961
    66   1 H    0.992 --    32 C    0.977
    67   1 H    0.997 --    32 C    0.981
    68   1 H    0.994 --    32 C    0.981
    69   1 H    0.991 --    33 C    0.973
    70   1 H    0.996 --    33 C    0.982
    71   1 H    0.992 --    33 C    0.978
    72   1 H    0.970 --     1 N    0.943
 ---------------------------------------------------------------------------

molecular dipole:
                 x           y           z       tot (Debye)
 q only:        0.769       0.097      -0.549
   full:        0.727      -0.330      -0.478       2.366

           -------------------------------------------------
          | TOTAL ENERGY             -100.745305063012 Eh   |
          | GRADIENT NORM               0.002434186907 Eh/α |
          | HOMO-LUMO GAP               1.611602984046 eV   |
           -------------------------------------------------

 * finished run on 2024/04/06 at 11:16:08.871
