   * xtb version 6.6.1 (8d0f1dd) compiled by 'conda@1efc2f54142f' on 2023-08-01
          program call               : xtb xtbopt.xyz --opt crude --input .xc2 --gfn2

   ID    Z sym.   atoms
    1    7 N      1, 17
    2    6 C      2-6, 8, 9, 11-16, 18-23, 25, 26, 28-33
    3    8 O      7, 10, 24, 27
    4    1 H      34-72
########################################################################
[WARNING] Please study the warnings concerning your input carefully
-1- readin_getIntValue: could not parse ''
########################################################################

          :  Hamiltonian                  GFN2-xTB          :
 * total energy  :   -99.2156395 Eh     change       -0.9947598E-12 Eh
 * total energy  :   -99.3253381 Eh     change       -0.1096986E+00 Eh
 * total energy  :   -99.3268948 Eh     change       -0.1556708E-02 Eh
 * total energy  :   -99.3278886 Eh     change       -0.9937708E-03 Eh
 * total energy  :   -99.3279674 Eh     change       -0.7876374E-04 Eh
   *** GEOMETRY OPTIMIZATION CONVERGED AFTER 5 ITERATIONS ***

 final structure:
================
72
 xtb: 6.6.1 (8d0f1dd)
N           -1.74442662820115        2.56512199111950        2.05507844586984
C           -1.97833468580027        1.70170159361739        1.18007085046907
C           -3.09116958119624        1.80719090279979        0.17142494195056
C           -3.85180076550840        0.48874043170971        0.13733809530118
C           -4.71321268554280        0.23494522422180       -1.00771441851029
C           -3.55115574754516       -2.73538375714341       -0.67984923952179
O           -2.77113898136154       -1.87945240634546       -1.08155938334668
C           -5.94682301595630       -0.25572917734077       -0.92055901719076
C           -4.37770501126061       -2.66900281772328        0.50426286660774
O           -5.02278339442563       -3.84886508212746        0.69602949140266
C           -5.91681899535999       -3.98487981092650        1.77499312161892
C           -4.40838387658227       -1.62005992095965        1.38859640088247
C           -3.82870933590808       -0.32370239556461        1.22529960948565
C           -2.39874234079815        2.10015677683639       -1.18589354188275
C           -1.53988613290861        0.94441974740071       -1.70868767027758
C           -0.19909947699416        0.90033415171843       -1.09665192510094
N            0.59606449753033       -0.14522096624522       -1.12096169016647
C            1.93403546151173       -0.07936697455306       -0.58146750621477
C            3.00015393506042       -0.08704840466319       -1.69272202642345
C            4.36682579691106        0.09838783840912       -1.09443661853357
C            4.99487836765467        1.33228370192869       -1.12551942064027
C            6.24953772993995        1.50456127774954       -0.56129675604205
C            6.89782247897439        0.44497310806479        0.05688450696031
O            8.11259735602453        0.49578423469876        0.63176066745709
C            8.84268722169373        1.70061427649162        0.59165435468216
C            6.25493401367832       -0.82406523554574        0.10509729421211
O            6.95066715415483       -1.79480284087251        0.72830167425960
C            6.40552229357596       -3.08988145637910        0.81305436429862
C            5.00393240064051       -0.97326506574295       -0.47190261273989
C            0.22278493892440       -1.37265288883124       -1.77964731425634
C           -4.12622729669570        2.93665274276298        0.47000234973036
C           -4.80321005266651        2.74409121310703        1.82485254094559
C           -3.52994751861181        4.34104293175557        0.40246080515997
H           -4.34140838847848        0.52260141505310       -1.98064168175854
H           -6.39603291326996       -0.50445745580458        0.02618887001456
H           -3.62954320191692       -3.69937049328141       -1.20186292587516
H           -6.55554670405280       -0.40645788756468       -1.79470816904586
H           -6.66140445349564       -3.18359407048805        1.78176274962314
H           -6.41266646160692       -4.94224604720047        1.62573844558898
H           -5.38755991430716       -4.00073738433279        2.73307264604325
H           -4.83216149306858       -1.79925630206140        2.36980328976611
H           -3.36107239792775        0.06159435358702        2.12648745611029
H           -3.16991963842726        2.33822347809620       -1.91773211995515
H           -1.77696844583102        2.98842568480565       -1.06890310175268
H           -2.05939574941103       -0.00561989160123       -1.55886269433761
H           -1.41726295807648        1.05876303681863       -2.79372273817249
H           -1.36543778891772        0.79590328844387        1.03280495174785
H            0.19035059376368        1.79683590908160       -0.63507168993500
H            2.09306460476330       -0.93606879047469        0.07979049487743
H            2.04345655023327        0.83324166895680        0.00796334820036
H            2.78951977518726        0.72417846782511       -2.39118925926709
H            2.95813168628728       -1.03146727973509       -2.23683390384746
H            4.51447083288955        2.17151732032426       -1.60479982850528
H            6.71739239697386        2.47388613019436       -0.61137136483295
H            8.32511410344675        2.50089601377942        1.12924177031554
H            9.03585028984022        2.01660411254937       -0.43776779194129
H            9.78754441410404        1.48590647358975        1.08700808564569
H            7.14861395450265       -3.68567760181008        1.33942300439717
H            5.47015062660758       -3.09474978161408        1.38200188864457
H            6.23433174333089       -3.51952983424858       -0.17874243493715
H            4.51587864471692       -1.93524183093601       -0.45539213431869
H            0.26483075077129       -1.25658334689195       -2.86448155891077
H           -0.79488609213651       -1.66337128902341       -1.51203538069499
H            0.90339332935215       -2.16626591482247       -1.48291383398955
H           -4.89601679782062        2.84968188048183       -0.30729419988811
H           -4.07254689221390        2.82881830468166        2.62390234218632
H           -5.29485266072310        1.77695264946820        1.88881924728546
H           -5.55614701049669        3.51470419356688        1.96676785152457
H           -2.69050137694573        4.42365668504888        1.08574745226433
H           -3.20950575294057        4.60229701442893       -0.60211106745014
H           -4.28649889751768        5.06127197185916        0.70276031412575
H           -0.95111083310393        2.41125172835502        2.67012527320027

          :  Hamiltonian                  GFN2-xTB          :
         :: total energy             -99.327967353997 Eh    ::
         :: gradient norm              0.002434163003 Eh/a0 ::
         :: HOMO-LUMO gap              1.651281962620 eV    ::
         :: SCC energy              -100.724902092672 Eh    ::
         :: -> dispersion             -0.075907548256 Eh    ::
         :: repulsion energy           1.395685191032 Eh    ::

    * Orbital Energies and Occupations

         #    Occupation            Energy/Eh            Energy/eV
      -------------------------------------------------------------
         1        2.0000           -0.8107635             -22.0620
       ...           ...                  ...                  ...
        78        1.9981           -0.5301647             -14.4265
        79        1.9979           -0.5289936             -14.3946
        80        1.9967           -0.5216404             -14.1946
        81        1.9966           -0.5212309             -14.1834
        82        1.9952           -0.5158190             -14.0361
        83        1.9939           -0.5120390             -13.9333
        84        1.9930           -0.5097941             -13.8722
        85        1.9861           -0.4988589             -13.5746
        86        1.9759           -0.4901320             -13.3372
        87        1.9723           -0.4878768             -13.2758
        88        1.9234           -0.4713672             -12.8266
        89        1.8298           -0.4579306             -12.4609
        90        1.7977           -0.4549168             -12.3789 (HOMO)
        91        0.3228           -0.3942333             -10.7276 (LUMO)
        92        0.2106           -0.3864453             -10.5157
        93        0.0109           -0.3379313              -9.1956
        94        0.0060           -0.3283843              -8.9358
        95        0.0025           -0.3145309              -8.5588
        96        0.0021           -0.3116055              -8.4792
        97        0.0001           -0.2698416              -7.3428
        98        0.0000           -0.2344043              -6.3785
        99        0.0000           -0.1892874              -5.1508
       100                         -0.1315442              -3.5795
       101                         -0.0701403              -1.9086
       ...                                ...                  ...
       171                          0.5812569              15.8168
      -------------------------------------------------------------
                  HL-Gap            0.0606835 Eh            1.6513 eV

     #   Z          covCN         q      C6AA      α(0)
     1   7 N        1.774    -0.277    27.995     7.835
     2   6 C        2.828     0.101    25.762     8.317
     3   6 C        3.909     0.006    20.421     6.423
     4   6 C        2.959     0.021    27.530     8.606
     5   6 C        2.894    -0.022    28.563     8.763
     6   6 C        2.765     0.184    24.053     8.032
     7   8 O        0.856    -0.408    21.845     6.266
     8   6 C        2.840    -0.079    29.955     8.969
     9   6 C        2.836     0.113    25.504     8.276
    10   8 O        1.707    -0.249    18.124     5.748
    11   6 C        3.642     0.029    20.437     6.500
    12   6 C        2.893    -0.049    29.219     8.863
    13   6 C        2.900    -0.031    28.781     8.796
    14   6 C        3.814    -0.065    21.743     6.637
    15   6 C        3.803    -0.084    22.098     6.692
    16   6 C        2.848     0.019    27.567     8.605
    17   7 N        2.730     0.036    20.618     6.744
    18   6 C        3.758    -0.020    20.973     6.529
    19   6 C        3.808    -0.071    21.854     6.655
    20   6 C        2.969     0.001    28.009     8.681
    21   6 C        2.922    -0.048    29.182     8.859
    22   6 C        2.914    -0.067    29.666     8.931
    23   6 C        2.865     0.134    25.064     8.206
    24   8 O        1.706    -0.220    17.647     5.672
    25   6 C        3.645     0.024    20.501     6.507
    26   6 C        2.863     0.134    25.074     8.208
    27   8 O        1.706    -0.223    17.699     5.680
    28   6 C        3.645     0.027    20.463     6.502
    29   6 C        2.919    -0.080    29.998     8.982
    30   6 C        3.703    -0.090    22.374     6.763
    31   6 C        3.853    -0.007    20.664     6.465
    32   6 C        3.756    -0.116    22.782     6.806
    33   6 C        3.755    -0.121    22.881     6.820
    34   1 H        0.926     0.057     2.232     2.336
    35   1 H        0.926     0.048     2.345     2.394
    36   1 H        0.923     0.042     2.420     2.433
    37   1 H        0.926     0.058     2.220     2.330
    38   1 H        0.924     0.053     2.284     2.364
    39   1 H        0.925     0.082     1.963     2.191
    40   1 H        0.924     0.055     2.264     2.353
    41   1 H        0.925     0.061     2.182     2.310
    42   1 H        0.925     0.051     2.310     2.377
    43   1 H        0.925     0.064     2.150     2.293
    44   1 H        0.924     0.057     2.237     2.339
    45   1 H        0.924     0.124     1.581     1.966
    46   1 H        0.924     0.087     1.913     2.163
    47   1 H        0.923     0.007     2.935     2.679
    48   1 H        0.926     0.073     2.049     2.238
    49   1 H        0.924     0.072     2.062     2.246
    50   1 H        0.924     0.067     2.115     2.275
    51   1 H        0.924     0.056     2.246     2.344
    52   1 H        0.924     0.061     2.190     2.314
    53   1 H        0.926     0.048     2.341     2.392
    54   1 H        0.926     0.060     2.198     2.318
    55   1 H        0.924     0.056     2.252     2.347
    56   1 H        0.924     0.057     2.234     2.337
    57   1 H        0.925     0.083     1.945     2.181
    58   1 H        0.925     0.083     1.951     2.184
    59   1 H        0.924     0.049     2.331     2.388
    60   1 H        0.924     0.053     2.277     2.360
    61   1 H        0.926     0.047     2.353     2.399
    62   1 H        0.924     0.083     1.951     2.184
    63   1 H        0.924     0.123     1.588     1.971
    64   1 H        0.925     0.080     1.983     2.202
    65   1 H        0.924     0.039     2.468     2.457
    66   1 H        0.925     0.061     2.191     2.315
    67   1 H        0.925     0.035     2.519     2.482
    68   1 H        0.925     0.052     2.290     2.367
    69   1 H        0.925     0.068     2.108     2.270
    70   1 H        0.925     0.037     2.486     2.466
    71   1 H        0.925     0.056     2.251     2.346
    72   1 H        0.860     0.153     1.379     1.840

Wiberg/Mayer (AO) data.
largest (>0.10) Wiberg bond orders for each atom

     #   Z sym  total        # sym  WBO       # sym  WBO       # sym  WBO
 ---------------------------------------------------------------------------
     1   7 N    3.014 --     2 C    1.944    72 H    0.943
     2   6 C    3.936 --     1 N    1.944     3 C    0.992    47 H    0.922
     3   6 C    3.971 --     2 C    0.992     4 C    0.973    14 C    0.950
                            31 C    0.938
     4   6 C    3.867 --    13 C    1.627     5 C    1.097     3 C    0.973
     5   6 C    3.966 --     8 C    1.868     4 C    1.097    34 H    0.949
     6   6 C    3.825 --     7 O    1.694     9 C    1.114    36 H    0.930
     7   8 O    1.918 --     6 C    1.694
     8   6 C    3.914 --     5 C    1.868    37 H    0.975    35 H    0.972
     9   6 C    3.841 --    12 C    1.495     6 C    1.114    10 O    1.079
    10   8 O    2.219 --     9 C    1.079    11 C    0.978
    11   6 C    3.930 --    10 O    0.978    39 H    0.976    38 H    0.973
                            40 H    0.969
    12   6 C    3.856 --     9 C    1.495    13 C    1.195    41 H    0.946
    13   6 C    3.925 --     4 C    1.627    12 C    1.195    42 H    0.940
    14   6 C    3.982 --    15 C    1.000    44 H    0.969    43 H    0.966
                             3 C    0.950
    15   6 C    3.978 --    16 C    1.072    14 C    1.000    46 H    0.918
                            45 H    0.915
    16   6 C    3.666 --    17 N    1.475    15 C    1.072    48 H    0.954
    17   7 N    3.546 --    16 C    1.475    30 C    0.995    18 C    0.987
    18   6 C    3.955 --    17 N    0.987    19 C    0.969    50 H    0.969
                            49 H    0.960
    19   6 C    3.979 --    20 C    1.008    51 H    0.974    18 C    0.969
                            52 H    0.968
    20   6 C    3.941 --    21 C    1.410    29 C    1.378    19 C    1.008
    21   6 C    3.947 --    22 C    1.415    20 C    1.410    53 H    0.967
    22   6 C    3.957 --    21 C    1.415    23 C    1.383    54 H    0.963
    23   6 C    3.892 --    22 C    1.383    26 C    1.216    24 O    1.113
    24   8 O    2.255 --    23 C    1.113    25 C    0.975
    25   6 C    3.927 --    57 H    0.977    24 O    0.975    56 H    0.972
                            55 H    0.972
    26   6 C    3.896 --    29 C    1.396    23 C    1.216    27 O    1.106
    27   8 O    2.254 --    26 C    1.106    28 C    0.978
    28   6 C    3.931 --    27 O    0.978    58 H    0.977    59 H    0.973
                            60 H    0.973
    29   6 C    3.957 --    26 C    1.396    20 C    1.378    61 H    0.962
    30   6 C    3.940 --    17 N    0.995    64 H    0.978    62 H    0.960
                            63 H    0.938
    31   6 C    3.968 --    32 C    1.009    33 C    1.007    65 H    0.961
                             3 C    0.938
    32   6 C    3.981 --    31 C    1.009    67 H    0.981    68 H    0.981
                            66 H    0.977
    33   6 C    3.977 --    31 C    1.007    70 H    0.982    71 H    0.978
                            69 H    0.973
    34   1 H    0.991 --     5 C    0.949
    35   1 H    0.996 --     8 C    0.972
    36   1 H    0.987 --     6 C    0.930
    37   1 H    0.995 --     8 C    0.975
    38   1 H    0.993 --    11 C    0.973
    39   1 H    0.992 --    11 C    0.976
    40   1 H    0.990 --    11 C    0.969
    41   1 H    0.990 --    12 C    0.946
    42   1 H    0.990 --    13 C    0.940
    43   1 H    0.994 --    14 C    0.966
    44   1 H    0.995 --    14 C    0.969
    45   1 H    0.976 --    15 C    0.915
    46   1 H    0.972 --    15 C    0.918
    47   1 H    0.984 --     2 C    0.922
    48   1 H    0.994 --    16 C    0.954
    49   1 H    0.990 --    18 C    0.960
    50   1 H    0.995 --    18 C    0.969
    51   1 H    0.996 --    19 C    0.974
    52   1 H    0.994 --    19 C    0.968
    53   1 H    0.997 --    21 C    0.967
    54   1 H    0.995 --    22 C    0.963
    55   1 H    0.991 --    25 C    0.972
    56   1 H    0.991 --    25 C    0.972
    57   1 H    0.992 --    25 C    0.977
    58   1 H    0.992 --    28 C    0.977
    59   1 H    0.993 --    28 C    0.973
    60   1 H    0.992 --    28 C    0.973
    61   1 H    0.996 --    29 C    0.962
    62   1 H    0.984 --    30 C    0.960
    63   1 H    0.980 --    30 C    0.938
    64   1 H    0.993 --    30 C    0.978
    65   1 H    0.991 --    31 C    0.961
    66   1 H    0.992 --    32 C    0.977
    67   1 H    0.997 --    32 C    0.981
    68   1 H    0.994 --    32 C    0.981
    69   1 H    0.991 --    33 C    0.973
    70   1 H    0.996 --    33 C    0.982
    71   1 H    0.992 --    33 C    0.978
    72   1 H    0.970 --     1 N    0.943
 ---------------------------------------------------------------------------

molecular dipole:
                 x           y           z       tot (Debye)
 q only:        0.769       0.141      -0.490
   full:        0.729      -0.280      -0.424       2.258

           -------------------------------------------------
          | TOTAL ENERGY              -99.327967353997 Eh   |
          | GRADIENT NORM               0.002434163003 Eh/α |
          | HOMO-LUMO GAP               1.651281962620 eV   |
           -------------------------------------------------

 * finished run on 2024/04/06 at 11:16:09.986
