   * xtb version 6.6.1 (8d0f1dd) compiled by 'conda@1efc2f54142f' on 2023-08-01
          program call               : xtb xtbopt.xyz --opt crude --input .xc2 --gfn2

   ID    Z sym.   atoms
    1    7 N      1, 17
    2    6 C      2-6, 8, 9, 11-16, 18-23, 25, 26, 28-33
    3    8 O      7, 10, 24, 27
    4    1 H      34-72
########################################################################
[WARNING] Please study the warnings concerning your input carefully
-1- readin_getIntValue: could not parse ''
########################################################################

          :  Hamiltonian                  GFN2-xTB          :
 * total energy  :   -99.1772010 Eh     change       -0.1575984E-10 Eh
   *** GEOMETRY OPTIMIZATION CONVERGED AFTER 1 ITERATIONS ***

 final structure:
================
72
 xtb: 6.6.1 (8d0f1dd)
N           -1.68741485710363        2.73396924029961        2.23901191066206
C           -1.65780098427988        2.10595894734444        1.16080178026448
C           -2.83972069452924        1.90544766112134        0.25320627635331
C           -3.30489158945348        0.45858182536156        0.32781671716751
C           -4.25366294882597       -0.01042835801098       -0.58309864500082
C           -4.73998652422220       -1.30556998269642       -0.51988311655402
O           -5.66091981212599       -1.83362126073671       -1.35127224955074
C           -6.27133299190701       -1.01152855504986       -2.31819168310312
C           -4.26150030306910       -2.18448727127185        0.48990163003033
O           -4.79701737694022       -3.42089650170803        0.48295298398429
C           -4.46447378514753       -4.31830518787733        1.51652285476151
C           -3.31281513647790       -1.71555000904183        1.38443279786797
C           -2.84192222654168       -0.41080046154759        1.30350650350406
C           -2.34092482476799        2.23195665961524       -1.17771975505960
C           -1.41326579168160        1.16384764656737       -1.78442074737758
C           -0.04618211672000        1.16120295510955       -1.21545287101729
N            0.63738118991446        0.08065367371974       -0.86088699686292
C            2.05855380953362        0.15206897261379       -0.60926036370478
C            2.85724745153407       -0.43226269204058       -1.78415395761737
C            4.34757781686890       -0.30671992306579       -1.52724922821009
C            5.08886489685129        0.44784154434429       -2.28583146251095
C            6.31771263155394        1.31113974376069        1.41538578889075
C            6.55961155225155        0.45972049398714        0.45485836935195
O            7.45199456911512        0.60241099860309       -0.54916023094826
C            8.19426298506274        1.80432119197772       -0.53583679965933
C            5.83947241433693       -0.86644104962947        0.42415854026722
O            6.27950682833749       -1.65376493616491        1.42455248451922
C            5.73797414426474       -2.94844855094851        1.57971868542349
C            4.84083377855486       -1.15291058998380       -0.42667511005274
C            0.02679499811357       -1.22639967824795       -0.80130611020129
C           -4.05068498547363        2.81829790746152        0.61468130663717
C           -4.65286937572931        2.44286445444287        1.96667066876520
C           -3.70639752989327        4.30472183531478        0.60051778364960
H           -4.63193010929511        0.65392617451929       -1.34200678893197
H           -6.77596063751124       -0.15717784869369       -1.85723385930565
H           -7.00879733341917       -1.64102374741897       -2.81216312569833
H           -5.54808220924248       -0.65535769873428       -3.05901345312769
H           -4.71649565850717       -3.90810736038998        2.49880412106296
H           -5.06208776313370       -5.20898666318583        1.33311902938376
H           -3.40285854558265       -4.58405108731355        1.49247692446068
H           -2.94013086246212       -2.35590386822573        2.16734663100760
H           -2.12866702782902       -0.07209968390957        2.03895504911928
H           -3.20348044066510        2.34253804867815       -1.83368198537372
H           -1.81766449803348        3.18869145190192       -1.15984947644527
H           -1.88413877919591        0.18522063794356       -1.71027524412550
H           -1.31186526072393        1.40660462348961       -2.85031432269425
H           -0.73773125154163        1.65915125151370        0.73289937637667
H            0.50450504256686        2.09040480168479       -1.24480960843755
H            2.29107864970604       -0.39774338407671        0.30762573163243
H            2.35008876065986        1.19442770990225       -0.46597126582426
H            2.60220169725674        0.10791459478434       -2.69648710942273
H            2.60200601952299       -1.48486659439561       -1.92217826858472
H            6.09259281046649        0.73850275504641       -2.46741981352991
H            5.69898998871663        1.34523595248947        2.27783853763627
H            8.53581905565336        2.03349800366851        0.47735181654554
H            7.58859464044645        2.63970570722578       -0.90104006711589
H            9.04516161347975        1.64542325069844       -1.19573921288733
H            6.28446799228863       -3.39610469934157        2.40641227681103
H            4.67317780055768       -2.90723330871933        1.82967113818883
H            5.88225787777774       -3.54911335912792        0.67766069022747
H            4.33080538674435       -2.10469700213892       -0.34778040333940
H           -0.17844787140596       -1.61589956460524       -1.80098106507835
H           -0.91082664112772       -1.18329227578485       -0.24190762833495
H            0.69991089116732       -1.91247372819928       -0.29288380041709
H           -4.81168140745959        2.63975532729462       -0.15356861574401
H           -3.92515516465398        2.60347091980684        2.75542195698138
H           -4.96815764131215        1.40256471091348        1.98294882415308
H           -5.52090565675537        3.06630873122752        2.16349242696739
H           -2.94840852530820        4.52436964074901        1.34615589739299
H           -3.35630295682225        4.63262880182030       -0.37462858863076
H           -4.59680410660191        4.87847860362848        0.84381122130541
H           -0.82256749288874        2.83257895442604        2.76090914185592

          :  Hamiltonian                  GFN2-xTB          :
         :: total energy             -99.177200982486 Eh    ::
         :: gradient norm              0.003309427680 Eh/a0 ::
         :: HOMO-LUMO gap              0.163729462746 eV    ::
         :: SCC energy              -100.558346731105 Eh    ::
         :: -> dispersion             -0.074857567657 Eh    ::
         :: repulsion energy           1.379549258829 Eh    ::

    * Orbital Energies and Occupations

         #    Occupation            Energy/Eh            Energy/eV
      -------------------------------------------------------------
         1        2.0000           -0.8173453             -22.2411
       ...           ...                  ...                  ...
        78        1.9982           -0.5312271             -14.4554
        79        1.9981           -0.5302791             -14.4296
        80        1.9973           -0.5248308             -14.2814
        81        1.9962           -0.5195221             -14.1369
        82        1.9957           -0.5174011             -14.0792
        83        1.9948           -0.5146385             -14.0040
        84        1.9938           -0.5118228             -13.9274
        85        1.9800           -0.4930701             -13.4171
        86        1.9396           -0.4752191             -12.9314
        87        1.9332           -0.4735946             -12.8872
        88        1.8961           -0.4662797             -12.6881
        89        1.8648           -0.4618501             -12.5676
        90        1.1040           -0.4236032             -11.5268 (HOMO)
        91        0.9145           -0.4175863             -11.3631 (LUMO)
        92        0.3761           -0.3971367             -10.8066
        93        0.0144           -0.3422872              -9.3141
        94        0.0057           -0.3275134              -8.9121
        95        0.0034           -0.3191269              -8.6839
        96        0.0028           -0.3162556              -8.6058
        97        0.0002           -0.2752452              -7.4898
        98        0.0001           -0.2528185              -6.8795
        99        0.0000           -0.1936075              -5.2683
       100                         -0.1404632              -3.8222
       101                         -0.0763805              -2.0784
       ...                                ...                  ...
       171                          0.6834938              18.5988
      -------------------------------------------------------------
                  HL-Gap            0.0060169 Eh            0.1637 eV

     #   Z          covCN         q      C6AA      α(0)
     1   7 N        1.774    -0.266    27.729     7.798
     2   6 C        2.826     0.102    25.741     8.314
     3   6 C        3.907     0.006    20.411     6.422
     4   6 C        2.974     0.003    27.958     8.673
     5   6 C        2.920    -0.080    30.002     8.982
     6   6 C        2.862     0.130    25.150     8.220
     7   8 O        1.706    -0.229    17.790     5.695
     8   6 C        3.644     0.027    20.456     6.501
     9   6 C        2.864     0.129    25.169     8.223
    10   8 O        1.706    -0.227    17.768     5.691
    11   6 C        3.645     0.026    20.463     6.501
    12   6 C        2.914    -0.074    29.852     8.959
    13   6 C        2.921    -0.053    29.326     8.881
    14   6 C        3.812    -0.065    21.741     6.637
    15   6 C        3.802    -0.069    21.824     6.651
    16   6 C        2.842     0.009    27.820     8.644
    17   7 N        2.729     0.011    21.065     6.817
    18   6 C        3.755    -0.015    20.902     6.519
    19   6 C        3.813    -0.067    21.773     6.642
    20   6 C        2.941     0.027    27.401     8.585
    21   6 C        1.923    -0.107    34.055     9.424
    22   6 C        1.918    -0.140    35.065     9.563
    23   6 C        2.852     0.149    24.766     8.156
    24   8 O        1.705    -0.238    17.941     5.719
    25   6 C        3.659     0.026    20.410     6.483
    26   6 C        2.844     0.140    24.940     8.185
    27   8 O        1.706    -0.232    17.849     5.704
    28   6 C        3.643     0.026    20.483     6.506
    29   6 C        2.898    -0.087    30.189     9.009
    30   6 C        3.700    -0.070    22.007     6.709
    31   6 C        3.853    -0.007    20.669     6.466
    32   6 C        3.756    -0.119    22.841     6.814
    33   6 C        3.755    -0.118    22.818     6.811
    34   1 H        0.926     0.053     2.288     2.366
    35   1 H        0.924     0.054     2.267     2.354
    36   1 H        0.925     0.082     1.959     2.189
    37   1 H        0.924     0.048     2.346     2.395
    38   1 H        0.924     0.056     2.252     2.347
    39   1 H        0.925     0.082     1.960     2.189
    40   1 H        0.924     0.049     2.335     2.389
    41   1 H        0.926     0.053     2.288     2.365
    42   1 H        0.926     0.039     2.462     2.454
    43   1 H        0.925     0.060     2.194     2.317
    44   1 H        0.924     0.054     2.271     2.356
    45   1 H        0.925     0.066     2.128     2.281
    46   1 H        0.924     0.082     1.963     2.191
    47   1 H        0.922     0.007     2.942     2.682
    48   1 H        0.926     0.071     2.074     2.252
    49   1 H        0.924     0.066     2.134     2.284
    50   1 H        0.924     0.069     2.101     2.267
    51   1 H        0.924     0.060     2.196     2.318
    52   1 H        0.924     0.059     2.214     2.327
    53   1 H        0.927     0.097     1.812     2.105
    54   1 H        0.927     0.070     2.082     2.256
    55   1 H        0.924     0.063     2.163     2.300
    56   1 H        0.924     0.055     2.264     2.353
    57   1 H        0.925     0.077     2.013     2.219
    58   1 H        0.925     0.085     1.924     2.169
    59   1 H        0.924     0.047     2.362     2.403
    60   1 H        0.924     0.058     2.219     2.330
    61   1 H        0.925     0.055     2.257     2.349
    62   1 H        0.924     0.076     2.016     2.221
    63   1 H        0.924     0.080     1.978     2.199
    64   1 H        0.925     0.078     1.995     2.209
    65   1 H        0.924     0.038     2.478     2.462
    66   1 H        0.925     0.070     2.084     2.258
    67   1 H        0.925     0.036     2.505     2.475
    68   1 H        0.925     0.052     2.293     2.368
    69   1 H        0.925     0.060     2.202     2.321
    70   1 H        0.925     0.035     2.518     2.481
    71   1 H        0.925     0.055     2.258     2.350
    72   1 H        0.860     0.158     1.347     1.818

Wiberg/Mayer (AO) data.
largest (>0.10) Wiberg bond orders for each atom

     #   Z sym  total        # sym  WBO       # sym  WBO       # sym  WBO
 ---------------------------------------------------------------------------
     1   7 N    3.043 --     2 C    1.959    72 H    0.941
     2   6 C    3.928 --     1 N    1.959     3 C    0.995    47 H    0.897
     3   6 C    3.975 --     2 C    0.995     4 C    0.968    14 C    0.960
                            31 C    0.940
     4   6 C    3.948 --    13 C    1.412     5 C    1.368     3 C    0.968
     5   6 C    3.961 --     6 C    1.400     4 C    1.368    34 H    0.958
     6   6 C    3.904 --     5 C    1.400     9 C    1.220     7 O    1.101
     7   8 O    2.255 --     6 C    1.101     8 C    0.978
     8   6 C    3.931 --     7 O    0.978    36 H    0.977    35 H    0.973
                            37 H    0.973
     9   6 C    3.900 --    12 C    1.392     6 C    1.220    10 O    1.103
    10   8 O    2.253 --     9 C    1.103    11 C    0.977
    11   6 C    3.930 --    10 O    0.977    39 H    0.977    38 H    0.973
                            40 H    0.973
    12   6 C    3.961 --    13 C    1.403     9 C    1.392    41 H    0.964
    13   6 C    3.953 --     4 C    1.412    12 C    1.403    42 H    0.963
    14   6 C    3.973 --    15 C    0.981    44 H    0.972    43 H    0.969
                             3 C    0.960
    15   6 C    3.986 --    16 C    1.059    14 C    0.981    45 H    0.962
                            46 H    0.926
    16   6 C    3.600 --    17 N    1.405    15 C    1.059    48 H    0.957
    17   7 N    3.483 --    16 C    1.405    30 C    0.998    18 C    0.986
    18   6 C    3.956 --    17 N    0.986    19 C    0.974    50 H    0.968
                            49 H    0.962
    19   6 C    3.940 --    51 H    0.975    18 C    0.974    52 H    0.964
                            20 C    0.964
    20   6 C    3.951 --    21 C    1.925    29 C    1.018    19 C    0.964
    21   6 C    3.035 --    20 C    1.925    53 H    0.947
    22   6 C    3.010 --    23 C    1.841    54 H    0.959    24 O    0.117
    23   6 C    3.891 --    22 C    1.841    24 O    1.074    26 C    0.905
    24   8 O    2.221 --    23 C    1.074    25 C    0.970    22 C    0.117
    25   6 C    3.918 --    57 H    0.978    56 H    0.973    55 H    0.970
                            24 O    0.970
    26   6 C    3.826 --    29 C    1.665    27 O    1.107    23 C    0.905
    27   8 O    2.265 --    26 C    1.107    28 C    0.969    29 C    0.110
    28   6 C    3.926 --    58 H    0.976    60 H    0.974    59 H    0.974
                            27 O    0.969
    29   6 C    3.818 --    26 C    1.665    20 C    1.018    61 H    0.941
                            27 O    0.110
    30   6 C    3.957 --    17 N    0.998    64 H    0.977    62 H    0.966
                            63 H    0.962
    31   6 C    3.971 --    33 C    1.009    32 C    1.008    65 H    0.960
                             3 C    0.940
    32   6 C    3.977 --    31 C    1.008    67 H    0.982    68 H    0.981
                            66 H    0.973
    33   6 C    3.983 --    31 C    1.009    70 H    0.983    71 H    0.980
                            69 H    0.977
    34   1 H    0.996 --     5 C    0.958
    35   1 H    0.993 --     8 C    0.973
    36   1 H    0.993 --     8 C    0.977
    37   1 H    0.993 --     8 C    0.973
    38   1 H    0.993 --    11 C    0.973
    39   1 H    0.993 --    11 C    0.977
    40   1 H    0.993 --    11 C    0.973
    41   1 H    0.996 --    12 C    0.964
    42   1 H    0.998 --    13 C    0.963
    43   1 H    0.995 --    14 C    0.969
    44   1 H    0.996 --    14 C    0.972
    45   1 H    0.995 --    15 C    0.962
    46   1 H    0.970 --    15 C    0.926
    47   1 H    0.986 --     2 C    0.897
    48   1 H    0.995 --    16 C    0.957
    49   1 H    0.991 --    18 C    0.962
    50   1 H    0.994 --    18 C    0.968
    51   1 H    0.995 --    19 C    0.975
    52   1 H    0.995 --    19 C    0.964
    53   1 H    0.971 --    21 C    0.947
    54   1 H    0.979 --    22 C    0.959
    55   1 H    0.992 --    25 C    0.970
    56   1 H    0.991 --    25 C    0.973
    57   1 H    0.993 --    25 C    0.978
    58   1 H    0.992 --    28 C    0.976
    59   1 H    0.994 --    28 C    0.974
    60   1 H    0.994 --    28 C    0.974
    61   1 H    0.982 --    29 C    0.941
    62   1 H    0.984 --    30 C    0.966
    63   1 H    0.988 --    30 C    0.962
    64   1 H    0.993 --    30 C    0.977
    65   1 H    0.992 --    31 C    0.960
    66   1 H    0.990 --    32 C    0.973
    67   1 H    0.996 --    32 C    0.982
    68   1 H    0.994 --    32 C    0.981
    69   1 H    0.993 --    33 C    0.977
    70   1 H    0.997 --    33 C    0.983
    71   1 H    0.994 --    33 C    0.980
    72   1 H    0.970 --     1 N    0.941
 ---------------------------------------------------------------------------

molecular dipole:
                 x           y           z       tot (Debye)
 q only:        0.204      -0.227      -0.832
   full:        0.521      -0.471      -0.828       2.759

           -------------------------------------------------
          | TOTAL ENERGY              -99.177200982486 Eh   |
          | GRADIENT NORM               0.003309427680 Eh/α |
          | HOMO-LUMO GAP               0.163729462746 eV   |
           -------------------------------------------------

 * finished run on 2024/04/06 at 11:14:05.055
