   * xtb version 6.6.1 (8d0f1dd) compiled by 'conda@1efc2f54142f' on 2023-08-01
          program call               : xtb xtbopt.xyz --opt crude --input .xc2 --gfn2

   ID    Z sym.   atoms
    1    7 N      1, 17
    2    6 C      2-6, 8, 9, 11-16, 18-23, 25, 26, 28-33
    3    8 O      7, 10, 24, 27
    4    1 H      34-72

          :  Hamiltonian                  GFN2-xTB          :
 * total energy  :   -99.3307534 Eh     change       -0.3421974E-10 Eh
   *** GEOMETRY OPTIMIZATION CONVERGED AFTER 1 ITERATIONS ***

 final structure:
================
72
 xtb: 6.6.1 (8d0f1dd)
N           -2.24541472650319        3.38195930625898        1.49539211701220
C           -2.51914279831172        2.71356076538616        0.47704491399122
C           -3.93454932301608        2.37601786590311        0.06244375963646
C           -4.06414337523519        0.84552174783957        0.06372916319131
C           -5.05084446038470        0.23695679841866       -0.70814074443708
C           -5.22396638316350       -1.13884964601484       -0.69503612064474
O           -6.15791252902616       -1.81404697558822       -1.38923867902456
C           -7.09904730647578       -1.10230096367820       -2.15933260117445
C           -4.37029234400016       -1.94344445839037        0.11077138061162
O           -4.60384619091709       -3.26815902877687        0.05612031979780
C           -3.84708244883929       -4.13518942092342        0.86853327615780
C           -3.39417797071460       -1.32307964907238        0.87667164003697
C           -3.24276444664106        0.05669095262049        0.85420924010949
C           -4.08694202136603        2.87355499891057       -1.31999599557124
C           -0.72430632106106        0.76286934976834       -1.94634206320547
C            0.46704774553872        0.81622110692885       -1.33510479076163
N            0.96982582317473       -0.09413726815817       -0.45798524403463
C            2.35835173896572       -0.02098490303188       -0.09152753229886
C            3.28168616172022       -0.69263467549234       -1.13340529964469
C            4.71948369539715       -0.48171995645421       -0.76549170673314
C            5.35717686169050        0.70982038665319       -1.08632084831666
C            6.67410416452391        0.93377160844559       -0.72224141554616
C            7.38824011926770       -0.03350205215118       -0.02628788220434
O            8.66606030506697        0.07177214116157        0.37516972835144
C            9.38527261218381        1.24990105715702        0.08961816405088
C            6.74488698565588       -1.26031763841105        0.30585214248577
O            7.51077141161553       -2.14353940786120        0.97147971995041
C            6.97895080459378       -3.40020443945034        1.31879920790831
C            5.42211066001386       -1.45691119260729       -0.06409622524662
C            0.26437219503397       -1.32627890093868       -0.21948705760903
C           -5.04392665453948        2.97453260116934        0.97445126262440
C           -5.01197180897773        2.40866326651254        2.38836628750708
C           -4.95463069691793        4.49784996580406        1.01348923247804
H           -5.69239092684261        0.85051926970261       -1.31845527630565
H           -7.68554335884082       -0.41700299551207       -1.53985702864011
H           -7.75776190178396       -1.85725108217806       -2.58420001258308
H           -6.61754864050772       -0.54517184018134       -2.96875759405989
H           -3.96135525509315       -3.89224344176029        1.92914153797199
H           -4.24424353795212       -5.13105131742273        0.68172270656010
H           -2.78600491541639       -4.11209664673804        0.59947943129861
H           -2.75288572754727       -1.90940495952655        1.51552774564968
H           -2.49229101564040        0.51198032855827        1.48157143611512
H           -5.04180795987646        3.21346781274671       -1.67918210005550
H           -3.25039472741875        2.89292578320854       -1.99259087156620
H           -1.41167229545329       -0.05466572561797       -1.83173264450948
H           -1.02072656419591        1.54950596090873       -2.61470031953144
H           -1.77250479683431        2.31415499343134       -0.22702610870459
H            1.11421047248327        1.66786014343097       -1.49960812240476
H            2.49677593241507       -0.50285539222372        0.87997723966806
H            2.64542230240862        1.02927932174468        0.00779462904305
H            3.07731251995837       -0.24825025712798       -2.10959674920501
H            3.05278956558270       -1.75772617213606       -1.18378232275463
H            4.82662759197652        1.47197533487458       -1.63643542960507
H            7.14175569513814        1.86717037377320       -0.98962501871483
H            8.92772168151906        2.12218426254850        0.56601101948122
H            9.46301216044962        1.42004898135729       -0.98816321449858
H           10.37947224666812        1.09241120652883        0.50299502919586
H            7.78574100876137       -3.92905331048475        1.82282116100136
H            6.12918557747272       -3.30158864114442        2.00172493928517
H            6.67358847460210       -3.96487853735475        0.43251658623407
H            4.92710668155049       -2.38312108606462        0.18220219087192
H            0.23582886989379       -1.95768746868524       -1.11399600749335
H           -0.76258556482080       -1.10865270136377        0.07834857486361
H            0.75479674318268       -1.87364591711790        0.58248089630661
H           -5.99716637254170        2.69184131256698        0.51207982798470
H           -4.06096042801446        2.63763378631669        2.86014331173981
H           -5.15927563506945        1.33104498712217        2.38748275392663
H           -5.80520115304030        2.86220043680878        2.97699608262171
H           -4.08113933761283        4.80374040856922        1.58173498565096
H           -4.87514893805854        4.91016325580396        0.01011475547348
H           -5.84009220045749        4.90911828961714        1.48977736723423
H           -1.26951015243313        3.58689742358673        1.68422210574390

          :  Hamiltonian                  GFN2-xTB          :
         :: total energy             -99.330753379319 Eh    ::
         :: gradient norm              0.002878879869 Eh/a0 ::
         :: HOMO-LUMO gap              0.828300162490 eV    ::
         :: SCC energy              -100.733579647103 Eh    ::
         :: -> dispersion             -0.071419071194 Eh    ::
         :: repulsion energy           1.401894948935 Eh    ::

    * Orbital Energies and Occupations

         #    Occupation            Energy/Eh            Energy/eV
      -------------------------------------------------------------
         1        2.0000           -0.8141152             -22.1532
       ...           ...                  ...                  ...
        78        1.9972           -0.5301868             -14.4271
        79        1.9971           -0.5298933             -14.4191
        80        1.9962           -0.5253540             -14.2956
        81        1.9951           -0.5213576             -14.1869
        82        1.9934           -0.5166523             -14.0588
        83        1.9922           -0.5141572             -13.9909
        84        1.9920           -0.5136710             -13.9777
        85        1.9732           -0.4943976             -13.4532
        86        1.9673           -0.4912009             -13.3663
        87        1.9038           -0.4735926             -12.8871
        88        1.8211           -0.4630711             -12.6008
        89        1.7968           -0.4608397             -12.5401
        90        1.6900           -0.4531791             -12.3316 (HOMO)
        91        0.8871           -0.4227396             -11.5033 (LUMO)
        92        0.0071           -0.3370840              -9.1725
        93        0.0024           -0.3195736              -8.6960
        94        0.0020           -0.3167075              -8.6180
        95        0.0017           -0.3147055              -8.5636
        96        0.0016           -0.3130069              -8.5174
        97        0.0004           -0.2903549              -7.9010
        98        0.0000           -0.1940398              -5.2801
        99        0.0000           -0.1895057              -5.1567
       100                         -0.0979271              -2.6647
       101                         -0.0673294              -1.8321
       ...                                ...                  ...
       171                          0.5714158              15.5490
      -------------------------------------------------------------
                  HL-Gap            0.0304395 Eh            0.8283 eV

     #   Z          covCN         q      C6AA      α(0)
     1   7 N        1.774    -0.263    27.649     7.787
     2   6 C        2.837     0.105    25.675     8.304
     3   6 C        3.911     0.024    20.110     6.374
     4   6 C        2.980     0.014    27.701     8.633
     5   6 C        2.918    -0.074    29.838     8.958
     6   6 C        2.863     0.135    25.051     8.204
     7   8 O        1.706    -0.220    17.651     5.672
     8   6 C        3.644     0.024    20.502     6.508
     9   6 C        2.863     0.132    25.109     8.214
    10   8 O        1.706    -0.221    17.668     5.675
    11   6 C        3.645     0.025    20.488     6.505
    12   6 C        2.914    -0.072    29.783     8.949
    13   6 C        2.920    -0.046    29.142     8.853
    14   6 C        2.862    -0.084    30.090     8.991
    15   6 C        2.838    -0.122    31.081     9.136
    16   6 C        2.842     0.021    27.538     8.600
    17   7 N        2.732    -0.045    22.112     6.984
    18   6 C        3.753    -0.008    20.771     6.499
    19   6 C        3.807    -0.071    21.844     6.653
    20   6 C        2.968     0.008    27.837     8.654
    21   6 C        2.922    -0.045    29.106     8.847
    22   6 C        2.913    -0.065    29.624     8.925
    23   6 C        2.864     0.136    25.035     8.202
    24   8 O        1.706    -0.215    17.564     5.658
    25   6 C        3.645     0.023    20.519     6.510
    26   6 C        2.862     0.136    25.032     8.201
    27   8 O        1.706    -0.217    17.610     5.666
    28   6 C        3.645     0.025    20.490     6.506
    29   6 C        2.919    -0.076    29.900     8.967
    30   6 C        3.699    -0.058    21.781     6.675
    31   6 C        3.854    -0.006    20.649     6.463
    32   6 C        3.755    -0.117    22.798     6.808
    33   6 C        3.756    -0.118    22.808     6.810
    34   1 H        0.926     0.060     2.202     2.321
    35   1 H        0.924     0.057     2.238     2.339
    36   1 H        0.925     0.085     1.933     2.174
    37   1 H        0.924     0.055     2.259     2.350
    38   1 H        0.924     0.057     2.238     2.339
    39   1 H        0.925     0.084     1.937     2.177
    40   1 H        0.924     0.050     2.322     2.383
    41   1 H        0.926     0.054     2.272     2.357
    42   1 H        0.926     0.048     2.348     2.396
    43   1 H        0.926     0.067     2.122     2.278
    44   1 H        0.926     0.055     2.261     2.351
    45   1 H        0.926     0.042     2.418     2.432
    46   1 H        0.926     0.046     2.364     2.404
    47   1 H        0.923     0.025     2.664     2.553
    48   1 H        0.925     0.049     2.328     2.386
    49   1 H        0.924     0.056     2.250     2.346
    50   1 H        0.924     0.059     2.208     2.324
    51   1 H        0.924     0.056     2.241     2.341
    52   1 H        0.924     0.053     2.283     2.363
    53   1 H        0.926     0.051     2.308     2.376
    54   1 H        0.926     0.061     2.186     2.312
    55   1 H        0.924     0.058     2.224     2.332
    56   1 H        0.924     0.059     2.208     2.324
    57   1 H        0.925     0.085     1.930     2.172
    58   1 H        0.925     0.084     1.937     2.176
    59   1 H        0.924     0.053     2.277     2.360
    60   1 H        0.924     0.056     2.243     2.342
    61   1 H        0.926     0.053     2.279     2.361
    62   1 H        0.924     0.059     2.213     2.326
    63   1 H        0.924     0.067     2.120     2.277
    64   1 H        0.925     0.062     2.176     2.307
    65   1 H        0.924     0.044     2.393     2.419
    66   1 H        0.925     0.064     2.147     2.292
    67   1 H        0.925     0.036     2.503     2.474
    68   1 H        0.925     0.056     2.248     2.345
    69   1 H        0.925     0.069     2.092     2.262
    70   1 H        0.925     0.042     2.428     2.437
    71   1 H        0.925     0.055     2.263     2.352
    72   1 H        0.860     0.161     1.330     1.806

Wiberg/Mayer (AO) data.
largest (>0.10) Wiberg bond orders for each atom

     #   Z sym  total        # sym  WBO       # sym  WBO       # sym  WBO
 ---------------------------------------------------------------------------
     1   7 N    3.010 --     2 C    1.958    72 H    0.937
     2   6 C    3.920 --     1 N    1.958     3 C    0.964    47 H    0.922
     3   6 C    3.960 --    14 C    1.063     2 C    0.964    31 C    0.931
                             4 C    0.907
     4   6 C    3.874 --    13 C    1.400     5 C    1.379     3 C    0.907
     5   6 C    3.950 --     6 C    1.390     4 C    1.379    34 H    0.958
     6   6 C    3.894 --     5 C    1.390     9 C    1.215     7 O    1.111
     7   8 O    2.255 --     6 C    1.111     8 C    0.975
     8   6 C    3.926 --    36 H    0.976     7 O    0.975    35 H    0.972
                            37 H    0.972
     9   6 C    3.887 --    12 C    1.383     6 C    1.215    10 O    1.109
    10   8 O    2.251 --     9 C    1.109    11 C    0.977
    11   6 C    3.929 --    10 O    0.977    39 H    0.976    40 H    0.973
                            38 H    0.972
    12   6 C    3.953 --    13 C    1.409     9 C    1.383    41 H    0.962
    13   6 C    3.935 --    12 C    1.409     4 C    1.400    42 H    0.962
    14   6 C    3.136 --     3 C    1.063    44 H    0.979    43 H    0.975
    15   6 C    3.807 --    16 C    1.724    46 H    0.976    45 H    0.974
    16   6 C    3.943 --    15 C    1.724    17 N    1.207    48 H    0.958
    17   7 N    3.361 --    16 C    1.207    30 C    1.007    18 C    1.006
    18   6 C    3.961 --    17 N    1.006    49 H    0.968    50 H    0.967
                            19 C    0.959
    19   6 C    3.971 --    20 C    1.016    52 H    0.973    51 H    0.968
                            18 C    0.959
    20   6 C    3.926 --    21 C    1.388    29 C    1.386    19 C    1.016
    21   6 C    3.928 --    22 C    1.428    20 C    1.388    53 H    0.967
    22   6 C    3.950 --    21 C    1.428    23 C    1.371    54 H    0.962
    23   6 C    3.873 --    22 C    1.371    26 C    1.210    24 O    1.118
    24   8 O    2.249 --    23 C    1.118    25 C    0.975
    25   6 C    3.924 --    57 H    0.976    24 O    0.975    55 H    0.971
                            56 H    0.971
    26   6 C    3.880 --    29 C    1.386    23 C    1.210    27 O    1.113
    27   8 O    2.250 --    26 C    1.113    28 C    0.977
    28   6 C    3.927 --    27 O    0.977    58 H    0.976    59 H    0.972
                            60 H    0.972
    29   6 C    3.950 --    20 C    1.386    26 C    1.386    61 H    0.961
    30   6 C    3.966 --    17 N    1.007    64 H    0.980    63 H    0.967
                            62 H    0.967
    31   6 C    3.957 --    32 C    1.011    33 C    1.006    65 H    0.958
                             3 C    0.931
    32   6 C    3.976 --    31 C    1.011    67 H    0.981    68 H    0.979
                            66 H    0.974
    33   6 C    3.966 --    31 C    1.006    71 H    0.980    70 H    0.976
                            69 H    0.971
    34   1 H    0.995 --     5 C    0.958
    35   1 H    0.991 --     8 C    0.972
    36   1 H    0.992 --     8 C    0.976
    37   1 H    0.991 --     8 C    0.972
    38   1 H    0.991 --    11 C    0.972
    39   1 H    0.992 --    11 C    0.976
    40   1 H    0.992 --    11 C    0.973
    41   1 H    0.994 --    12 C    0.962
    42   1 H    0.996 --    13 C    0.962
    43   1 H    0.995 --    14 C    0.975
    44   1 H    0.996 --    14 C    0.979
    45   1 H    0.998 --    15 C    0.974
    46   1 H    0.997 --    15 C    0.976
    47   1 H    0.976 --     2 C    0.922
    48   1 H    0.997 --    16 C    0.958
    49   1 H    0.993 --    18 C    0.968
    50   1 H    0.993 --    18 C    0.967
    51   1 H    0.994 --    19 C    0.968
    52   1 H    0.996 --    19 C    0.973
    53   1 H    0.996 --    21 C    0.967
    54   1 H    0.994 --    22 C    0.962
    55   1 H    0.989 --    25 C    0.971
    56   1 H    0.989 --    25 C    0.971
    57   1 H    0.992 --    25 C    0.976
    58   1 H    0.992 --    28 C    0.976
    59   1 H    0.990 --    28 C    0.972
    60   1 H    0.990 --    28 C    0.972
    61   1 H    0.996 --    29 C    0.961
    62   1 H    0.983 --    30 C    0.967
    63   1 H    0.988 --    30 C    0.967
    64   1 H    0.996 --    30 C    0.980
    65   1 H    0.988 --    31 C    0.958
    66   1 H    0.990 --    32 C    0.974
    67   1 H    0.996 --    32 C    0.981
    68   1 H    0.992 --    32 C    0.979
    69   1 H    0.988 --    33 C    0.971
    70   1 H    0.995 --    33 C    0.976
    71   1 H    0.992 --    33 C    0.980
    72   1 H    0.964 --     1 N    0.937
 ---------------------------------------------------------------------------

molecular dipole:
                 x           y           z       tot (Debye)
 q only:        0.614      -0.085      -0.130
   full:        0.902      -0.098      -0.495       2.627

           -------------------------------------------------
          | TOTAL ENERGY              -99.330753379319 Eh   |
          | GRADIENT NORM               0.002878879869 Eh/α |
          | HOMO-LUMO GAP               0.828300162490 eV   |
           -------------------------------------------------

 * finished run on 2024/04/06 at 11:13:10.317
