   * xtb version 6.6.1 (8d0f1dd) compiled by 'conda@1efc2f54142f' on 2023-08-01
          program call               : xtb struc.xyz --opt loose --input .xc1 --gfn2

   ID    Z sym.   atoms
    1    6 C      1, 3, 5-7, 10, 11, 14
    2    7 N      2, 4, 9, 13
    3    8 O      8, 12
    4    1 H      15-25
constraining bond 2 6 to    3.9200000 Å, actual value:    1.3708515 Å

          :  Hamiltonian                  GFN2-xTB          :
 * total energy  :   -30.6451892 Eh     change       -0.6650680E-10 Eh
 * total energy  :   -34.8021801 Eh     change       -0.4156991E+01 Eh
 * total energy  :   -38.2879773 Eh     change       -0.3485797E+01 Eh
 * total energy  :   -40.5085230 Eh     change       -0.2220546E+01 Eh
 * total energy  :   -41.4940691 Eh     change       -0.9855461E+00 Eh
 * total energy  :   -41.6637975 Eh     change       -0.1697285E+00 Eh
 * total energy  :   -41.7030559 Eh     change       -0.3925834E-01 Eh
 * total energy  :   -41.7824537 Eh     change       -0.7939786E-01 Eh
 * total energy  :   -41.8386187 Eh     change       -0.5616493E-01 Eh
 * total energy  :   -41.8931578 Eh     change       -0.5453919E-01 Eh
 * total energy  :   -42.1373877 Eh     change       -0.1087023E-01 Eh
 * total energy  :   -42.1414246 Eh     change       -0.4036971E-02 Eh
 * total energy  :   -42.1430779 Eh     change       -0.1653310E-02 Eh
 * total energy  :   -42.1452250 Eh     change       -0.2147009E-02 Eh
 * total energy  :   -42.1460084 Eh     change       -0.7834861E-03 Eh
 * total energy  :   -42.1462459 Eh     change       -0.2374750E-03 Eh
 * total energy  :   -42.1463450 Eh     change       -0.9905284E-04 Eh
 * total energy  :   -42.1463988 Eh     change       -0.5388315E-04 Eh
 * total energy  :   -42.1464303 Eh     change       -0.3146037E-04 Eh
   *** GEOMETRY OPTIMIZATION CONVERGED AFTER 31 ITERATIONS ***

 final structure:
================
25
 xtb: 6.6.1 (8d0f1dd)
C            3.37323832017002        0.89677905955945        0.04084505212651
N            3.56247823078100       -0.48927736945035        0.02284403639395
C            2.69427333412344       -1.38642545857821       -0.00024591019473
N            1.27849033942621       -1.40648309966523       -0.02067117591716
C            0.16651790896390       -0.62548273800540       -0.01264698681650
C           -0.14064052092783        0.77415213375385       -0.01765767788014
C            0.64155439310555        1.88163699868593       -0.03159036676871
O            0.84550436986551        3.02850353874419       -0.05098054588624
N           -1.54090433314487        0.88812310863029       -0.00627888518007
C           -2.33046277212345        2.09321249155374       -0.00300999245136
C           -2.10660100672554       -0.35425097776827        0.00139424878265
O           -3.26590756345114       -0.64686316144872        0.01176820020251
N           -1.02912941581612       -1.26667605577949       -0.00406897031724
C           -1.27753433722633       -2.68551219363819        0.00086394353232
H            3.80167546488617        1.30698114947680        0.95836178086378
H            3.90303584995323        1.34247485672362       -0.80390875136493
H            2.28950708674344        1.19379349241890       -0.01475498295620
H            3.06613363173942       -2.40313081698364       -0.00610485476444
H           -1.68994406855908        2.97004584335403        0.01287322377102
H           -2.96249437223650        2.11856221021499       -0.89240534529994
H           -2.97996073326102        2.09891370590010        0.87390598058255
H           -0.87008621033120       -3.15984537223979        0.89589927453408
H           -0.88637284747148       -3.16305505532474       -0.89980433277215
H           -2.36126351486037       -2.80940146709970        0.01043875520333
H            0.97932428047710       -2.37853628143454       -0.03389409952232

          :  Hamiltonian                  GFN2-xTB          :
         :: total energy             -42.146430311033 Eh    ::
         :: gradient norm              0.003038605458 Eh/a0 ::
         :: HOMO-LUMO gap              2.107825352045 eV    ::
         :: SCC energy               -42.690899031063 Eh    ::
         :: -> dispersion             -0.021794829111 Eh    ::
         :: repulsion energy           0.544260369109 Eh    ::

    * Orbital Energies and Occupations

         #    Occupation            Energy/Eh            Energy/eV
      -------------------------------------------------------------
         1        2.0000           -0.9314624             -25.3464
       ...           ...                  ...                  ...
        25        2.0000           -0.6796482             -18.4942
        26        2.0000           -0.6736358             -18.3306
        27        1.9999           -0.6653276             -18.1045
        28        1.9999           -0.6554366             -17.8353
        29        1.9995           -0.6377134             -17.3531
        30        1.9994           -0.6337837             -17.2461
        31        1.9993           -0.6308382             -17.1660
        32        1.9991           -0.6268807             -17.0583
        33        1.9959           -0.6027908             -16.4028
        34        1.9861           -0.5834197             -15.8757
        35        1.9833           -0.5805019             -15.7963
        36        1.9168           -0.5545351             -15.0897
        37        1.8358           -0.5430919             -14.7783 (HOMO)
        38        0.1548           -0.4656307             -12.6705 (LUMO)
        39        0.1292           -0.4625443             -12.5865
        40        0.0012           -0.3869716             -10.5300
        41        0.0001           -0.3464449              -9.4272
        42        0.0000           -0.3204295              -8.7193
        43                         -0.2172837              -5.9126
        44                         -0.1935846              -5.2677
        45                         -0.1230882              -3.3494
        46                         -0.1199191              -3.2632
        47                         -0.0770866              -2.0976
        48                         -0.0524768              -1.4280
       ...                                ...                  ...
        67                          0.7864984              21.4017
      -------------------------------------------------------------
                  HL-Gap            0.0774612 Eh            2.1078 eV

     #   Z          covCN         q      C6AA      α(0)
     1   6 C        3.697    -0.035    21.377     6.613
     2   7 N        1.820    -0.129    24.569     7.344
     3   6 C        2.766     0.106    25.631     8.291
     4   7 N        2.689    -0.127    23.759     7.239
     5   6 C        2.897     0.131    25.136     8.220
     6   6 C        3.006     0.002    27.960     8.674
     7   6 C        1.848     0.240    25.566     8.168
     8   8 O        0.856    -0.138    17.089     5.542
     9   7 N        2.800    -0.046    22.128     6.987
    10   6 C        3.691    -0.065    21.942     6.703
    11   6 C        2.826     0.314    21.669     7.628
    12   8 O        0.857    -0.351    20.731     6.105
    13   7 N        2.830    -0.055    22.308     7.015
    14   6 C        3.690    -0.075    22.127     6.732
    15   1 H        0.924     0.111     1.686     2.030
    16   1 H        0.924     0.113     1.674     2.023
    17   1 H        0.922     0.057     2.238     2.339
    18   1 H        0.925     0.104     1.750     2.069
    19   1 H        0.925     0.091     1.872     2.140
    20   1 H        0.924     0.107     1.724     2.053
    21   1 H        0.924     0.108     1.718     2.050
    22   1 H        0.924     0.088     1.895     2.153
    23   1 H        0.924     0.088     1.897     2.154
    24   1 H        0.924     0.131     1.531     1.935
    25   1 H        0.860     0.231     0.960     1.535

Wiberg/Mayer (AO) data.
largest (>0.10) Wiberg bond orders for each atom

     #   Z sym  total        # sym  WBO       # sym  WBO       # sym  WBO
 ---------------------------------------------------------------------------
     1   6 C    3.933 --     2 N    1.083    16 H    0.941    15 H    0.940
                            17 H    0.834
     2   7 N    3.157 --     3 C    1.823     1 C    1.083     4 N    0.101
     3   6 C    3.932 --     2 N    1.823     4 N    1.059    18 H    0.939
     4   7 N    3.486 --     5 C    1.232     3 C    1.059    25 H    0.902
                             2 N    0.101
     5   6 C    3.884 --    13 N    1.252     4 N    1.232     6 C    1.195
     6   6 C    3.877 --     7 C    1.361     5 C    1.195     9 N    1.047
                             8 O    0.116
     7   6 C    3.705 --     8 O    2.016     6 C    1.361    17 H    0.124
     8   8 O    2.335 --     7 C    2.016     6 C    0.116
     9   7 N    3.466 --    11 C    1.146     6 C    1.047    10 C    0.987
                            12 O    0.150
    10   6 C    3.917 --     9 N    0.987    19 H    0.975    21 H    0.958
                            20 H    0.958
    11   6 C    3.948 --    12 O    1.689     9 N    1.146    13 N    1.019
    12   8 O    2.018 --    11 C    1.689     9 N    0.150    13 N    0.111
    13   7 N    3.567 --     5 C    1.252    11 C    1.019    14 C    0.987
                            12 O    0.111
    14   6 C    3.927 --    13 N    0.987    22 H    0.963    23 H    0.962
                            24 H    0.959
    15   1 H    0.980 --     1 C    0.940
    16   1 H    0.979 --     1 C    0.941
    17   1 H    0.983 --     1 C    0.834     7 C    0.124
    18   1 H    0.984 --     3 C    0.939
    19   1 H    0.990 --    10 C    0.975
    20   1 H    0.976 --    10 C    0.958
    21   1 H    0.976 --    10 C    0.958
    22   1 H    0.987 --    14 C    0.963
    23   1 H    0.987 --    14 C    0.962
    24   1 H    0.982 --    14 C    0.959
    25   1 H    0.945 --     4 N    0.902
 ---------------------------------------------------------------------------

molecular dipole:
                 x           y           z       tot (Debye)
 q only:        1.415      -0.781       0.001
   full:        1.320      -0.852      -0.004       3.993

           -------------------------------------------------
          | TOTAL ENERGY              -42.146430311033 Eh   |
          | GRADIENT NORM               0.003038605458 Eh/α |
          | HOMO-LUMO GAP               2.107825352045 eV   |
           -------------------------------------------------

 * finished run on 2024/06/05 at 19:57:51.837
