   * xtb version 6.6.1 (8d0f1dd) compiled by 'conda@1efc2f54142f' on 2023-08-01
          program call               : xtb struc.xyz --opt loose --input .xc1 --gfn2

   ID    Z sym.   atoms
    1    7 N      1, 17
    2    6 C      2-6, 8, 9, 11-16, 18-23, 25, 26, 28-33
    3    8 O      7, 10, 24, 27
    4    1 H      34-72
constraining bond 16 30 to    5.0000000 Å, actual value:    2.4128832 Å

          :  Hamiltonian                  GFN2-xTB          :
 * total energy  :   -98.2090433 Eh     change       -0.4035485E-08 Eh
 * total energy  :   -98.4939225 Eh     change       -0.2848792E+00 Eh
 * total energy  :   -98.6943424 Eh     change       -0.2004199E+00 Eh
 * total energy  :   -98.8492342 Eh     change       -0.1548918E+00 Eh
 * total energy  :   -98.9743308 Eh     change       -0.1250965E+00 Eh
 * total energy  :   -99.0430306 Eh     change       -0.6869982E-01 Eh
 * total energy  :   -99.0843180 Eh     change       -0.4128745E-01 Eh
 * total energy  :   -99.1207174 Eh     change       -0.3639940E-01 Eh
 * total energy  :   -99.1645901 Eh     change       -0.4387271E-01 Eh
 * total energy  :   -99.2153036 Eh     change       -0.5071347E-01 Eh
 * total energy  :   -99.3151547 Eh     change       -0.1175991E-03 Eh
 * total energy  :   -99.3153528 Eh     change       -0.1980914E-03 Eh
 * total energy  :   -99.3154740 Eh     change       -0.1211731E-03 Eh
 * total energy  :   -99.3155296 Eh     change       -0.5559949E-04 Eh
 * total energy  :   -99.3156814 Eh     change       -0.1517932E-03 Eh
 * total energy  :   -99.3157441 Eh     change       -0.6265406E-04 Eh
 * total energy  :   -99.3158281 Eh     change       -0.8407372E-04 Eh
 * total energy  :   -99.3158933 Eh     change       -0.6521232E-04 Eh
 * total energy  :   -99.3159347 Eh     change       -0.4139697E-04 Eh
   *** GEOMETRY OPTIMIZATION CONVERGED AFTER 63 ITERATIONS ***

 final structure:
================
72
 xtb: 6.6.1 (8d0f1dd)
N           -1.89293668919420        3.16617802896403        2.15782388594192
C           -1.88055403205939        2.30564994319884        1.25153601715089
C           -3.03436368024266        2.05504921077830        0.31756880943214
C           -3.39172739711303        0.57950476870301        0.33004405526308
C           -4.20921004542416        0.04490153410702       -0.66574968848839
C           -4.56312100374161       -1.29582032214829       -0.66904040659671
O           -5.34282883084471       -1.89707547398593       -1.58489302617023
C           -5.91079415168831       -1.13877532039675       -2.62700413109196
C           -4.07556048704643       -2.15060208158810        0.36037497805430
O           -4.43713863093665       -3.44013114598648        0.26186254864320
C           -3.91659205974469       -4.36470698589911        1.18656489225945
C           -3.28989460421027       -1.60326031272792        1.36575798633309
C           -2.96173806333967       -0.25668369090490        1.35249723391875
C           -2.53279098903521        2.48346227675836       -1.08845201138652
C           -1.52716440616926        1.52891565116257       -1.74376505841558
C           -0.15547110566117        1.59671165402688       -1.16938105937328
N            0.49492589357163        0.56247241352323       -0.87889396915931
C            1.84375909108908        0.61551255798757       -0.41702799845026
C            2.76801823838598       -0.01446470986498       -1.47684652670995
C            4.19726264919615        0.04146064136118       -1.02862007689763
C            4.97652420134858        1.16270506261015       -1.29022970010485
C            6.28750765451978        1.23844527264161       -0.85136444699723
C            6.85462118677365        0.19037567358841       -0.13564056335739
O            8.10819310460676        0.15420458561981        0.34370654109182
C            8.97633445166678        1.23725707627610        0.10008922380357
C            6.06652757672620       -0.96776154878345        0.13260917369482
O            6.69582974871232       -1.93939200672737        0.81547165903836
C            6.00726818284944       -3.12898138820679        1.12162556580338
C            4.75331237164989       -1.01542444727371       -0.31425476224569
C           -0.88002656026342       -3.18715064629804        0.08344084795564
C           -4.31744167492852        2.85750818611038        0.69165474063951
C           -4.82609352587655        2.47326641997196        2.07944660203997
C           -4.13497034863171        4.37072365928042        0.61386464101179
H           -4.57730821338313        0.68456041737738       -1.45104591108167
H           -6.55640277598453       -0.34534980035977       -2.24056049343487
H           -6.51001698425507       -1.84117352114929       -3.20317883151122
H           -5.14165274797812       -0.70486633587713       -3.27378189860380
H           -4.24887841584708       -4.14732657246698        2.20598717267246
H           -4.29840474892894       -5.33718435738226        0.88129377365999
H           -2.81970644410362       -4.36639775342682        1.14742900274991
H           -2.93834581900389       -2.21698083835658        2.17818874448313
H           -2.37248218592133        0.13950735543738        2.16438096216898
H           -3.39793338114270        2.57434592590399       -1.74578404705815
H           -2.07844227583751        3.47223680076312       -1.00765232638170
H           -1.87765909406051        0.49760515130691       -1.71492070302707
H           -1.43204903242383        1.82568649271311       -2.79363779142568
H           -1.00646019452151        1.68255806594250        1.01589117910781
H            0.26703966100267        2.60809664233098       -1.05561904539424
H            1.90693357368471        0.02836185456971        0.50415187315899
H            2.17583330245119        1.64605858174417       -0.20670595107254
H            2.64605375397390        0.53763270704015       -2.41036705406576
H            2.45190460663992       -1.04467883322882       -1.64179366967637
H            4.56041604284768        1.98610182932147       -1.85038572104462
H            6.86642658853932        2.12022621557180       -1.07294957055965
H            8.60320705834800        2.15973618743228        0.55428745107696
H            9.12877471655993        1.39329621222956       -0.97178500654118
H            9.92168378925348        0.96322527134174        0.56413309452688
H            6.72038059979289       -3.74879060423298        1.66181948017179
H            5.13929023692180       -2.93521584807373        1.75924861948851
H            5.68677334672416       -3.65085748390665        0.21506989435762
H            4.14743633840015       -1.88640720732493       -0.12031575176836
H           -1.16374718368097       -3.75199178289400       -0.77964451510945
H           -0.85765812546286       -2.12224550578377        0.03513645390667
H           -0.48180930799366       -3.68409423040480        0.94112953880447
H           -5.08233885578743        2.56823149724915       -0.03897734473086
H           -4.10464508980020        2.77185855718623        2.83446984481516
H           -4.99558755277421        1.40180755080091        2.15440549244747
H           -5.76389697401092        2.98375966233697        2.28053289936149
H           -3.34425391551883        4.68596662846936        1.28821563155692
H           -3.90294829008324        4.70192630292980       -0.39433579302914
H           -5.05825196875160        4.85660732803986        0.91976661128109
H           -1.05442450584077        3.29423242343251        2.71439257169343

          :  Hamiltonian                  GFN2-xTB          :
         :: total energy             -99.315934748737 Eh    ::
         :: gradient norm              0.003597758521 Eh/a0 ::
         :: HOMO-LUMO gap              0.833671619411 eV    ::
         :: SCC energy              -100.707524642694 Eh    ::
         :: -> dispersion             -0.073210880565 Eh    ::
         :: repulsion energy           1.390185235216 Eh    ::

    * Orbital Energies and Occupations

         #    Occupation            Energy/Eh            Energy/eV
      -------------------------------------------------------------
         1        2.0000           -0.8186384             -22.2763
       ...           ...                  ...                  ...
        78        1.9956           -0.5303858             -14.4325
        79        1.9952           -0.5292325             -14.4012
        80        1.9939           -0.5252085             -14.2917
        81        1.9929           -0.5229976             -14.2315
        82        1.9906           -0.5184054             -14.1065
        83        1.9884           -0.5151021             -14.0166
        84        1.9870           -0.5132950             -13.9675
        85        1.9626           -0.4963326             -13.5059
        86        1.9565           -0.4938941             -13.4395
        87        1.8998           -0.4802352             -13.0679
        88        1.8517           -0.4736187             -12.8878
        89        1.7707           -0.4660116             -12.6808
        90        1.7082           -0.4616258             -12.5615 (HOMO)
        91        0.9164           -0.4309890             -11.7278 (LUMO)
        92        0.0080           -0.3461824              -9.4201
        93        0.0042           -0.3360941              -9.1456
        94        0.0018           -0.3222106              -8.7678
        95        0.0014           -0.3190358              -8.6814
        96        0.0013           -0.3173060              -8.6343
        97        0.0011           -0.3148443              -8.5673
        98        0.0000           -0.1971527              -5.3648
        99        0.0000           -0.1930158              -5.2522
       100                         -0.0707390              -1.9249
       101                         -0.0675091              -1.8370
       ...                                ...                  ...
       171                          0.5668628              15.4251
      -------------------------------------------------------------
                  HL-Gap            0.0306369 Eh            0.8337 eV

     #   Z          covCN         q      C6AA      α(0)
     1   7 N        1.774    -0.258    27.533     7.770
     2   6 C        2.828     0.104    25.696     8.306
     3   6 C        3.908     0.009    20.374     6.416
     4   6 C        2.974     0.012    27.748     8.641
     5   6 C        2.919    -0.074    29.846     8.959
     6   6 C        2.861     0.136    25.037     8.202
     7   8 O        1.706    -0.217    17.605     5.665
     8   6 C        3.644     0.024    20.513     6.510
     9   6 C        2.866     0.135    25.041     8.203
    10   8 O        1.706    -0.214    17.548     5.656
    11   6 C        3.647     0.021    20.548     6.513
    12   6 C        2.913    -0.065    29.609     8.923
    13   6 C        2.922    -0.042    29.046     8.838
    14   6 C        3.812    -0.060    21.650     6.623
    15   6 C        3.807    -0.071    21.862     6.656
    16   6 C        2.844     0.083    26.133     8.378
    17   7 N        1.829    -0.209    26.373     7.610
    18   6 C        3.764     0.024    20.217     6.409
    19   6 C        3.811    -0.065    21.739     6.637
    20   6 C        2.968     0.013    27.713     8.635
    21   6 C        2.922    -0.041    29.010     8.833
    22   6 C        2.912    -0.064    29.586     8.919
    23   6 C        2.864     0.137    25.005     8.197
    24   8 O        1.706    -0.210    17.490     5.647
    25   6 C        3.645     0.022    20.541     6.514
    26   6 C        2.862     0.137    24.997     8.195
    27   8 O        1.706    -0.213    17.539     5.654
    28   6 C        3.645     0.024    20.512     6.509
    29   6 C        2.918    -0.074    29.854     8.960
    30   6 C        2.780    -0.142    31.611     9.209
    31   6 C        3.853    -0.007    20.674     6.467
    32   6 C        3.756    -0.118    22.808     6.810
    33   6 C        3.755    -0.121    22.874     6.819
    34   1 H        0.926     0.059     2.212     2.326
    35   1 H        0.924     0.058     2.222     2.331
    36   1 H        0.925     0.086     1.923     2.168
    37   1 H        0.924     0.055     2.259     2.350
    38   1 H        0.924     0.060     2.196     2.318
    39   1 H        0.925     0.086     1.921     2.167
    40   1 H        0.924     0.061     2.193     2.316
    41   1 H        0.926     0.061     2.185     2.311
    42   1 H        0.926     0.050     2.323     2.383
    43   1 H        0.924     0.058     2.225     2.333
    44   1 H        0.924     0.055     2.254     2.348
    45   1 H        0.925     0.067     2.118     2.276
    46   1 H        0.924     0.073     2.052     2.240
    47   1 H        0.923     0.025     2.665     2.553
    48   1 H        0.923     0.019     2.749     2.593
    49   1 H        0.924     0.053     2.280     2.361
    50   1 H        0.923     0.024     2.680     2.560
    51   1 H        0.924     0.056     2.246     2.344
    52   1 H        0.925     0.064     2.158     2.297
    53   1 H        0.926     0.056     2.244     2.342
    54   1 H        0.926     0.064     2.156     2.296
    55   1 H        0.924     0.060     2.196     2.318
    56   1 H        0.924     0.061     2.182     2.310
    57   1 H        0.925     0.087     1.912     2.162
    58   1 H        0.925     0.086     1.922     2.168
    59   1 H        0.924     0.056     2.251     2.346
    60   1 H        0.924     0.059     2.214     2.327
    61   1 H        0.926     0.058     2.224     2.332
    62   1 H        0.927     0.069     2.102     2.267
    63   1 H        0.927     0.066     2.135     2.285
    64   1 H        0.927     0.063     2.168     2.302
    65   1 H        0.924     0.042     2.428     2.437
    66   1 H        0.925     0.067     2.122     2.278
    67   1 H        0.925     0.037     2.495     2.470
    68   1 H        0.925     0.055     2.257     2.350
    69   1 H        0.925     0.071     2.076     2.253
    70   1 H        0.925     0.041     2.435     2.440
    71   1 H        0.925     0.058     2.227     2.334
    72   1 H        0.860     0.163     1.315     1.796

Wiberg/Mayer (AO) data.
largest (>0.10) Wiberg bond orders for each atom

     #   Z sym  total        # sym  WBO       # sym  WBO       # sym  WBO
 ---------------------------------------------------------------------------
     1   7 N    3.010 --     2 C    1.954    72 H    0.937
     2   6 C    3.936 --     1 N    1.954     3 C    0.990    47 H    0.918
     3   6 C    3.964 --     2 C    0.990     4 C    0.978    14 C    0.948
                            31 C    0.940
     4   6 C    3.923 --    13 C    1.393     5 C    1.376     3 C    0.978
     5   6 C    3.948 --     6 C    1.389     4 C    1.376    34 H    0.957
     6   6 C    3.880 --     5 C    1.389     9 C    1.207     7 O    1.114
     7   8 O    2.251 --     6 C    1.114     8 C    0.975
     8   6 C    3.925 --    36 H    0.976     7 O    0.975    35 H    0.971
                            37 H    0.971
     9   6 C    3.874 --    12 C    1.371     6 C    1.207    10 O    1.118
    10   8 O    2.253 --     9 C    1.118    11 C    0.976
    11   6 C    3.914 --    10 O    0.976    39 H    0.976    38 H    0.969
                            40 H    0.957
    12   6 C    3.947 --    13 C    1.417     9 C    1.371    41 H    0.961
    13   6 C    3.928 --    12 C    1.417     4 C    1.393    42 H    0.961
    14   6 C    3.982 --    15 C    0.993    44 H    0.970    43 H    0.966
                             3 C    0.948
    15   6 C    3.984 --    16 C    1.030    14 C    0.993    45 H    0.965
                            46 H    0.940
    16   6 C    3.947 --    17 N    1.875    15 C    1.030    48 H    0.929
    17   7 N    3.037 --    16 C    1.875    18 C    1.030
    18   6 C    3.965 --    17 N    1.030    19 C    0.958    49 H    0.958
                            50 H    0.957
    19   6 C    3.983 --    20 C    1.016    52 H    0.969    51 H    0.969
                            18 C    0.958
    20   6 C    3.914 --    29 C    1.387    21 C    1.381    19 C    1.016
    21   6 C    3.918 --    22 C    1.430    20 C    1.381    53 H    0.966
    22   6 C    3.943 --    21 C    1.430    23 C    1.367    54 H    0.962
    23   6 C    3.861 --    22 C    1.367    26 C    1.202    24 O    1.123
    24   8 O    2.246 --    23 C    1.123    25 C    0.974
    25   6 C    3.921 --    57 H    0.976    24 O    0.974    56 H    0.970
                            55 H    0.970
    26   6 C    3.870 --    29 C    1.383    23 C    1.202    27 O    1.118
    27   8 O    2.248 --    26 C    1.118    28 C    0.976
    28   6 C    3.925 --    58 H    0.976    27 O    0.976    59 H    0.971
                            60 H    0.971
    29   6 C    3.944 --    20 C    1.387    26 C    1.383    61 H    0.961
    30   6 C    3.018 --    62 H    0.992    64 H    0.992    63 H    0.992
    31   6 C    3.962 --    33 C    1.008    32 C    1.007    65 H    0.956
                             3 C    0.940
    32   6 C    3.970 --    31 C    1.007    67 H    0.980    68 H    0.979
                            66 H    0.972
    33   6 C    3.967 --    31 C    1.008    70 H    0.980    71 H    0.977
                            69 H    0.968
    34   1 H    0.995 --     5 C    0.957
    35   1 H    0.990 --     8 C    0.971
    36   1 H    0.992 --     8 C    0.976
    37   1 H    0.990 --     8 C    0.971
    38   1 H    0.988 --    11 C    0.969
    39   1 H    0.991 --    11 C    0.976
    40   1 H    0.990 --    11 C    0.957
    41   1 H    0.994 --    12 C    0.961
    42   1 H    0.996 --    13 C    0.961
    43   1 H    0.994 --    14 C    0.966
    44   1 H    0.995 --    14 C    0.970
    45   1 H    0.994 --    15 C    0.965
    46   1 H    0.992 --    15 C    0.940
    47   1 H    0.970 --     2 C    0.918
    48   1 H    0.979 --    16 C    0.929
    49   1 H    0.993 --    18 C    0.958
    50   1 H    0.985 --    18 C    0.957
    51   1 H    0.993 --    19 C    0.969
    52   1 H    0.993 --    19 C    0.969
    53   1 H    0.995 --    21 C    0.966
    54   1 H    0.994 --    22 C    0.962
    55   1 H    0.987 --    25 C    0.970
    56   1 H    0.987 --    25 C    0.970
    57   1 H    0.991 --    25 C    0.976
    58   1 H    0.992 --    28 C    0.976
    59   1 H    0.989 --    28 C    0.971
    60   1 H    0.989 --    28 C    0.971
    61   1 H    0.995 --    29 C    0.961
    62   1 H    0.995 --    30 C    0.992
    63   1 H    0.995 --    30 C    0.992
    64   1 H    0.995 --    30 C    0.992
    65   1 H    0.985 --    31 C    0.956
    66   1 H    0.988 --    32 C    0.972
    67   1 H    0.995 --    32 C    0.980
    68   1 H    0.992 --    32 C    0.979
    69   1 H    0.987 --    33 C    0.968
    70   1 H    0.994 --    33 C    0.980
    71   1 H    0.990 --    33 C    0.977
    72   1 H    0.964 --     1 N    0.937
 ---------------------------------------------------------------------------

molecular dipole:
                 x           y           z       tot (Debye)
 q only:        0.524      -0.067      -0.292
   full:        0.960       0.173      -0.392       2.672

           -------------------------------------------------
          | TOTAL ENERGY              -99.315934748737 Eh   |
          | GRADIENT NORM               0.003597758521 Eh/α |
          | HOMO-LUMO GAP               0.833671619411 eV   |
           -------------------------------------------------

 * finished run on 2024/04/06 at 11:13:25.884
