   * xtb version 6.6.1 (8d0f1dd) compiled by 'conda@1efc2f54142f' on 2023-08-01
          program call               : xtb struc.xyz --opt loose --input .xc1 --gfn2

   ID    Z sym.   atoms
    1    6 C      1, 3, 5-7, 10, 11, 14
    2    7 N      2, 4, 9, 13
    3    8 O      8, 12
    4    1 H      15-25
constraining bond 5 6 to    4.0000000 Å, actual value:    1.3842879 Å

          :  Hamiltonian                  GFN2-xTB          :
 * total energy  :     6.6182238 Eh     change       -0.6650680E-10 Eh
 * total energy  :   -15.4149353 Eh     change       -0.2203316E+02 Eh
 * total energy  :   -29.4063082 Eh     change       -0.1399137E+02 Eh
 * total energy  :   -37.7182918 Eh     change       -0.8311984E+01 Eh
 * total energy  :   -41.0855038 Eh     change       -0.3367212E+01 Eh
 * total energy  :   -41.6251931 Eh     change       -0.5396894E+00 Eh
 * total energy  :   -41.6548089 Eh     change       -0.2961578E-01 Eh
 * total energy  :   -41.6380651 Eh     change        0.1674381E-01 Eh
 * total energy  :   -41.7104855 Eh     change       -0.7242040E-01 Eh
 * total energy  :   -41.7244731 Eh     change       -0.1398765E-01 Eh
 * total energy  :   -41.9923259 Eh     change       -0.1596368E-03 Eh
 * total energy  :   -41.9924892 Eh     change       -0.1633198E-03 Eh
 * total energy  :   -41.9925889 Eh     change       -0.9974292E-04 Eh
 * total energy  :   -41.9926743 Eh     change       -0.8534562E-04 Eh
 * total energy  :   -41.9927832 Eh     change       -0.1089332E-03 Eh
 * total energy  :   -41.9928950 Eh     change       -0.1118336E-03 Eh
 * total energy  :   -41.9929751 Eh     change       -0.8003163E-04 Eh
 * total energy  :   -41.9930319 Eh     change       -0.5678478E-04 Eh
 * total energy  :   -41.9930809 Eh     change       -0.4907102E-04 Eh
   *** GEOMETRY OPTIMIZATION CONVERGED AFTER 52 ITERATIONS ***

 final structure:
================
25
 xtb: 6.6.1 (8d0f1dd)
C            3.59476006167198        1.13173541544395        0.39094537166322
N            2.26045823962460        0.56878286838083        0.25092721842640
C            2.13503664457422       -0.59209077113927       -0.37625376510163
N            1.14081673223445       -1.44329425542368       -0.86704791972468
C           -0.10540656015577       -1.96174866734303       -0.77440631546536
C            1.32051028119455        1.33614961058908        0.97648038542987
C            0.03094282281913        1.37123817846692        0.41978211146476
O            0.67907362975832        2.47160898279335        0.18543168693009
N           -1.09601917773147        0.86272205739137        0.07665645856915
C           -2.12829052050427        1.66548537248618       -0.57347067022894
C           -1.58121475394643       -0.41748511872619        0.61216684997691
O           -2.48505940731566       -0.39258835892342        1.39309103236122
N           -1.11509912707492       -1.58063158889704        0.02821565593192
C           -2.04178743544092       -2.69784001584137        0.28613813702442
H            3.94542831217096        1.00170241105118        1.41546810068771
H            4.30001293758662        0.67846112201016       -0.30015148630202
H            3.52828201234417        2.20179048487221        0.19230014364777
H            3.10502584228782       -0.99564510327747       -0.64453562161631
H           -1.73689345472210        2.66099765458272       -0.77016595637870
H           -2.41711815052432        1.18624137346993       -1.50875342127153
H           -2.99655284995594        1.73217778966199        0.08291235276993
H           -2.01876547019567       -2.95209403282501        1.34514395054097
H           -1.72472922380503       -3.55082742077444       -0.30649268639916
H           -3.05927202715460       -2.41190293417614        0.02228016545099
H            1.62629215635998       -2.05470651225153       -1.52549016048772

          :  Hamiltonian                  GFN2-xTB          :
         :: total energy             -41.993080937462 Eh    ::
         :: gradient norm              0.001648084317 Eh/a0 ::
         :: HOMO-LUMO gap              1.539841868358 eV    ::
         :: SCC energy               -42.479352312907 Eh    ::
         :: -> dispersion             -0.021988884677 Eh    ::
         :: repulsion energy           0.486000010050 Eh    ::

    * Orbital Energies and Occupations

         #    Occupation            Energy/Eh            Energy/eV
      -------------------------------------------------------------
         1        2.0000           -0.9162531             -24.9325
       ...           ...                  ...                  ...
        25        2.0000           -0.6680864             -18.1796
        26        1.9999           -0.6541119             -17.7993
        27        1.9999           -0.6503821             -17.6978
        28        1.9998           -0.6413339             -17.4516
        29        1.9998           -0.6391772             -17.3929
        30        1.9994           -0.6210288             -16.8991
        31        1.9993           -0.6184730             -16.8295
        32        1.9988           -0.6107224             -16.6186
        33        1.9986           -0.6084845             -16.5577
        34        1.9979           -0.6020391             -16.3823
        35        1.9947           -0.5872250             -15.9792
        36        1.9005           -0.5398968             -14.6913
        37        1.7466           -0.5237594             -14.2522 (HOMO)
        38        0.3240           -0.4671712             -12.7124 (LUMO)
        39        0.0323           -0.4281265             -11.6499
        40        0.0080           -0.4057458             -11.0409
        41        0.0006           -0.3639801              -9.9044
        42        0.0000           -0.2852330              -7.7616
        43                         -0.2223977              -6.0517
        44                         -0.2174206              -5.9163
        45                         -0.1429779              -3.8906
        46                         -0.1293257              -3.5191
        47                         -0.1165317              -3.1710
        48                         -0.0785640              -2.1378
       ...                                ...                  ...
        67                          0.5755075              15.6604
      -------------------------------------------------------------
                  HL-Gap            0.0565881 Eh            1.5398 eV

     #   Z          covCN         q      C6AA      α(0)
     1   6 C        3.730    -0.081    22.149     6.718
     2   7 N        2.735     0.044    20.469     6.719
     3   6 C        2.769     0.052    26.806     8.479
     4   7 N        2.680    -0.073    22.665     7.071
     5   6 C        1.863    -0.056    32.663     9.231
     6   6 C        2.748    -0.016    28.397     8.726
     7   6 C        2.785     0.260    22.614     7.789
     8   8 O        1.681    -0.236    17.913     5.714
     9   7 N        2.726    -0.047    22.157     6.991
    10   6 C        3.706    -0.059    21.793     6.673
    11   6 C        2.725     0.314    21.660     7.619
    12   8 O        0.859    -0.311    19.986     5.994
    13   7 N        2.730    -0.008    21.406     6.872
    14   6 C        3.752    -0.072    21.936     6.679
    15   1 H        0.924     0.114     1.664     2.017
    16   1 H        0.925     0.090     1.876     2.142
    17   1 H        0.924     0.119     1.623     1.992
    18   1 H        0.925     0.097     1.814     2.106
    19   1 H        0.925     0.106     1.729     2.056
    20   1 H        0.925     0.093     1.852     2.128
    21   1 H        0.924     0.113     1.672     2.022
    22   1 H        0.925     0.105     1.740     2.063
    23   1 H        0.925     0.111     1.691     2.033
    24   1 H        0.925     0.099     1.795     2.095
    25   1 H        0.860     0.242     0.914     1.498

Wiberg/Mayer (AO) data.
largest (>0.10) Wiberg bond orders for each atom

     #   Z sym  total        # sym  WBO       # sym  WBO       # sym  WBO
 ---------------------------------------------------------------------------
     1   6 C    3.921 --     2 N    0.974    16 H    0.974    17 H    0.958
                            15 H    0.956
     2   7 N    3.582 --     3 C    1.428     6 C    1.033     1 C    0.974
     3   6 C    3.778 --     2 N    1.428     4 N    1.162    18 H    0.946
     4   7 N    3.563 --     5 C    1.320     3 C    1.162    25 H    0.905
     5   6 C    2.812 --     4 N    1.320    13 N    1.293
     6   6 C    3.126 --     7 C    1.072     2 N    1.033     8 O    0.782
     7   6 C    3.865 --     9 N    1.470     8 O    1.219     6 C    1.072
     8   8 O    2.231 --     7 C    1.219     6 C    0.782     9 N    0.120
     9   7 N    3.588 --     7 C    1.470    10 C    0.945    11 C    0.887
                             8 O    0.120
    10   6 C    3.915 --    19 H    0.973    20 H    0.969    21 H    0.962
                             9 N    0.945
    11   6 C    3.889 --    12 O    1.775    13 N    1.123     9 N    0.887
    12   8 O    2.080 --    11 C    1.775    13 N    0.131
    13   7 N    3.594 --     5 C    1.293    11 C    1.123    14 C    0.945
                            12 O    0.131
    14   6 C    3.906 --    23 H    0.971    24 H    0.970    22 H    0.964
                            13 N    0.945
    15   1 H    0.978 --     1 C    0.956
    16   1 H    0.991 --     1 C    0.974
    17   1 H    0.981 --     1 C    0.958
    18   1 H    0.988 --     3 C    0.946
    19   1 H    0.988 --    10 C    0.973
    20   1 H    0.990 --    10 C    0.969
    21   1 H    0.985 --    10 C    0.962
    22   1 H    0.985 --    14 C    0.964
    23   1 H    0.987 --    14 C    0.971
    24   1 H    0.985 --    14 C    0.970
    25   1 H    0.934 --     4 N    0.905
 ---------------------------------------------------------------------------

molecular dipole:
                 x           y           z       tot (Debye)
 q only:        1.470      -1.098      -0.932
   full:        1.570      -0.755      -1.166       5.329

           -------------------------------------------------
          | TOTAL ENERGY              -41.993080937462 Eh   |
          | GRADIENT NORM               0.001648084317 Eh/α |
          | HOMO-LUMO GAP               1.539841868358 eV   |
           -------------------------------------------------

 * finished run on 2024/06/05 at 20:00:11.207
