   * xtb version 6.6.1 (8d0f1dd) compiled by 'conda@1efc2f54142f' on 2023-08-01
          program call               : xtb xtbopt.xyz --opt crude --input .xc2 --gfn2

   ID    Z sym.   atoms
    1    6 C      1, 3, 5-7, 10, 11, 14
    2    7 N      2, 4, 9, 13
    3    8 O      8, 12
    4    1 H      15-25
########################################################################
[WARNING] Please study the warnings concerning your input carefully
-1- readin_getIntValue: could not parse ''
########################################################################

          :  Hamiltonian                  GFN2-xTB          :
 * total energy  :   -41.9931509 Eh     change       -0.3552714E-13 Eh
 * total energy  :   -41.9979045 Eh     change       -0.4753625E-02 Eh
 * total energy  :   -42.0019605 Eh     change       -0.4056060E-02 Eh
 * total energy  :   -42.0035709 Eh     change       -0.1610325E-02 Eh
 * total energy  :   -42.0047421 Eh     change       -0.1171252E-02 Eh
 * total energy  :   -42.0058271 Eh     change       -0.1085027E-02 Eh
 * total energy  :   -42.0067682 Eh     change       -0.9410491E-03 Eh
 * total energy  :   -42.0075671 Eh     change       -0.7988882E-03 Eh
 * total energy  :   -42.0082394 Eh     change       -0.6723573E-03 Eh
 * total energy  :   -42.0088455 Eh     change       -0.6060762E-03 Eh
 * total energy  :   -42.0101459 Eh     change       -0.2070729E-03 Eh
 * total energy  :   -42.0104042 Eh     change       -0.2582733E-03 Eh
 * total energy  :   -42.0106507 Eh     change       -0.2464505E-03 Eh
 * total energy  :   -42.0110504 Eh     change       -0.3997553E-03 Eh
 * total energy  :   -42.0115456 Eh     change       -0.4952232E-03 Eh
 * total energy  :   -42.0119761 Eh     change       -0.4304270E-03 Eh
 * total energy  :   -42.0119326 Eh     change        0.4351183E-04 Eh
 * total energy  :   -42.0125419 Eh     change       -0.6093419E-03 Eh
 * total energy  :   -42.0128352 Eh     change       -0.2933538E-03 Eh
   *** GEOMETRY OPTIMIZATION CONVERGED AFTER 22 ITERATIONS ***

 final structure:
================
25
 xtb: 6.6.1 (8d0f1dd)
C            3.48531062209528        0.94565839291930        0.57627470857945
N            2.23379688394594        0.34853850080706        0.16301235709932
C            2.17607211471511       -0.52889363048105       -0.82656748875132
N            1.15008931053436       -1.34961015620517       -1.13633206730863
C            0.11374494875729       -1.92686543300883       -0.48373586215391
C            1.11746941224297        0.74316949325965        0.88971938855235
C           -0.04939395301255        1.13185229041742        0.26194803618133
O            0.63309973240897        2.20590848469146        0.51672638254888
N           -1.25310753407181        0.86964128096066       -0.15954601624216
C           -2.15505913725197        1.95681813607178       -0.54023520159142
C           -1.83171624877615       -0.40752601840959        0.00186702760693
O           -3.02493519893092       -0.53174199498926        0.01726728157722
N           -0.97616033917317       -1.53252244461560        0.13293414318903
C           -1.68034761227324       -2.64255544100191        0.79945866312370
H            3.73122055447089        0.60858797861969        1.58397674053634
H            4.28455042864417        0.67013746045802       -0.10604633999273
H            3.37383366861579        2.02980777994548        0.59720512829755
H            3.10034789270226       -0.71346872350772       -1.35846223725178
H           -1.63809850797838        2.90440212706357       -0.41002203159548
H           -2.45041993678454        1.82472186814570       -1.58099153421338
H           -3.04639121807578        1.92392483866496        0.08440808982706
H           -1.87006811318153       -2.36733543758750        1.83594472538796
H           -1.05454411104071       -3.52892321035040        0.75724273027927
H           -2.63263908342336       -2.83423088884722        0.30749069277660
H            1.42377693894109       -1.98125671141990       -1.89236569856267

          :  Hamiltonian                  GFN2-xTB          :
         :: total energy             -42.012835246469 Eh    ::
         :: gradient norm              0.007604998968 Eh/a0 ::
         :: HOMO-LUMO gap              1.439604457454 eV    ::
         :: SCC energy               -42.515151079218 Eh    ::
         :: -> dispersion             -0.022302068548 Eh    ::
         :: repulsion energy           0.502108174197 Eh    ::

    * Orbital Energies and Occupations

         #    Occupation            Energy/Eh            Energy/eV
      -------------------------------------------------------------
         1        2.0000           -0.9057861             -24.6477
       ...           ...                  ...                  ...
        25        2.0000           -0.6709500             -18.2575
        26        2.0000           -0.6589788             -17.9317
        27        2.0000           -0.6532995             -17.7772
        28        1.9999           -0.6383399             -17.3701
        29        1.9998           -0.6303680             -17.1532
        30        1.9997           -0.6212032             -16.9038
        31        1.9996           -0.6195661             -16.8593
        32        1.9994           -0.6110140             -16.6265
        33        1.9986           -0.5985825             -16.2883
        34        1.9986           -0.5983542             -16.2820
        35        1.9982           -0.5941049             -16.1664
        36        1.9406           -0.5384904             -14.6531
        37        1.6756           -0.5092759             -13.8581 (HOMO)
        38        0.3091           -0.4563714             -12.4185 (LUMO)
        39        0.0698           -0.4307104             -11.7202
        40        0.0103           -0.3998806             -10.8813
        41        0.0009           -0.3605987              -9.8124
        42        0.0000           -0.3088969              -8.4055
        43                         -0.2124498              -5.7811
        44                         -0.1835792              -4.9954
        45                         -0.1358714              -3.6972
        46                         -0.1191707              -3.2428
        47                         -0.0920682              -2.5053
        48                         -0.0606918              -1.6515
       ...                                ...                  ...
        67                          0.5881385              16.0041
      -------------------------------------------------------------
                  HL-Gap            0.0529045 Eh            1.4396 eV

     #   Z          covCN         q      C6AA      α(0)
     1   6 C        3.711    -0.077    22.110     6.719
     2   7 N        2.734     0.044    20.480     6.721
     3   6 C        2.782     0.052    26.810     8.481
     4   7 N        2.682    -0.057    22.347     7.021
     5   6 C        1.871    -0.033    32.027     9.141
     6   6 C        2.722    -0.016    28.383     8.721
     7   6 C        2.792     0.251    22.789     7.820
     8   8 O        1.650    -0.270    18.501     5.806
     9   7 N        2.729    -0.039    21.989     6.964
    10   6 C        3.706    -0.061    21.830     6.679
    11   6 C        2.732     0.305    21.813     7.646
    12   8 O        0.859    -0.325    20.244     6.033
    13   7 N        2.728     0.007    21.140     6.829
    14   6 C        3.747    -0.080    22.095     6.705
    15   1 H        0.924     0.110     1.699     2.038
    16   1 H        0.925     0.089     1.888     2.149
    17   1 H        0.925     0.111     1.685     2.030
    18   1 H        0.925     0.099     1.796     2.096
    19   1 H        0.925     0.104     1.745     2.066
    20   1 H        0.925     0.099     1.793     2.094
    21   1 H        0.925     0.114     1.659     2.014
    22   1 H        0.925     0.101     1.780     2.087
    23   1 H        0.925     0.108     1.716     2.049
    24   1 H        0.925     0.119     1.623     1.992
    25   1 H        0.860     0.245     0.901     1.487

Wiberg/Mayer (AO) data.
largest (>0.10) Wiberg bond orders for each atom

     #   Z sym  total        # sym  WBO       # sym  WBO       # sym  WBO
 ---------------------------------------------------------------------------
     1   6 C    3.925 --     2 N    0.977    16 H    0.975    17 H    0.962
                            15 H    0.957
     2   7 N    3.567 --     3 C    1.354     6 C    1.059     1 C    0.977
     3   6 C    3.835 --     2 N    1.354     4 N    1.255    18 H    0.945
                             5 C    0.123
     4   7 N    3.555 --     3 C    1.255     5 C    1.225    25 H    0.896
     5   6 C    2.992 --    13 N    1.445     4 N    1.225     3 C    0.123
     6   6 C    3.210 --     7 C    1.183     2 N    1.059     8 O    0.759
     7   6 C    3.842 --     9 N    1.345     8 O    1.207     6 C    1.183
     8   8 O    2.163 --     7 C    1.207     6 C    0.759
     9   7 N    3.600 --     7 C    1.345    11 C    1.015    10 C    0.948
    10   6 C    3.911 --    19 H    0.975    20 H    0.968    21 H    0.963
                             9 N    0.948
    11   6 C    3.871 --    12 O    1.735     9 N    1.015    13 N    1.009
    12   8 O    2.036 --    11 C    1.735
    13   7 N    3.599 --     5 C    1.445    11 C    1.009    14 C    0.950
    14   6 C    3.906 --    23 H    0.973    22 H    0.967    24 H    0.960
                            13 N    0.950
    15   1 H    0.979 --     1 C    0.957
    16   1 H    0.991 --     1 C    0.975
    17   1 H    0.982 --     1 C    0.962
    18   1 H    0.987 --     3 C    0.945
    19   1 H    0.988 --    10 C    0.975
    20   1 H    0.989 --    10 C    0.968
    21   1 H    0.985 --    10 C    0.963
    22   1 H    0.988 --    14 C    0.967
    23   1 H    0.988 --    14 C    0.973
    24   1 H    0.980 --    14 C    0.960
    25   1 H    0.932 --     4 N    0.896
 ---------------------------------------------------------------------------

molecular dipole:
                 x           y           z       tot (Debye)
 q only:        1.609      -1.185      -0.702
   full:        1.812      -0.806      -1.119       5.788

           -------------------------------------------------
          | TOTAL ENERGY              -42.012835246469 Eh   |
          | GRADIENT NORM               0.007604998968 Eh/α |
          | HOMO-LUMO GAP               1.439604457454 eV   |
           -------------------------------------------------

 * finished run on 2024/06/05 at 20:00:11.924
