   * xtb version 6.6.1 (8d0f1dd) compiled by 'conda@1efc2f54142f' on 2023-08-01
          program call               : xtb xtbopt.xyz --opt crude --input .xc2 --gfn2

   ID    Z sym.   atoms
    1    6 C      1, 3, 5-7, 10, 11, 14
    2    7 N      2, 4, 9, 13
    3    8 O      8, 12
    4    1 H      15-25

          :  Hamiltonian                  GFN2-xTB          :
 * total energy  :   -42.0901926 Eh     change       -0.7318590E-12 Eh
   *** GEOMETRY OPTIMIZATION CONVERGED AFTER 1 ITERATIONS ***

 final structure:
================
25
 xtb: 6.6.1 (8d0f1dd)
C            3.15286693672295        1.19352347456313        0.02637227867721
N            2.20944978211176        0.11069436610257        0.00283537910410
C            2.51325220373229       -1.19052099713473       -0.01213019001656
N            1.35097953474885       -1.88332966703674       -0.01131596153745
C            0.29850396985913       -1.01553640094463        0.00334914650300
C            0.84119001192823        0.26408235044901        0.01331568456167
C            0.00839290152898        1.44417621535230        0.00812984163222
O            0.39031340233137        2.59100559631493        0.00236454415294
N           -1.34777433291287        1.10702839898345        0.00319232708082
C           -2.30824850732197        2.19989708662055       -0.00533310489132
C           -1.90783807943070       -0.15894888610144        0.00808484062857
O           -3.09654137731924       -0.32930649747840        0.01210119420550
N           -1.02475958165335       -1.25464974191874        0.00567120811523
C           -1.56865210122136       -2.59588880253900        0.00512366654930
H            3.62664454607218        1.25852541331650        1.00800559450423
H            3.92903805964071        1.02580369133791       -0.71967009313139
H            2.63303635208624        2.12896670823463       -0.17707997548104
H            4.96041436339045       -2.80692630843185       -0.11298229030280
H           -1.75764721275741        3.13824789123456        0.00259008722537
H           -2.93529085306485        2.13608351630121       -0.89560349366141
H           -2.95532861716425        2.13158475058133        0.87004561152221
H           -1.24104201493769       -3.13875399390905        0.89269532341236
H           -1.25823274008307       -3.13224595268161       -0.89261482831366
H           -2.65489588910719       -2.51400799429537        0.01544238405648
H            1.30260075692079       -2.89126567532057       -0.02141755669561

          :  Hamiltonian                  GFN2-xTB          :
         :: total energy             -42.090192568832 Eh    ::
         :: gradient norm              0.005469882290 Eh/a0 ::
         :: HOMO-LUMO gap              0.937803714461 eV    ::
         :: SCC energy               -42.595356805332 Eh    ::
         :: -> dispersion             -0.022535657125 Eh    ::
         :: repulsion energy           0.505070539083 Eh    ::

    * Orbital Energies and Occupations

         #    Occupation            Energy/Eh            Energy/eV
      -------------------------------------------------------------
         1        2.0000           -0.8972706             -24.4160
       ...           ...                  ...                  ...
        25        1.9997           -0.6669264             -18.1480
        26        1.9997           -0.6661870             -18.1279
        27        1.9987           -0.6426228             -17.4867
        28        1.9978           -0.6343640             -17.2619
        29        1.9961           -0.6250789             -17.0093
        30        1.9937           -0.6173996             -16.8003
        31        1.9912           -0.6121959             -16.6587
        32        1.9868           -0.6056899             -16.4817
        33        1.9718           -0.5935231             -16.1506
        34        1.9281           -0.5783641             -15.7381
        35        1.9097           -0.5746030             -15.6357
        36        1.7158           -0.5547545             -15.0956
        37        1.7087           -0.5542977             -15.0832 (HOMO)
        38        0.7990           -0.5198340             -14.1454 (LUMO)
        39        0.0031           -0.4238382             -11.5332
        40        0.0005           -0.3938960             -10.7185
        41        0.0001           -0.3746109             -10.1937
        42        0.0000           -0.2955327              -8.0419
        43                         -0.2113813              -5.7520
        44                         -0.1676785              -4.5628
        45                         -0.1434815              -3.9043
        46                         -0.1330358              -3.6201
        47                         -0.0678671              -1.8468
        48                         -0.0405178              -1.1025
       ...                                ...                  ...
        67                          0.5409441              14.7198
      -------------------------------------------------------------
                  HL-Gap            0.0344637 Eh            0.9378 eV

     #   Z          covCN         q      C6AA      α(0)
     1   6 C        3.692    -0.084    22.297     6.757
     2   7 N        2.850     0.077    19.897     6.625
     3   6 C        2.067    -0.053    32.375     9.191
     4   7 N        2.810    -0.060    22.397     7.029
     5   6 C        3.021     0.117    25.410     8.269
     6   6 C        3.088    -0.011    28.197     8.704
     7   6 C        2.764     0.274    22.366     7.745
     8   8 O        0.858    -0.335    20.417     6.058
     9   7 N        2.746    -0.074    22.677     7.073
    10   6 C        3.709    -0.062    21.836     6.679
    11   6 C        2.729     0.319    21.582     7.606
    12   8 O        0.860    -0.339    20.496     6.070
    13   7 N        2.738    -0.044    22.085     6.980
    14   6 C        3.697    -0.071    22.031     6.714
    15   1 H        0.924     0.110     1.698     2.038
    16   1 H        0.925     0.110     1.698     2.038
    17   1 H        0.925     0.121     1.604     1.981
    18   1 H        0.000     0.129     3.851     3.588
    19   1 H        0.925     0.121     1.605     1.981
    20   1 H        0.924     0.111     1.692     2.034
    21   1 H        0.924     0.111     1.687     2.031
    22   1 H        0.924     0.093     1.847     2.125
    23   1 H        0.924     0.093     1.846     2.125
    24   1 H        0.925     0.129     1.546     1.944
    25   1 H        0.860     0.218     1.018     1.580

Wiberg/Mayer (AO) data.
largest (>0.10) Wiberg bond orders for each atom

     #   Z sym  total        # sym  WBO       # sym  WBO       # sym  WBO
 ---------------------------------------------------------------------------
     1   6 C    3.904 --     2 N    0.997    17 H    0.959    16 H    0.958
                            15 H    0.947
     2   7 N    3.647 --     3 C    1.366     6 C    1.167     1 C    0.997
     3   6 C    2.878 --     2 N    1.366     4 N    1.288
     4   7 N    3.583 --     3 C    1.288     5 C    1.195    25 H    0.924
     5   6 C    3.906 --     6 C    1.320    13 N    1.211     4 N    1.195
     6   6 C    3.824 --     5 C    1.320     2 N    1.167     7 C    1.073
     7   6 C    3.949 --     8 O    1.683     9 N    1.094     6 C    1.073
     8   8 O    1.988 --     7 C    1.683     9 N    0.130
     9   7 N    3.512 --    11 C    1.120     7 C    1.094    10 C    0.975
                             8 O    0.130    12 O    0.124
    10   6 C    3.878 --     9 N    0.975    19 H    0.961    21 H    0.949
                            20 H    0.949
    11   6 C    3.954 --    12 O    1.693     9 N    1.120    13 N    1.049
    12   8 O    2.003 --    11 C    1.693     9 N    0.124    13 N    0.109
    13   7 N    3.498 --     5 C    1.211    11 C    1.049    14 C    0.978
                            12 O    0.109
    14   6 C    3.908 --    13 N    0.978    24 H    0.962    22 H    0.962
                            23 H    0.961
    15   1 H    0.974 --     1 C    0.947
    16   1 H    0.978 --     1 C    0.958
    17   1 H    0.979 --     1 C    0.959
    18   1 H    0.061
    19   1 H    0.979 --    10 C    0.961
    20   1 H    0.967 --    10 C    0.949
    21   1 H    0.967 --    10 C    0.949
    22   1 H    0.978 --    14 C    0.962
    23   1 H    0.978 --    14 C    0.961
    24   1 H    0.982 --    14 C    0.962
    25   1 H    0.951 --     4 N    0.924
 ---------------------------------------------------------------------------

molecular dipole:
                 x           y           z       tot (Debye)
 q only:        2.000      -1.828      -0.019
   full:        1.796      -2.088      -0.010       7.000

           -------------------------------------------------
          | TOTAL ENERGY              -42.090192568832 Eh   |
          | GRADIENT NORM               0.005469882290 Eh/α |
          | HOMO-LUMO GAP               0.937803714461 eV   |
           -------------------------------------------------

 * finished run on 2024/06/05 at 20:00:13.221
