   * xtb version 6.6.1 (8d0f1dd) compiled by 'conda@1efc2f54142f' on 2023-08-01
          program call               : xtb struc.xyz --opt loose --input .xc1 --gfn2

   ID    Z sym.   atoms
    1    7 N      1, 17
    2    6 C      2-6, 8, 9, 11-16, 18-23, 25, 26, 28-33
    3    8 O      7, 10, 24, 27
    4    1 H      34-72
constraining bond 24 57 to    3.9000000 Å, actual value:    1.9973468 Å

          :  Hamiltonian                  GFN2-xTB          :
 * total energy  :   -98.7577524 Eh     change       -0.4035485E-08 Eh
 * total energy  :   -98.9701857 Eh     change       -0.2124333E+00 Eh
 * total energy  :   -99.0986239 Eh     change       -0.1284381E+00 Eh
 * total energy  :   -99.1587383 Eh     change       -0.6011443E-01 Eh
 * total energy  :   -99.1849056 Eh     change       -0.2616731E-01 Eh
 * total energy  :   -99.1958976 Eh     change       -0.1099204E-01 Eh
 * total energy  :   -99.2014916 Eh     change       -0.5594010E-02 Eh
 * total energy  :   -99.2075623 Eh     change       -0.6070652E-02 Eh
 * total energy  :   -99.2182768 Eh     change       -0.1071452E-01 Eh
 * total energy  :   -99.2294115 Eh     change       -0.1113473E-01 Eh
 * total energy  :   -99.2691750 Eh     change       -0.1230127E-03 Eh
 * total energy  :   -99.2692670 Eh     change       -0.9192576E-04 Eh
 * total energy  :   -99.2693793 Eh     change       -0.1123547E-03 Eh
 * total energy  :   -99.2694538 Eh     change       -0.7442734E-04 Eh
 * total energy  :   -99.2695396 Eh     change       -0.8588932E-04 Eh
 * total energy  :   -99.2696167 Eh     change       -0.7708283E-04 Eh
 * total energy  :   -99.2696870 Eh     change       -0.7029666E-04 Eh
 * total energy  :   -99.2697393 Eh     change       -0.5228934E-04 Eh
 * total energy  :   -99.2697877 Eh     change       -0.4835939E-04 Eh
   *** GEOMETRY OPTIMIZATION CONVERGED AFTER 45 ITERATIONS ***

 final structure:
================
72
 xtb: 6.6.1 (8d0f1dd)
N           -1.87190687298346        2.81739020286859        2.21826688132769
C           -1.84488844594921        2.10338919705586        1.19412867977505
C           -3.00206657828510        1.90631261364886        0.25471923817931
C           -3.46552115704112        0.45876779498922        0.31535734101969
C           -4.39519159315050       -0.01028327104084       -0.61507017831003
C           -4.86722878073312       -1.31139247151003       -0.57430001566280
O           -5.77178147911798       -1.83935918307056       -1.42497504553795
C           -6.38571578564289       -1.00794705076521       -2.38141657181100
C           -4.38915876737047       -2.19826872878184        0.42776975794168
O           -4.89941404147160       -3.44587188143047        0.38973925273514
C           -4.54949836315614       -4.35980257735573        1.40257465712249
C           -3.46559302030797       -1.72722045323954        1.34677373814287
C           -3.01327094435953       -0.41447208261746        1.29195673783068
C           -2.45822345081663        2.23186266273814       -1.16148111677155
C           -1.53264796153100        1.15344700593594       -1.75455762064914
C           -0.20067640672664        1.10089302876775       -1.11263899331853
N            0.44354804215340       -0.00948662283656       -0.76314478106506
C            1.80737916673464        0.05391523774801       -0.29637652527432
C            2.81595817074668       -0.35286679600470       -1.38984179131031
C            4.21599881656554       -0.12409444348810       -0.89529632886360
C            4.84673870142934        1.09497455004580       -1.10997326013006
C            6.11867819359189        1.32846353732355       -0.62409229471622
C            6.78392929868692        0.34152861814656        0.10047402487476
O            8.01629561967841        0.46215039029356        0.64822061175976
C            8.84772210477207        1.44315276729345        0.43081387992039
C            6.14849145686808       -0.90938510715225        0.33165263205870
O            6.87245461004797       -1.80059013172924        1.03105527226955
C            6.34324589375687       -3.08372533503423        1.27740856586325
C            4.87299229703745       -1.11658341123796       -0.17164655694230
C           -0.16596433530328       -1.31295534125739       -0.87280299108693
C           -4.22048062905757        2.82104973139033        0.57849293321640
C           -4.83134512927766        2.47658876709972        1.93482748706304
C           -3.88593271155721        4.30915878182739        0.52606983333705
H           -4.76737294815961        0.65872396246258       -1.37299630629745
H           -6.90561696613698       -0.16918426302194       -1.90880985775905
H           -7.11056258799776       -1.63807209182343       -2.89298419716319
H           -5.66181215964941       -0.62801095073610       -3.10977423674388
H           -4.82193467812187       -3.98389618148636        2.39315323888177
H           -5.11855987758450       -5.26272102612471        1.19031477271488
H           -3.48007142422881       -4.59313313106230        1.38136529252598
H           -3.09831574233857       -2.37214470903585        2.12853729457726
H           -2.32019625616741       -0.07558225793899        2.04640368745703
H           -3.30192833678307        2.36046402799922       -1.83862661445533
H           -1.92075609245802        3.18005051904049       -1.12175739555427
H           -2.03210144255892        0.18676442039069       -1.72386181718169
H           -1.37976361911069        1.41759174353483       -2.80932161373417
H           -0.94118432956941        1.57052079469241        0.83899033119805
H            0.35772133931583        2.02281447495342       -1.04690915166245
H            1.92231683819764       -0.60656430673312        0.56763275150476
H            2.03096101216555        1.07404064669380        0.02310812107159
H            2.63255774179140        0.25288416997903       -2.27847756152969
H            2.67317020140198       -1.40176148038673       -1.65056460960508
H            4.34530632148257        1.86996641063821       -1.66889766326672
H            6.58469462670278        2.28444741102204       -0.79795940517976
H            9.78143965883059        1.37359476324377        0.95521199598546
H            8.65741786939318        2.24221037154441       -0.26365179754268
H           11.16361371021772        1.75669181002875       -1.22244547415614
H            7.11607715306328       -3.61467603450542        1.82892413742038
H            5.43568554562206       -3.03115865731148        1.88574032429770
H            6.13323412793689       -3.61506996914647        0.34493007888924
H            4.38048202708221       -2.06311564913042       -0.01387823873534
H           -0.35444741807382       -1.57377980532023       -1.91602861836284
H           -1.11329427393181       -1.33932056376226       -0.32782016356528
H            0.49989131329267       -2.05759607972658       -0.44500573718660
H           -4.97413407100952        2.61685885601753       -0.19059661559131
H           -4.11986831696213        2.68487326326997        2.72721313912247
H           -5.11736413542119        1.42869346275554        1.98261945345245
H           -5.71917866068636        3.08143149765549        2.09858751472528
H           -3.11138540668630        4.54766328527216        1.24829760848802
H           -3.56217138783612        4.61836172523010       -0.46427666532846
H           -4.77380933453423        4.88244399272165        0.77942350188030
H           -1.01915034147786        2.90009507214758        2.76276788609631

          :  Hamiltonian                  GFN2-xTB          :
         :: total energy             -99.269787671199 Eh    ::
         :: gradient norm              0.001365264057 Eh/a0 ::
         :: HOMO-LUMO gap              0.569239461803 eV    ::
         :: SCC energy              -100.645205092859 Eh    ::
         :: -> dispersion             -0.075182241242 Eh    ::
         :: repulsion energy           1.374095035246 Eh    ::

    * Orbital Energies and Occupations

         #    Occupation            Energy/Eh            Energy/eV
      -------------------------------------------------------------
         1        2.0000           -0.8464646             -23.0335
       ...           ...                  ...                  ...
        78        1.9988           -0.5336520             -14.5214
        79        1.9984           -0.5281909             -14.3728
        80        1.9983           -0.5275827             -14.3563
        81        1.9976           -0.5222169             -14.2102
        82        1.9961           -0.5145618             -14.0019
        83        1.9955           -0.5122333             -13.9386
        84        1.9950           -0.5106992             -13.8968
        85        1.9945           -0.5091278             -13.8541
        86        1.9818           -0.4900131             -13.3339
        87        1.9766           -0.4859428             -13.2232
        88        1.9408           -0.4709908             -12.8163
        89        1.8781           -0.4590318             -12.4909
        90        1.2246           -0.4229624             -11.5094 (HOMO)
        91        0.5929           -0.4020433             -10.9402 (LUMO)
        92        0.4041           -0.3939799             -10.7207
        93        0.0153           -0.3386425              -9.2149
        94        0.0063           -0.3246695              -8.8347
        95        0.0048           -0.3201054              -8.7105
        96        0.0037           -0.3161153              -8.6019
        97        0.0030           -0.3129801              -8.5166
        98        0.0000           -0.2012992              -5.4776
        99        0.0000           -0.1903494              -5.1797
       100                         -0.1382878              -3.7630
       101                         -0.0723891              -1.9698
       ...                                ...                  ...
       171                          0.5730604              15.5938
      -------------------------------------------------------------
                  HL-Gap            0.0209192 Eh            0.5692 eV

     #   Z          covCN         q      C6AA      α(0)
     1   7 N        1.774    -0.269    27.810     7.809
     2   6 C        2.827     0.101    25.751     8.315
     3   6 C        3.907     0.006    20.414     6.422
     4   6 C        2.974     0.002    27.981     8.677
     5   6 C        2.921    -0.080    30.004     8.983
     6   6 C        2.862     0.129    25.169     8.223
     7   8 O        1.706    -0.231    17.827     5.701
     8   6 C        3.644     0.028    20.444     6.499
     9   6 C        2.864     0.128    25.192     8.227
    10   8 O        1.706    -0.230    17.808     5.698
    11   6 C        3.645     0.027    20.449     6.499
    12   6 C        2.914    -0.075    29.873     8.962
    13   6 C        2.921    -0.054    29.331     8.881
    14   6 C        3.812    -0.065    21.728     6.635
    15   6 C        3.802    -0.069    21.820     6.650
    16   6 C        2.843     0.005    27.907     8.658
    17   7 N        2.729     0.008    21.128     6.827
    18   6 C        3.756    -0.016    20.909     6.520
    19   6 C        3.808    -0.072    21.873     6.658
    20   6 C        2.969     0.006    27.876     8.660
    21   6 C        2.921    -0.049    29.207     8.863
    22   6 C        2.912    -0.055    29.374     8.887
    23   6 C        2.870     0.105    25.678     8.307
    24   8 O        1.710    -0.095    15.765     5.361
    25   6 C        2.734     0.040    27.079     8.520
    26   6 C        2.861     0.140    24.949     8.187
    27   8 O        1.706    -0.227    17.772     5.692
    28   6 C        3.645     0.025    20.492     6.506
    29   6 C        2.919    -0.080    29.989     8.980
    30   6 C        3.699    -0.070    22.010     6.710
    31   6 C        3.853    -0.007    20.673     6.467
    32   6 C        3.756    -0.118    22.824     6.812
    33   6 C        3.755    -0.119    22.830     6.813
    34   1 H        0.926     0.052     2.299     2.371
    35   1 H        0.924     0.054     2.276     2.359
    36   1 H        0.925     0.081     1.970     2.195
    37   1 H        0.924     0.047     2.359     2.402
    38   1 H        0.924     0.055     2.263     2.353
    39   1 H        0.925     0.081     1.971     2.195
    40   1 H        0.924     0.047     2.354     2.400
    41   1 H        0.926     0.051     2.307     2.375
    42   1 H        0.926     0.038     2.480     2.463
    43   1 H        0.925     0.060     2.196     2.317
    44   1 H        0.924     0.053     2.278     2.360
    45   1 H        0.925     0.066     2.129     2.282
    46   1 H        0.923     0.079     1.992     2.207
    47   1 H        0.922     0.005     2.971     2.695
    48   1 H        0.926     0.068     2.110     2.272
    49   1 H        0.924     0.067     2.123     2.279
    50   1 H        0.924     0.067     2.122     2.278
    51   1 H        0.924     0.059     2.214     2.327
    52   1 H        0.925     0.059     2.214     2.327
    53   1 H        0.926     0.053     2.288     2.366
    54   1 H        0.926     0.064     2.153     2.295
    55   1 H        0.926     0.109     1.708     2.044
    56   1 H        0.926     0.079     1.994     2.208
    57   1 H        0.000    -0.133    17.161     7.575
    58   1 H        0.925     0.085     1.933     2.174
    59   1 H        0.924     0.051     2.310     2.377
    60   1 H        0.924     0.055     2.259     2.351
    61   1 H        0.926     0.053     2.287     2.365
    62   1 H        0.924     0.076     2.018     2.221
    63   1 H        0.924     0.079     1.988     2.205
    64   1 H        0.925     0.079     1.993     2.208
    65   1 H        0.924     0.037     2.490     2.468
    66   1 H        0.925     0.068     2.104     2.268
    67   1 H        0.925     0.035     2.515     2.480
    68   1 H        0.925     0.051     2.309     2.376
    69   1 H        0.925     0.061     2.190     2.314
    70   1 H        0.925     0.034     2.525     2.485
    71   1 H        0.925     0.054     2.266     2.354
    72   1 H        0.860     0.156     1.363     1.829

Wiberg/Mayer (AO) data.
largest (>0.10) Wiberg bond orders for each atom

     #   Z sym  total        # sym  WBO       # sym  WBO       # sym  WBO
 ---------------------------------------------------------------------------
     1   7 N    3.040 --     2 C    1.955    72 H    0.942
     2   6 C    3.928 --     1 N    1.955     3 C    0.995    47 H    0.899
     3   6 C    3.976 --     2 C    0.995     4 C    0.970    14 C    0.957
                            31 C    0.943
     4   6 C    3.951 --    13 C    1.416     5 C    1.368     3 C    0.970
     5   6 C    3.963 --     6 C    1.402     4 C    1.368    34 H    0.958
     6   6 C    3.907 --     5 C    1.402     9 C    1.223     7 O    1.098
     7   8 O    2.254 --     6 C    1.098     8 C    0.978
     8   6 C    3.932 --     7 O    0.978    36 H    0.977    35 H    0.974
                            37 H    0.974
     9   6 C    3.903 --    12 C    1.393     6 C    1.223    10 O    1.100
    10   8 O    2.252 --     9 C    1.100    11 C    0.978
    11   6 C    3.932 --    10 O    0.978    39 H    0.977    40 H    0.974
                            38 H    0.974
    12   6 C    3.963 --    13 C    1.402     9 C    1.393    41 H    0.964
    13   6 C    3.956 --     4 C    1.416    12 C    1.402    42 H    0.963
    14   6 C    3.972 --    15 C    0.981    44 H    0.972    43 H    0.968
                             3 C    0.957
    15   6 C    3.987 --    16 C    1.060    14 C    0.981    45 H    0.961
                            46 H    0.928
    16   6 C    3.577 --    17 N    1.387    15 C    1.060    48 H    0.958
    17   7 N    3.467 --    16 C    1.387    30 C    0.998    18 C    0.991
    18   6 C    3.957 --    17 N    0.991    50 H    0.968    19 C    0.966
                            49 H    0.964
    19   6 C    3.977 --    20 C    1.011    51 H    0.972    52 H    0.971
                            18 C    0.966
    20   6 C    3.917 --    21 C    1.393    29 C    1.385    19 C    1.011
    21   6 C    3.972 --    22 C    1.445    20 C    1.393    53 H    0.967
    22   6 C    3.918 --    21 C    1.445    23 C    1.355    54 H    0.961
    23   6 C    3.891 --    22 C    1.355    26 C    1.227    24 O    1.056
    24   8 O    2.440 --    25 C    1.283    23 C    1.056
    25   6 C    3.377 --    24 O    1.283    56 H    0.964    55 H    0.961
    26   6 C    3.895 --    29 C    1.389    23 C    1.227    27 O    1.114
    27   8 O    2.275 --    26 C    1.114    28 C    0.973
    28   6 C    3.930 --    58 H    0.977    59 H    0.975    60 H    0.975
                            27 O    0.973
    29   6 C    3.960 --    26 C    1.389    20 C    1.385    61 H    0.962
    30   6 C    3.958 --    17 N    0.998    64 H    0.978    62 H    0.967
                            63 H    0.961
    31   6 C    3.973 --    33 C    1.009    32 C    1.008    65 H    0.960
                             3 C    0.943
    32   6 C    3.980 --    31 C    1.008    67 H    0.982    68 H    0.982
                            66 H    0.974
    33   6 C    3.983 --    31 C    1.009    70 H    0.983    71 H    0.980
                            69 H    0.976
    34   1 H    0.996 --     5 C    0.958
    35   1 H    0.994 --     8 C    0.974
    36   1 H    0.993 --     8 C    0.977
    37   1 H    0.994 --     8 C    0.974
    38   1 H    0.993 --    11 C    0.974
    39   1 H    0.993 --    11 C    0.977
    40   1 H    0.994 --    11 C    0.974
    41   1 H    0.996 --    12 C    0.964
    42   1 H    0.998 --    13 C    0.963
    43   1 H    0.995 --    14 C    0.968
    44   1 H    0.996 --    14 C    0.972
    45   1 H    0.995 --    15 C    0.961
    46   1 H    0.969 --    15 C    0.928
    47   1 H    0.987 --     2 C    0.899
    48   1 H    0.995 --    16 C    0.958
    49   1 H    0.990 --    18 C    0.964
    50   1 H    0.994 --    18 C    0.968
    51   1 H    0.995 --    19 C    0.972
    52   1 H    0.995 --    19 C    0.971
    53   1 H    0.997 --    21 C    0.967
    54   1 H    0.995 --    22 C    0.961
    55   1 H    0.987 --    25 C    0.961
    56   1 H    0.994 --    25 C    0.964
    57   1 H    0.053
    58   1 H    0.992 --    28 C    0.977
    59   1 H    0.995 --    28 C    0.975
    60   1 H    0.994 --    28 C    0.975
    61   1 H    0.996 --    29 C    0.962
    62   1 H    0.985 --    30 C    0.967
    63   1 H    0.986 --    30 C    0.961
    64   1 H    0.994 --    30 C    0.978
    65   1 H    0.993 --    31 C    0.960
    66   1 H    0.991 --    32 C    0.974
    67   1 H    0.997 --    32 C    0.982
    68   1 H    0.994 --    32 C    0.982
    69   1 H    0.993 --    33 C    0.976
    70   1 H    0.997 --    33 C    0.983
    71   1 H    0.994 --    33 C    0.980
    72   1 H    0.971 --     1 N    0.942
 ---------------------------------------------------------------------------

molecular dipole:
                 x           y           z       tot (Debye)
 q only:        0.151      -0.434      -0.425
   full:        0.519      -0.524      -0.600       2.416

           -------------------------------------------------
          | TOTAL ENERGY              -99.269787671199 Eh   |
          | GRADIENT NORM               0.001365264057 Eh/α |
          | HOMO-LUMO GAP               0.569239461803 eV   |
           -------------------------------------------------

 * finished run on 2024/04/06 at 11:14:30.935
