   * xtb version 6.6.1 (8d0f1dd) compiled by 'conda@1efc2f54142f' on 2023-08-01
          program call               : xtb struc.xyz --opt loose --input .xc1 --gfn2

   ID    Z sym.   atoms
    1    6 C      1, 3, 5-7, 10, 11, 14
    2    7 N      2, 4, 9, 13
    3    8 O      8, 12
    4    1 H      15-25
constraining bond 7 9 to    3.9200000 Å, actual value:    1.3883974 Å

          :  Hamiltonian                  GFN2-xTB          :
 * total energy  :   -19.3608673 Eh     change       -0.6650680E-10 Eh
 * total energy  :   -29.0926548 Eh     change       -0.9731787E+01 Eh
 * total energy  :   -35.8344042 Eh     change       -0.6741749E+01 Eh
 * total energy  :   -39.8665146 Eh     change       -0.4032110E+01 Eh
 * total energy  :   -41.4698174 Eh     change       -0.1603303E+01 Eh
 * total energy  :   -41.7220051 Eh     change       -0.2521877E+00 Eh
 * total energy  :   -41.7452686 Eh     change       -0.2326351E-01 Eh
 * total energy  :   -41.7905432 Eh     change       -0.4527458E-01 Eh
 * total energy  :   -41.8206350 Eh     change       -0.3009181E-01 Eh
 * total energy  :   -41.7906778 Eh     change        0.2995725E-01 Eh
 * total energy  :   -42.0317721 Eh     change       -0.1480132E-03 Eh
 * total energy  :   -42.0319843 Eh     change       -0.2121969E-03 Eh
 * total energy  :   -42.0322276 Eh     change       -0.2432535E-03 Eh
 * total energy  :   -42.0323967 Eh     change       -0.1691136E-03 Eh
 * total energy  :   -42.0324895 Eh     change       -0.9280294E-04 Eh
 * total energy  :   -42.0326831 Eh     change       -0.1936311E-03 Eh
 * total energy  :   -42.0327442 Eh     change       -0.6102585E-04 Eh
 * total energy  :   -42.0328341 Eh     change       -0.8990223E-04 Eh
 * total energy  :   -42.0328654 Eh     change       -0.3138496E-04 Eh
   *** GEOMETRY OPTIMIZATION CONVERGED AFTER 45 ITERATIONS ***

 final structure:
================
25
 xtb: 6.6.1 (8d0f1dd)
C            3.70291935976121        0.85797892477841        0.14224483506028
N            2.57833019603665       -0.02180906171235        0.01073529326762
C            2.59253392957283       -1.31070913512339       -0.31583249626179
N            1.33425467062379       -1.78860330955417       -0.31557720396307
C            0.44406922593468       -0.79959148910056        0.00810610519403
C            1.24024880271355        0.37688901749348        0.24366793006007
C            0.92050425897801        1.60023921201464        0.68457634158330
O            0.63527619850239        2.67556893582477        1.03613123790022
N           -2.64750628255658        0.59029848806355       -0.58068343414471
C           -3.06820492367131        1.96014263099409       -0.46453126347710
C           -1.76973968153253        0.01969081217819        0.35414214437783
O           -3.10228574498872       -0.28280635806888        0.48645644693078
N           -0.87830301727437       -1.01549500779165        0.09394035192615
C           -1.35120219905232       -2.39636700106116        0.14213078501876
H            3.90307193302536        1.07135519314253        1.19417629239588
H            4.58235669019171        0.39646376936448       -0.29903582482377
H            3.49851934523832        1.80016954448626       -0.36653761884218
H            3.46780191696798       -1.88199421623133       -0.55080143669690
H           -2.33239399931686        2.57507861298685       -0.97916350358697
H           -4.03002641516694        2.05089623922359       -0.96629352001569
H           -3.16963396752929        2.28430787694622        0.57346059429544
H           -0.82123686139877       -2.96960986831674        0.90292401672085
H           -1.23963691699065       -2.86142480513704       -0.83852859007380
H           -2.41114939227212       -2.37624838709413        0.38983430223428
H            1.08186438830428       -2.73618207670623       -0.55437016717882

          :  Hamiltonian                  GFN2-xTB          :
         :: total energy             -42.032865451719 Eh    ::
         :: gradient norm              0.001432239307 Eh/a0 ::
         :: HOMO-LUMO gap              0.853244082457 eV    ::
         :: SCC energy               -42.539046425132 Eh    ::
         :: -> dispersion             -0.021029209990 Eh    ::
         :: repulsion energy           0.506060246831 Eh    ::

    * Orbital Energies and Occupations

         #    Occupation            Energy/Eh            Energy/eV
      -------------------------------------------------------------
         1        2.0000           -0.9024668             -24.5574
       ...           ...                  ...                  ...
        25        2.0000           -0.6712670             -18.2661
        26        2.0000           -0.6625507             -18.0289
        27        2.0000           -0.6595193             -17.9464
        28        2.0000           -0.6414504             -17.4548
        29        2.0000           -0.6363254             -17.3153
        30        1.9999           -0.6246678             -16.9981
        31        1.9999           -0.6180496             -16.8180
        32        1.9999           -0.6165957             -16.7784
        33        1.9992           -0.5886963             -16.0192
        34        1.9989           -0.5832263             -15.8704
        35        1.9951           -0.5600033             -15.2385
        36        1.9575           -0.5253649             -14.2959
        37        1.3462           -0.4761750             -12.9574 (HOMO)
        38        0.4427           -0.4448189             -12.1041 (LUMO)
        39        0.2333           -0.4326782             -11.7738
        40        0.0275           -0.3970794             -10.8051
        41        0.0001           -0.3052344              -8.3059
        42        0.0000           -0.2724771              -7.4145
        43                         -0.1951145              -5.3093
        44                         -0.1819262              -4.9505
        45                         -0.1577335              -4.2921
        46                         -0.1002031              -2.7267
        47                         -0.0936455              -2.5482
        48                         -0.0442409              -1.2039
       ...                                ...                  ...
        67                          0.9233589              25.1259
      -------------------------------------------------------------
                  HL-Gap            0.0313561 Eh            0.8532 eV

     #   Z          covCN         q      C6AA      α(0)
     1   6 C        3.691    -0.084    22.297     6.757
     2   7 N        2.817     0.047    20.416     6.711
     3   6 C        2.965     0.049    26.887     8.505
     4   7 N        2.784    -0.059    22.381     7.026
     5   6 C        2.979     0.104    25.698     8.315
     6   6 C        3.029    -0.012    28.291     8.724
     7   6 C        1.843     0.216    26.065     8.247
     8   8 O        0.856    -0.140    17.123     5.548
     9   7 N        2.719    -0.028    21.795     6.934
    10   6 C        3.688    -0.053    21.732     6.673
    11   6 C        2.704     0.120    25.348     8.241
    12   8 O        1.755    -0.254    18.195     5.760
    13   7 N        2.731    -0.013    21.515     6.889
    14   6 C        3.703    -0.072    22.044     6.713
    15   1 H        0.924     0.102     1.763     2.076
    16   1 H        0.925     0.103     1.756     2.072
    17   1 H        0.925     0.102     1.770     2.080
    18   1 H        0.926     0.118     1.632     1.997
    19   1 H        0.925     0.077     2.009     2.216
    20   1 H        0.925     0.095     1.829     2.115
    21   1 H        0.924     0.076     2.022     2.224
    22   1 H        0.925     0.075     2.036     2.231
    23   1 H        0.924     0.083     1.951     2.184
    24   1 H        0.925     0.123     1.592     1.973
    25   1 H        0.860     0.227     0.979     1.550

Wiberg/Mayer (AO) data.
largest (>0.10) Wiberg bond orders for each atom

     #   Z sym  total        # sym  WBO       # sym  WBO       # sym  WBO
 ---------------------------------------------------------------------------
     1   6 C    3.933 --     2 N    0.997    16 H    0.973    17 H    0.965
                            15 H    0.958
     2   7 N    3.534 --     3 C    1.351     6 C    1.039     1 C    0.997
     3   6 C    3.754 --     2 N    1.351     4 N    1.270    18 H    0.952
     4   7 N    3.568 --     3 C    1.270     5 C    1.179    25 H    0.916
     5   6 C    3.796 --    13 N    1.253     4 N    1.179     6 C    1.154
     6   6 C    3.869 --     7 C    1.402     5 C    1.154     2 N    1.039
                             8 O    0.118
     7   6 C    3.520 --     8 O    2.019     6 C    1.402
     8   8 O    2.216 --     7 C    2.019     6 C    0.118
     9   7 N    2.964 --    10 C    1.014    11 C    0.984    12 O    0.895
    10   6 C    3.944 --     9 N    1.014    21 H    0.966    20 H    0.965
                            19 H    0.965
    11   6 C    3.185 --    13 N    1.083     9 N    0.984    12 O    0.968
    12   8 O    1.972 --    11 C    0.968     9 N    0.895
    13   7 N    3.509 --     5 C    1.253    11 C    1.083    14 C    0.960
    14   6 C    3.918 --    22 H    0.974    24 H    0.965    23 H    0.964
                            13 N    0.960
    15   1 H    0.982 --     1 C    0.958
    16   1 H    0.988 --     1 C    0.973
    17   1 H    0.985 --     1 C    0.965
    18   1 H    0.983 --     3 C    0.952
    19   1 H    0.992 --    10 C    0.965
    20   1 H    0.984 --    10 C    0.965
    21   1 H    0.981 --    10 C    0.966
    22   1 H    0.992 --    14 C    0.974
    23   1 H    0.985 --    14 C    0.964
    24   1 H    0.984 --    14 C    0.965
    25   1 H    0.947 --     4 N    0.916
 ---------------------------------------------------------------------------

molecular dipole:
                 x           y           z       tot (Debye)
 q only:        2.918      -1.323      -0.518
   full:        2.960      -1.643      -0.478       8.689

           -------------------------------------------------
          | TOTAL ENERGY              -42.032865451719 Eh   |
          | GRADIENT NORM               0.001432239307 Eh/α |
          | HOMO-LUMO GAP               0.853244082457 eV   |
           -------------------------------------------------

 * finished run on 2024/06/05 at 19:59:14.676
