   * xtb version 6.6.1 (8d0f1dd) compiled by 'conda@1efc2f54142f' on 2023-08-01
          program call               : xtb struc.xyz --opt loose --input .xc1 --gfn2

   ID    Z sym.   atoms
    1    6 C      1, 3, 5-7, 10, 11, 14
    2    7 N      2, 4, 9, 13
    3    8 O      8, 12
    4    1 H      15-25
constraining bond 1 18 to    5.1400000 Å, actual value:    2.8227330 Å

          :  Hamiltonian                  GFN2-xTB          :
 * total energy  :   -32.6600399 Eh     change       -0.6650680E-10 Eh
 * total energy  :   -36.6119759 Eh     change       -0.3951936E+01 Eh
 * total energy  :   -39.4382596 Eh     change       -0.2826284E+01 Eh
 * total energy  :   -41.1374212 Eh     change       -0.1699162E+01 Eh
 * total energy  :   -41.8009063 Eh     change       -0.6634851E+00 Eh
 * total energy  :   -41.8951009 Eh     change       -0.9419452E-01 Eh
 * total energy  :   -41.9095532 Eh     change       -0.1445236E-01 Eh
 * total energy  :   -41.9512221 Eh     change       -0.4166890E-01 Eh
 * total energy  :   -41.9585888 Eh     change       -0.7366714E-02 Eh
 * total energy  :   -41.9685669 Eh     change       -0.9978119E-02 Eh
 * total energy  :   -42.0880195 Eh     change       -0.9936988E-04 Eh
 * total energy  :   -42.0881123 Eh     change       -0.9276374E-04 Eh
 * total energy  :   -42.0881719 Eh     change       -0.5963041E-04 Eh
 * total energy  :   -42.0882335 Eh     change       -0.6165443E-04 Eh
 * total energy  :   -42.0882347 Eh     change       -0.1111631E-05 Eh
 * total energy  :   -42.0882860 Eh     change       -0.5135036E-04 Eh
 * total energy  :   -42.0883591 Eh     change       -0.7307083E-04 Eh
 * total energy  :   -42.0884097 Eh     change       -0.5065007E-04 Eh
 * total energy  :   -42.0884302 Eh     change       -0.2050911E-04 Eh
   *** GEOMETRY OPTIMIZATION CONVERGED AFTER 45 ITERATIONS ***

 final structure:
================
25
 xtb: 6.6.1 (8d0f1dd)
C            3.15760032072581        1.25240974992314        0.01517621398058
N            2.21963184088394        0.16437308166570       -0.00666353845520
C            2.52872053556083       -1.13490343183519       -0.02202465364184
N            1.37182375950875       -1.83617944823211       -0.01822827632734
C            0.31477229775146       -0.97579987646826       -0.00126921543534
C            0.85225849356466        0.30558139466177        0.00784313724955
C            0.00795700630866        1.47893016439708        0.00351778193119
O            0.38409700591246        2.62745899012509       -0.00718817340650
N           -1.34538113894866        1.13295358370130        0.00692049623749
C           -2.31409096432163        2.21757788517441        0.00435092397617
C           -1.89730916186518       -0.13719162207162        0.00787929729488
O           -3.08477062721379       -0.31627024415400        0.01066798329479
N           -1.00565062429847       -1.22556476478698        0.00317126536085
C           -1.53767774123479       -2.57141497995753        0.00010710807200
H            3.60014761862804        1.34720681141172        1.00903234843863
H            3.95751169762545        1.06400317631157       -0.69940307964803
H            2.64194319216654        2.17973463857632       -0.23083192498129
H            4.70679119319808       -3.64725198240535       -0.03167739448242
H           -1.77207258364392        3.16087894656465        0.01172297541018
H           -2.94481505821677        2.15001616651529       -0.88312446235995
H           -2.95731249882868        2.14202972734900        0.88205607918476
H           -1.21115316235500       -3.11109785186362        0.89008835190894
H           -1.21700916709005       -3.10565413355148       -0.89525585529448
H           -2.62473237541651       -2.49940140387935        0.00377825073334
H            1.32915165569862       -2.84418603557188       -0.02947402114101

          :  Hamiltonian                  GFN2-xTB          :
         :: total energy             -42.088430240324 Eh    ::
         :: gradient norm              0.002235135372 Eh/a0 ::
         :: HOMO-LUMO gap              0.795591652491 eV    ::
         :: SCC energy               -42.594504743338 Eh    ::
         :: -> dispersion             -0.022444074035 Eh    ::
         :: repulsion energy           0.505975131244 Eh    ::

    * Orbital Energies and Occupations

         #    Occupation            Energy/Eh            Energy/eV
      -------------------------------------------------------------
         1        2.0000           -0.8974132             -24.4199
       ...           ...                  ...                  ...
        25        1.9997           -0.6668561             -18.1461
        26        1.9997           -0.6661086             -18.1257
        27        1.9987           -0.6427620             -17.4904
        28        1.9979           -0.6346997             -17.2711
        29        1.9959           -0.6244402             -16.9919
        30        1.9937           -0.6174456             -16.8015
        31        1.9912           -0.6122638             -16.6605
        32        1.9863           -0.6052027             -16.4684
        33        1.9718           -0.5936136             -16.1530
        34        1.9268           -0.5781381             -15.7319
        35        1.9093           -0.5746070             -15.6359
        36        1.7045           -0.5541038             -15.0779
        37        1.6567           -0.5512769             -15.0010 (HOMO)
        38        0.8646           -0.5220394             -14.2054 (LUMO)
        39        0.0030           -0.4232985             -11.5185
        40        0.0005           -0.3937317             -10.7140
        41        0.0001           -0.3741472             -10.1811
        42        0.0000           -0.2954315              -8.0391
        43                         -0.2107632              -5.7352
        44                         -0.1672705              -4.5517
        45                         -0.1431892              -3.8964
        46                         -0.1324587              -3.6044
        47                         -0.0676261              -1.8402
        48                         -0.0405516              -1.1035
       ...                                ...                  ...
        67                          0.5408098              14.7162
      -------------------------------------------------------------
                  HL-Gap            0.0292375 Eh            0.7956 eV

     #   Z          covCN         q      C6AA      α(0)
     1   6 C        3.692    -0.084    22.289     6.755
     2   7 N        2.848     0.079    19.869     6.620
     3   6 C        2.076    -0.052    32.326     9.185
     4   7 N        2.812    -0.060    22.404     7.030
     5   6 C        3.022     0.116    25.413     8.269
     6   6 C        3.096    -0.011    28.176     8.699
     7   6 C        2.764     0.274    22.370     7.746
     8   8 O        0.858    -0.334    20.403     6.056
     9   7 N        2.746    -0.074    22.672     7.072
    10   6 C        3.709    -0.062    21.834     6.678
    11   6 C        2.730     0.319    21.584     7.606
    12   8 O        0.860    -0.339    20.493     6.070
    13   7 N        2.738    -0.043    22.080     6.979
    14   6 C        3.697    -0.071    22.031     6.714
    15   1 H        0.924     0.111     1.690     2.033
    16   1 H        0.925     0.111     1.684     2.029
    17   1 H        0.925     0.121     1.606     1.982
    18   1 H        0.000     0.123     3.955     3.636
    19   1 H        0.925     0.121     1.606     1.982
    20   1 H        0.924     0.111     1.691     2.033
    21   1 H        0.924     0.111     1.688     2.032
    22   1 H        0.924     0.093     1.847     2.126
    23   1 H        0.924     0.093     1.849     2.126
    24   1 H        0.925     0.129     1.546     1.944
    25   1 H        0.860     0.217     1.021     1.583

Wiberg/Mayer (AO) data.
largest (>0.10) Wiberg bond orders for each atom

     #   Z sym  total        # sym  WBO       # sym  WBO       # sym  WBO
 ---------------------------------------------------------------------------
     1   6 C    3.902 --     2 N    0.997    17 H    0.959    16 H    0.958
                            15 H    0.946
     2   7 N    3.645 --     3 C    1.365     6 C    1.169     1 C    0.997
     3   6 C    2.830 --     2 N    1.365     4 N    1.287
     4   7 N    3.581 --     3 C    1.287     5 C    1.195    25 H    0.924
     5   6 C    3.904 --     6 C    1.319    13 N    1.211     4 N    1.195
     6   6 C    3.821 --     5 C    1.319     2 N    1.169     7 C    1.071
     7   6 C    3.949 --     8 O    1.684     9 N    1.095     6 C    1.071
     8   8 O    1.987 --     7 C    1.684     9 N    0.130
     9   7 N    3.512 --    11 C    1.119     7 C    1.095    10 C    0.975
                             8 O    0.130    12 O    0.124
    10   6 C    3.878 --     9 N    0.975    19 H    0.961    21 H    0.949
                            20 H    0.949
    11   6 C    3.954 --    12 O    1.694     9 N    1.119    13 N    1.049
    12   8 O    2.004 --    11 C    1.694     9 N    0.124    13 N    0.109
    13   7 N    3.497 --     5 C    1.211    11 C    1.049    14 C    0.978
                            12 O    0.109
    14   6 C    3.909 --    13 N    0.978    24 H    0.962    22 H    0.962
                            23 H    0.962
    15   1 H    0.973 --     1 C    0.946
    16   1 H    0.977 --     1 C    0.958
    17   1 H    0.979 --     1 C    0.959
    18   1 H    0.009
    19   1 H    0.979 --    10 C    0.961
    20   1 H    0.967 --    10 C    0.949
    21   1 H    0.967 --    10 C    0.949
    22   1 H    0.978 --    14 C    0.962
    23   1 H    0.978 --    14 C    0.962
    24   1 H    0.982 --    14 C    0.962
    25   1 H    0.952 --     4 N    0.924
 ---------------------------------------------------------------------------

molecular dipole:
                 x           y           z       tot (Debye)
 q only:        1.946      -1.915      -0.002
   full:        1.737      -2.172       0.009       7.070

           -------------------------------------------------
          | TOTAL ENERGY              -42.088430240324 Eh   |
          | GRADIENT NORM               0.002235135372 Eh/α |
          | HOMO-LUMO GAP               0.795591652491 eV   |
           -------------------------------------------------

 * finished run on 2024/06/05 at 19:57:53.101
