   * xtb version 6.6.1 (8d0f1dd) compiled by 'conda@1efc2f54142f' on 2023-08-01
          program call               : xtb xtbopt.xyz --opt crude --input .xc2 --gfn2

   ID    Z sym.   atoms
    1    6 C      1, 3, 5-7, 10, 11, 14
    2    7 N      2, 4, 9, 13
    3    8 O      8, 12
    4    1 H      15-25
########################################################################
[WARNING] Please study the warnings concerning your input carefully
-1- readin_getIntValue: could not parse ''
########################################################################

          :  Hamiltonian                  GFN2-xTB          :
 * total energy  :   -42.1203953 Eh     change       -0.1669775E-11 Eh
 * total energy  :   -42.1221792 Eh     change       -0.1783867E-02 Eh
 * total energy  :   -42.1243443 Eh     change       -0.2165097E-02 Eh
 * total energy  :   -42.1255310 Eh     change       -0.1186754E-02 Eh
 * total energy  :   -42.1260734 Eh     change       -0.5423753E-03 Eh
 * total energy  :   -42.1262765 Eh     change       -0.2031545E-03 Eh
   *** GEOMETRY OPTIMIZATION CONVERGED AFTER 6 ITERATIONS ***

 final structure:
================
25
 xtb: 6.6.1 (8d0f1dd)
C            3.89986123025812        0.63488251821375        0.10604069275730
N            3.51533794461982       -0.55488593572904        0.32122414507919
C            2.74827884835182       -1.52943537650669       -0.02180194550750
N            1.39685344731120       -1.58905241760642       -0.17940613643664
C            0.41557326952178       -0.64034713671214       -0.06898625597874
C            0.62993027557406        0.72826188993671       -0.06009903342533
C           -0.43443115422555        1.61113727049310       -0.03320835469184
O           -0.17276662711709        2.91618883011920       -0.01818678260114
N           -1.72479304920777        1.14951119011290       -0.05600720975296
C           -2.80952482839476        1.93726756155006       -0.14404680276506
C           -1.97923957420996       -0.26029614786803        0.03647871635725
O           -3.10886243910597       -0.66197270858094        0.11747370938974
N           -0.88581073284790       -1.09355083509941        0.02245760892354
C           -1.17643683904617       -2.51518961768736        0.14755467763074
H            4.55814935606641        1.08435325769790        0.83460499745901
H            3.68945786029181        1.18254266908530       -0.80812089943112
H            1.61451429262523        1.15221632200978       -0.07809487455668
H            3.22643991717244       -2.50237963765045       -0.05895070295523
H           -0.95783729400268        3.45931699119772        0.13970350067060
H           -2.72947114538563        2.99370143281082       -0.30508154803915
H           -3.76763840978874        1.45676850769977       -0.12079438500177
H           -0.63089078650081       -2.94571760405501        0.98805025684616
H           -0.95650098676215       -3.04885117977873       -0.77886752633507
H           -2.24409592819980       -2.61374035981432        0.34355950194498
H            1.04433486710289       -2.53249094223871       -0.29432373168055

          :  Hamiltonian                  GFN2-xTB          :
         :: total energy             -42.126276548703 Eh    ::
         :: gradient norm              0.004235614601 Eh/a0 ::
         :: HOMO-LUMO gap              0.911871867491 eV    ::
         :: SCC energy               -42.673739348250 Eh    ::
         :: -> dispersion             -0.021991151992 Eh    ::
         :: repulsion energy           0.547387143586 Eh    ::

    * Orbital Energies and Occupations

         #    Occupation            Energy/Eh            Energy/eV
      -------------------------------------------------------------
         1        2.0000           -0.8839136             -24.0525
       ...           ...                  ...                  ...
        25        2.0000           -0.6694262             -18.2160
        26        2.0000           -0.6540594             -17.7979
        27        2.0000           -0.6464831             -17.5917
        28        2.0000           -0.6430597             -17.4985
        29        2.0000           -0.6319861             -17.1972
        30        1.9999           -0.6273168             -17.0702
        31        1.9999           -0.6167025             -16.7813
        32        1.9998           -0.6119312             -16.6515
        33        1.9997           -0.6023676             -16.3913
        34        1.9982           -0.5754935             -15.6600
        35        1.9966           -0.5649711             -15.3736
        36        1.9937           -0.5552442             -15.1090
        37        1.4562           -0.4797425             -13.0545 (HOMO)
        38        0.4878           -0.4462319             -12.1426 (LUMO)
        39        0.0547           -0.4075951             -11.0912
        40        0.0105           -0.3810476             -10.3688
        41        0.0032           -0.3623933              -9.8612
        42        0.0000           -0.2832745              -7.7083
        43                         -0.1897816              -5.1642
        44                         -0.1510024              -4.1090
        45                         -0.1255389              -3.4161
        46                         -0.0971487              -2.6436
        47                         -0.0811405              -2.2079
        48                         -0.0594432              -1.6175
       ...                                ...                  ...
        67                          0.6064795              16.5031
      -------------------------------------------------------------
                  HL-Gap            0.0335107 Eh            0.9119 eV

     #   Z          covCN         q      C6AA      α(0)
     1   6 C        2.769     0.003    27.943     8.657
     2   7 N        1.823    -0.059    23.118     7.124
     3   6 C        2.757     0.082    26.148     8.374
     4   7 N        2.690    -0.092    23.034     7.128
     5   6 C        2.837     0.106    25.645     8.299
     6   6 C        2.908    -0.104    30.618     9.073
     7   6 C        2.788     0.193    23.887     8.006
     8   8 O        1.661    -0.338    19.686     5.990
     9   7 N        2.739    -0.006    21.379     6.867
    10   6 C        2.808    -0.069    29.703     8.929
    11   6 C        2.743     0.308    21.764     7.638
    12   8 O        0.859    -0.369    21.062     6.153
    13   7 N        2.746    -0.057    22.336     7.019
    14   6 C        3.704    -0.077    22.123     6.724
    15   1 H        0.926     0.114     1.660     2.015
    16   1 H        0.925     0.092     1.864     2.135
    17   1 H        0.926     0.103     1.760     2.075
    18   1 H        0.925     0.106     1.734     2.059
    19   1 H        0.805     0.343     0.604     1.221
    20   1 H        0.926     0.082     1.955     2.186
    21   1 H        0.926     0.121     1.603     1.980
    22   1 H        0.924     0.082     1.962     2.191
    23   1 H        0.924     0.082     1.959     2.189
    24   1 H        0.925     0.129     1.542     1.942
    25   1 H        0.860     0.224     0.991     1.559

Wiberg/Mayer (AO) data.
largest (>0.10) Wiberg bond orders for each atom

     #   Z sym  total        # sym  WBO       # sym  WBO       # sym  WBO
 ---------------------------------------------------------------------------
     1   6 C    3.689 --     2 N    1.690    15 H    0.949    16 H    0.934
     2   7 N    3.318 --     1 C    1.690     3 C    1.488
     3   6 C    3.760 --     2 N    1.488     4 N    1.205    18 H    0.930
     4   7 N    3.510 --     3 C    1.205     5 C    1.159    25 H    0.905
     5   6 C    3.822 --     6 C    1.352     4 N    1.159    13 N    1.133
     6   6 C    3.923 --     7 C    1.368     5 C    1.352    17 H    0.945
     7   6 C    3.814 --     6 C    1.368     8 O    1.140     9 N    1.139
     8   8 O    2.159 --     7 C    1.140    19 H    0.845
     9   7 N    3.644 --    10 C    1.303     7 C    1.139    11 C    0.980
    10   6 C    3.437 --     9 N    1.303    20 H    0.962    21 H    0.961
    11   6 C    3.923 --    12 O    1.692    13 N    1.146     9 N    0.980
    12   8 O    2.030 --    11 C    1.692    13 N    0.153
    13   7 N    3.548 --    11 C    1.146     5 C    1.133    14 C    0.976
                            12 O    0.153
    14   6 C    3.931 --    13 N    0.976    22 H    0.970    23 H    0.966
                            24 H    0.959
    15   1 H    0.979 --     1 C    0.949
    16   1 H    0.975 --     1 C    0.934
    17   1 H    0.988 --     6 C    0.945
    18   1 H    0.979 --     3 C    0.930
    19   1 H    0.881 --     8 O    0.845
    20   1 H    0.992 --    10 C    0.962
    21   1 H    0.985 --    10 C    0.961
    22   1 H    0.991 --    14 C    0.970
    23   1 H    0.990 --    14 C    0.966
    24   1 H    0.983 --    14 C    0.959
    25   1 H    0.949 --     4 N    0.905
 ---------------------------------------------------------------------------

molecular dipole:
                 x           y           z       tot (Debye)
 q only:        1.708      -0.350      -0.055
   full:        1.588      -0.238      -0.155       4.100

           -------------------------------------------------
          | TOTAL ENERGY              -42.126276548703 Eh   |
          | GRADIENT NORM               0.004235614601 Eh/α |
          | HOMO-LUMO GAP               0.911871867491 eV   |
           -------------------------------------------------

 * finished run on 2024/06/05 at 19:58:17.025
