   * xtb version 6.6.1 (8d0f1dd) compiled by 'conda@1efc2f54142f' on 2023-08-01
          program call               : xtb struc.xyz --opt loose --input .xc1 --gfn2

   ID    Z sym.   atoms
    1    6 C      1, 3, 5-7, 10, 11, 14
    2    7 N      2, 4, 9, 13
    3    8 O      8, 12
    4    1 H      15-25
constraining bond 5 24 to    5.1400000 Å, actual value:    3.3054035 Å

          :  Hamiltonian                  GFN2-xTB          :
 * total energy  :   -36.2382140 Eh     change       -0.6650680E-10 Eh
 * total energy  :   -39.0606092 Eh     change       -0.2822395E+01 Eh
 * total energy  :   -40.8348817 Eh     change       -0.1774272E+01 Eh
 * total energy  :   -41.6038257 Eh     change       -0.7689440E+00 Eh
 * total energy  :   -41.8002597 Eh     change       -0.1964340E+00 Eh
 * total energy  :   -41.8540920 Eh     change       -0.5383229E-01 Eh
 * total energy  :   -41.9299214 Eh     change       -0.7582939E-01 Eh
 * total energy  :   -41.9920621 Eh     change       -0.6214070E-01 Eh
 * total energy  :   -42.0190344 Eh     change       -0.2697227E-01 Eh
 * total energy  :   -42.0398824 Eh     change       -0.2084807E-01 Eh
 * total energy  :   -42.1025312 Eh     change       -0.1323699E-02 Eh
 * total energy  :   -42.1029386 Eh     change       -0.4074101E-03 Eh
 * total energy  :   -42.1035381 Eh     change       -0.5995645E-03 Eh
 * total energy  :   -42.1039901 Eh     change       -0.4520026E-03 Eh
 * total energy  :   -42.1042532 Eh     change       -0.2630753E-03 Eh
 * total energy  :   -42.1043928 Eh     change       -0.1396090E-03 Eh
 * total energy  :   -42.1044727 Eh     change       -0.7983025E-04 Eh
 * total energy  :   -42.1045356 Eh     change       -0.6292349E-04 Eh
 * total energy  :   -42.1045786 Eh     change       -0.4304141E-04 Eh
   *** GEOMETRY OPTIMIZATION CONVERGED AFTER 50 ITERATIONS ***

 final structure:
================
25
 xtb: 6.6.1 (8d0f1dd)
C            3.27941031802396        1.26650667654715        0.06874634091554
N            2.38110431147522        0.14279835759500        0.04082667127706
C            2.71759975724552       -1.14255908855696        0.04512337398881
N            1.60864445313406       -1.91136898910248        0.02259721507711
C            0.51851229551227       -1.07661073998913        0.00373751946502
C            1.00993224138150        0.22368486603011        0.01282156528011
C            0.14242310354393        1.38032383139234       -0.00904844819293
O            0.50015255802473        2.53653309499860       -0.00519180758981
N           -1.20366138208058        0.99932825882722       -0.03875115547468
C           -2.19644882529089        2.06848594330690       -0.08610408510875
C           -1.73349974735389       -0.26122423127552       -0.03432455012308
O           -2.90968818221250       -0.48781178004861       -0.05224054538456
N           -0.80224160317593       -1.38102794410209       -0.00999930439460
C           -1.31925159620246       -2.62125899255505       -0.00423545302875
H            3.89086251540714        1.23904193348599        0.97059101649679
H            3.93602875146136        1.24884710519324       -0.80113776936707
H            2.69129406142239        2.18378184718260        0.05882960879472
H            3.72128950603622       -1.51971057570389        0.06372912049404
H           -1.66747803950077        3.01790307403386       -0.07050131106249
H           -2.78831572099103        1.98003899950491       -0.99614126227458
H           -2.86361803258965        1.99154777060471        0.77093144259022
H           -0.68365220640109       -3.48098969448253       -0.03427632945432
H           -2.40081220601051       -2.71430652555053        0.00364539874071
H           -4.27037441576890       -2.94281317718197        0.08846800520592
H            1.60221959900729       -2.92090147855374        0.02307636103035

          :  Hamiltonian                  GFN2-xTB          :
         :: total energy             -42.104578629717 Eh    ::
         :: gradient norm              0.003924781625 Eh/a0 ::
         :: HOMO-LUMO gap              0.025044544102 eV    ::
         :: SCC energy               -42.625625634261 Eh    ::
         :: -> dispersion             -0.022890517462 Eh    ::
         :: repulsion energy           0.520966226317 Eh    ::

    * Orbital Energies and Occupations

         #    Occupation            Energy/Eh            Energy/eV
      -------------------------------------------------------------
         1        2.0000           -0.9160340             -24.9266
       ...           ...                  ...                  ...
        25        2.0000           -0.6682425             -18.1838
        26        2.0000           -0.6673577             -18.1597
        27        2.0000           -0.6591541             -17.9365
        28        1.9999           -0.6348001             -17.2738
        29        1.9999           -0.6322307             -17.2039
        30        1.9998           -0.6276594             -17.0795
        31        1.9997           -0.6190161             -16.8443
        32        1.9988           -0.5984692             -16.2852
        33        1.9977           -0.5884305             -16.0120
        34        1.9970           -0.5846981             -15.9104
        35        1.9885           -0.5631314             -15.3236
        36        1.9880           -0.5624047             -15.3038
        37        0.9718           -0.4806282             -13.0786 (HOMO)
        38        0.9428           -0.4797078             -13.0535 (LUMO)
        39        0.1034           -0.4354604             -11.8495
        40        0.0109           -0.3990637             -10.8591
        41        0.0021           -0.3727668             -10.1435
        42        0.0000           -0.2878094              -7.8317
        43                         -0.2123115              -5.7773
        44                         -0.1999990              -5.4422
        45                         -0.1494395              -4.0665
        46                         -0.1335864              -3.6351
        47                         -0.0665389              -1.8106
        48                         -0.0389572              -1.0601
       ...                                ...                  ...
        67                          0.5540473              15.0764
      -------------------------------------------------------------
                  HL-Gap            0.0009204 Eh            0.0250 eV

     #   Z          covCN         q      C6AA      α(0)
     1   6 C        3.691    -0.097    22.538     6.793
     2   7 N        2.831     0.084    19.780     6.605
     3   6 C        3.051     0.053    26.755     8.483
     4   7 N        2.789    -0.057    22.345     7.021
     5   6 C        3.038     0.092    25.916     8.350
     6   6 C        3.113    -0.016    28.262     8.709
     7   6 C        2.763     0.266    22.506     7.769
     8   8 O        0.858    -0.367    21.040     6.150
     9   7 N        2.744    -0.079    22.769     7.087
    10   6 C        3.713    -0.064    21.861     6.681
    11   6 C        2.735     0.310    21.733     7.632
    12   8 O        0.859    -0.342    20.553     6.078
    13   7 N        2.735     0.008    21.126     6.826
    14   6 C        2.796    -0.060    29.479     8.894
    15   1 H        0.925     0.108     1.714     2.047
    16   1 H        0.925     0.108     1.713     2.047
    17   1 H        0.925     0.139     1.465     1.893
    18   1 H        0.926     0.127     1.557     1.952
    19   1 H        0.925     0.116     1.646     2.006
    20   1 H        0.925     0.098     1.807     2.102
    21   1 H        0.925     0.099     1.796     2.096
    22   1 H        0.927     0.086     1.917     2.165
    23   1 H        0.925     0.132     1.518     1.927
    24   1 H        0.000     0.026     6.582     4.691
    25   1 H        0.860     0.229     0.970     1.543

Wiberg/Mayer (AO) data.
largest (>0.10) Wiberg bond orders for each atom

     #   Z sym  total        # sym  WBO       # sym  WBO       # sym  WBO
 ---------------------------------------------------------------------------
     1   6 C    3.912 --     2 N    0.984    17 H    0.959    16 H    0.959
                            15 H    0.959
     2   7 N    3.670 --     3 C    1.384     6 C    1.165     1 C    0.984
     3   6 C    3.838 --     2 N    1.384     4 N    1.287    18 H    0.952
     4   7 N    3.552 --     3 C    1.287     5 C    1.166    25 H    0.918
     5   6 C    3.884 --     6 C    1.338     4 N    1.166    13 N    1.163
     6   6 C    3.858 --     5 C    1.338     2 N    1.165     7 C    1.076
     7   6 C    3.915 --     8 O    1.672     9 N    1.081     6 C    1.076
     8   8 O    1.986 --     7 C    1.672     9 N    0.138
     9   7 N    3.569 --    11 C    1.170     7 C    1.081    10 C    0.963
                            12 O    0.151     8 O    0.138
    10   6 C    3.912 --    19 H    0.968    21 H    0.966    20 H    0.966
                             9 N    0.963
    11   6 C    3.923 --    12 O    1.720     9 N    1.170    13 N    0.937
    12   8 O    2.049 --    11 C    1.720     9 N    0.151
    13   7 N    3.621 --    14 C    1.296     5 C    1.163    11 C    0.937
    14   6 C    3.299 --    13 N    1.296    22 H    0.969    23 H    0.922
    15   1 H    0.985 --     1 C    0.959
    16   1 H    0.985 --     1 C    0.959
    17   1 H    0.980 --     1 C    0.959
    18   1 H    0.983 --     3 C    0.952
    19   1 H    0.985 --    10 C    0.968
    20   1 H    0.987 --    10 C    0.966
    21   1 H    0.987 --    10 C    0.966
    22   1 H    0.990 --    14 C    0.969
    23   1 H    0.982 --    14 C    0.922
    24   1 H    0.044
    25   1 H    0.947 --     4 N    0.918
 ---------------------------------------------------------------------------

molecular dipole:
                 x           y           z       tot (Debye)
 q only:        2.667      -1.874       0.045
   full:        2.971      -2.446       0.045       9.782

           -------------------------------------------------
          | TOTAL ENERGY              -42.104578629717 Eh   |
          | GRADIENT NORM               0.003924781625 Eh/α |
          | HOMO-LUMO GAP               0.025044544102 eV   |
           -------------------------------------------------

 * finished run on 2024/06/05 at 19:57:56.349
