   * xtb version 6.6.1 (8d0f1dd) compiled by 'conda@1efc2f54142f' on 2023-08-01
          program call               : xtb struc.xyz --opt loose --input .xc1 --gfn2

   ID    Z sym.   atoms
    1    7 N      1, 17
    2    6 C      2-6, 8, 9, 11-16, 18-23, 25, 26, 28-33
    3    8 O      7, 10, 24, 27
    4    1 H      34-72
constraining bond 29 52 to    5.1400000 Å, actual value:    2.6544603 Å

          :  Hamiltonian                  GFN2-xTB          :
 * total energy  :   -98.3010457 Eh     change       -0.4035485E-08 Eh
 * total energy  :   -98.6577874 Eh     change       -0.3567417E+00 Eh
 * total energy  :   -98.8998887 Eh     change       -0.2421013E+00 Eh
 * total energy  :   -99.0379321 Eh     change       -0.1380434E+00 Eh
 * total energy  :   -99.1135787 Eh     change       -0.7564657E-01 Eh
 * total energy  :   -99.1611663 Eh     change       -0.4758766E-01 Eh
 * total energy  :   -99.1997667 Eh     change       -0.3860039E-01 Eh
 * total energy  :   -99.2295834 Eh     change       -0.2981673E-01 Eh
 * total energy  :   -99.2426001 Eh     change       -0.1301664E-01 Eh
 * total energy  :   -99.2492576 Eh     change       -0.6657555E-02 Eh
 * total energy  :   -99.3879937 Eh     change       -0.1261535E-03 Eh
 * total energy  :   -99.3881142 Eh     change       -0.1204899E-03 Eh
 * total energy  :   -99.3882336 Eh     change       -0.1193325E-03 Eh
 * total energy  :   -99.3883288 Eh     change       -0.9523928E-04 Eh
 * total energy  :   -99.3884065 Eh     change       -0.7773619E-04 Eh
 * total energy  :   -99.3884614 Eh     change       -0.5487158E-04 Eh
 * total energy  :   -99.3885343 Eh     change       -0.7285430E-04 Eh
 * total energy  :   -99.3885933 Eh     change       -0.5903687E-04 Eh
 * total energy  :   -99.3886415 Eh     change       -0.4820648E-04 Eh
   *** GEOMETRY OPTIMIZATION CONVERGED AFTER 73 ITERATIONS ***

 final structure:
================
72
 xtb: 6.6.1 (8d0f1dd)
N           -1.40901303092934        2.40681447749041        2.02527420301645
C           -1.63792158611513        1.54147153345792        1.15086862850427
C           -2.87781241970376        1.51964133224167        0.30056711847391
C           -3.45594411293845        0.11572962963927        0.29407227729944
C           -4.35205811522544       -0.28611247918551       -0.69539149120638
C           -4.93891015810142       -1.54268700559806       -0.67388923918686
O           -5.81412438865857       -2.01114849707257       -1.58270657585827
C           -6.23694419323850       -1.17902562507417       -2.63725056122332
C           -4.62541778244796       -2.44649096304510        0.38058963222816
O           -5.24274507205554       -3.63918550948197        0.32376825355794
C           -5.03157913536219       -4.57517847717847        1.35561214890205
C           -3.73908523502655       -2.03597933068802        1.36635408346947
C           -3.16940460973359       -0.77346892977972        1.32391658693900
C           -2.40744664947532        1.94333402525184       -1.11594945779900
C           -1.48421730701066        0.95509458256383       -1.84417640883655
C            0.02236267850642        1.22696947670597       -1.66854663897679
N            0.62417520403894        0.41495250207710       -0.62498782580100
C            1.69866955351894        1.05608645766573        0.12749866679810
C            2.90031979685348        1.40798127549609       -0.68599545344560
C            4.18535796932208        0.91479822514537       -0.54966734978942
C            5.22570659562924        1.47961087139268       -1.34116456747729
C            6.53018316540623        1.08188526915421       -1.20711176705635
C            6.88385938463401        0.07814894745534       -0.30014525823651
O            8.11703785218828       -0.38167072734368       -0.08259565891160
C            9.21317883134280        0.18495559545476       -0.76748524104959
C            5.85358474768524       -0.54080111022449        0.48072460814680
O            6.29314446433442       -1.51656104585299        1.29911035794091
C            5.36927814881609       -2.21542069567898        2.09965325711389
C            4.55217331851337       -0.12102928491121        0.35713269433720
C            0.95075907443095       -0.92771721473370       -1.04717146827896
C           -3.99924597983049        2.48323094935403        0.79562232033343
C           -4.43050063078786        2.15464825245088        2.22330143655636
C           -3.62014240396832        3.95956077797876        0.71294512012788
H           -4.60283254318280        0.39408728519617       -1.49214966416579
H           -6.73368531182002       -0.27905031644437       -2.26260334953879
H           -6.94919866205992       -1.77188311530697       -3.20802627296437
H           -5.40171109402520       -0.89525860851693       -3.28511957553080
H           -5.32926118352634       -4.17288127907268        2.32835621763226
H           -5.66096013231083       -5.42838132770553        1.11000939782963
H           -3.98609146214494       -4.89595441643690        1.39702736310901
H           -3.49312031513896       -2.69352875355399        2.18424645591541
H           -2.50826590380911       -0.47843187287691        2.12399052672601
H           -3.29767625894288        2.10526208366815       -1.72350010629076
H           -1.90291535038857        2.90571186533709       -1.03218679190176
H           -1.71152722407864       -0.06338706421979       -1.52827458862478
H           -1.70486308603511        1.02095937620378       -2.91089709435878
H           -0.93060784084178        0.74878098508290        0.87154881823459
H            0.16722213459783        2.27925677485239       -1.41575586210315
H            1.95763560865952        0.39150187582094        0.95363812634124
H            1.28609613287980        1.98116642031966        0.54986769367495
H            2.73373928679944        2.15332905716636       -1.45103400458554
H            0.53030376328398        1.04138178416646       -2.62592410621316
H            4.97482186141699        2.25738595589478       -2.04536910471071
H            7.29076774448858        1.55039686150749       -1.81062809660263
H            9.30317672096212        1.25444545016804       -0.55673524662439
H            9.13435715762000        0.02828866039015       -1.84688541433449
H           10.09202398045941       -0.33444263914873       -0.38962328231620
H            5.95684793832478       -2.94724646083216        2.65046018807121
H            4.86559132166715       -1.54909348897640        2.80733526832858
H            4.62440019286002       -2.73485279317324        1.48789587730280
H            3.78500903415643       -0.59070031917517        0.94933308964137
H            1.80729082080367       -0.95270374763331       -1.73411709777230
H            0.09318991109274       -1.36984346462740       -1.55065614816460
H            1.18860753005246       -1.53392008675914       -0.17370266615426
H           -4.85914739525861        2.31295819455780        0.13599039687761
H           -3.62340411670856        2.37666827644338        2.91573032931597
H           -4.70726505049200        1.10788804522516        2.32405947766805
H           -5.29084142474584        2.76105647630735        2.49424775496481
H           -2.71227557728292        4.14370765166914        1.27983910602596
H           -3.48044430568104        4.28933637643748       -0.31249240827045
H           -4.41921857370593        4.55614332878864        1.14581091669543
H           -0.52653070553588        2.36354920643577        2.52478228884632

          :  Hamiltonian                  GFN2-xTB          :
         :: total energy             -99.388641501159 Eh    ::
         :: gradient norm              0.001607156646 Eh/a0 ::
         :: HOMO-LUMO gap              1.083041591800 eV    ::
         :: SCC energy              -100.755694767856 Eh    ::
         :: -> dispersion             -0.075127133722 Eh    ::
         :: repulsion energy           1.365791776331 Eh    ::

    * Orbital Energies and Occupations

         #    Occupation            Energy/Eh            Energy/eV
      -------------------------------------------------------------
         1        2.0000           -0.8225471             -22.3826
       ...           ...                  ...                  ...
        78        1.9968           -0.5304870             -14.4353
        79        1.9967           -0.5302578             -14.4290
        80        1.9961           -0.5274649             -14.3530
        81        1.9942           -0.5210945             -14.1797
        82        1.9911           -0.5144292             -13.9983
        83        1.9905           -0.5134164             -13.9708
        84        1.9878           -0.5093456             -13.8600
        85        1.9865           -0.5077337             -13.8161
        86        1.9632           -0.4916813             -13.3793
        87        1.9232           -0.4796981             -13.0532
        88        1.9055           -0.4762650             -12.9598
        89        1.7688           -0.4609221             -12.5423
        90        1.7602           -0.4602675             -12.5245 (HOMO)
        91        0.7456           -0.4204664             -11.4415 (LUMO)
        92        0.0061           -0.3369906              -9.1700
        93        0.0019           -0.3182091              -8.6589
        94        0.0018           -0.3173509              -8.6356
        95        0.0015           -0.3151076              -8.5745
        96        0.0005           -0.2972495              -8.0886
        97        0.0000           -0.1925290              -5.2390
        98        0.0000           -0.1896851              -5.1616
        99                         -0.0965876              -2.6283
       100                         -0.0726374              -1.9766
       101                         -0.0674761              -1.8361
       ...                                ...                  ...
       171                          0.5802989              15.7907
      -------------------------------------------------------------
                  HL-Gap            0.0398010 Eh            1.0830 eV

     #   Z          covCN         q      C6AA      α(0)
     1   7 N        1.774    -0.264    27.684     7.791
     2   6 C        2.830     0.098    25.815     8.326
     3   6 C        3.908     0.008    20.378     6.416
     4   6 C        2.975     0.009    27.821     8.652
     5   6 C        2.919    -0.075    29.862     8.961
     6   6 C        2.861     0.134    25.064     8.206
     7   8 O        1.706    -0.219    17.641     5.671
     8   6 C        3.644     0.025    20.494     6.507
     9   6 C        2.864     0.134    25.060     8.206
    10   8 O        1.706    -0.217    17.598     5.664
    11   6 C        3.645     0.024    20.503     6.508
    12   6 C        2.912    -0.068    29.688     8.935
    13   6 C        2.922    -0.044    29.094     8.845
    14   6 C        3.812    -0.065    21.745     6.637
    15   6 C        3.798    -0.070    21.839     6.654
    16   6 C        3.748    -0.002    20.686     6.487
    17   7 N        2.725    -0.127    23.763     7.240
    18   6 C        3.752     0.000    20.637     6.478
    19   6 C        2.903    -0.050    29.243     8.867
    20   6 C        2.960     0.016    27.650     8.625
    21   6 C        2.925    -0.035    28.883     8.813
    22   6 C        2.906    -0.061    29.512     8.908
    23   6 C        2.864     0.144    24.861     8.173
    24   8 O        1.706    -0.198    17.298     5.615
    25   6 C        3.645     0.019    20.585     6.521
    26   6 C        2.857     0.137    25.007     8.196
    27   8 O        1.706    -0.226    17.743     5.687
    28   6 C        3.645     0.026    20.470     6.503
    29   6 C        2.914    -0.077    29.923     8.970
    30   6 C        3.704    -0.042    21.477     6.626
    31   6 C        3.853    -0.007    20.667     6.466
    32   6 C        3.756    -0.116    22.784     6.806
    33   6 C        3.755    -0.120    22.857     6.817
    34   1 H        0.926     0.057     2.230     2.335
    35   1 H        0.924     0.057     2.238     2.339
    36   1 H        0.925     0.084     1.935     2.175
    37   1 H        0.924     0.053     2.277     2.360
    38   1 H        0.924     0.058     2.218     2.329
    39   1 H        0.925     0.084     1.934     2.175
    40   1 H        0.924     0.056     2.251     2.346
    41   1 H        0.926     0.058     2.220     2.330
    42   1 H        0.926     0.049     2.334     2.389
    43   1 H        0.925     0.054     2.269     2.356
    44   1 H        0.925     0.055     2.254     2.348
    45   1 H        0.924     0.052     2.290     2.366
    46   1 H        0.924     0.050     2.320     2.382
    47   1 H        0.923     0.047     2.362     2.403
    48   1 H        0.924     0.050     2.316     2.380
    49   1 H        0.924     0.054     2.274     2.358
    50   1 H        0.924     0.059     2.208     2.324
    51   1 H        0.926     0.049     2.327     2.386
    52   1 H        0.923     0.039     2.467     2.456
    53   1 H        0.926     0.060     2.202     2.320
    54   1 H        0.926     0.065     2.142     2.289
    55   1 H        0.924     0.064     2.154     2.295
    56   1 H        0.924     0.064     2.153     2.295
    57   1 H        0.925     0.089     1.888     2.149
    58   1 H        0.925     0.084     1.937     2.177
    59   1 H        0.924     0.052     2.290     2.366
    60   1 H        0.924     0.051     2.307     2.375
    61   1 H        0.926     0.053     2.283     2.363
    62   1 H        0.923     0.039     2.461     2.453
    63   1 H        0.925     0.057     2.239     2.340
    64   1 H        0.925     0.050     2.324     2.384
    65   1 H        0.924     0.040     2.450     2.448
    66   1 H        0.925     0.064     2.156     2.296
    67   1 H        0.925     0.036     2.502     2.474
    68   1 H        0.925     0.052     2.290     2.367
    69   1 H        0.925     0.069     2.098     2.265
    70   1 H        0.925     0.040     2.446     2.446
    71   1 H        0.925     0.056     2.246     2.344
    72   1 H        0.860     0.156     1.362     1.828

Wiberg/Mayer (AO) data.
largest (>0.10) Wiberg bond orders for each atom

     #   Z sym  total        # sym  WBO       # sym  WBO       # sym  WBO
 ---------------------------------------------------------------------------
     1   7 N    3.001 --     2 C    1.947    72 H    0.939
     2   6 C    3.923 --     1 N    1.947     3 C    0.990    47 H    0.910
     3   6 C    3.963 --     2 C    0.990     4 C    0.979    14 C    0.947
                            31 C    0.939
     4   6 C    3.925 --    13 C    1.389     5 C    1.381     3 C    0.979
     5   6 C    3.950 --     6 C    1.388     4 C    1.381    34 H    0.956
     6   6 C    3.881 --     5 C    1.388     9 C    1.209     7 O    1.111
     7   8 O    2.249 --     6 C    1.111     8 C    0.976
     8   6 C    3.927 --     7 O    0.976    36 H    0.976    35 H    0.972
                            37 H    0.972
     9   6 C    3.875 --    12 C    1.376     6 C    1.209    10 O    1.115
    10   8 O    2.248 --     9 C    1.115    11 C    0.975
    11   6 C    3.925 --    39 H    0.976    10 O    0.975    38 H    0.971
                            40 H    0.971
    12   6 C    3.950 --    13 C    1.421     9 C    1.376    41 H    0.962
    13   6 C    3.930 --    12 C    1.421     4 C    1.389    42 H    0.961
    14   6 C    3.982 --    15 C    1.006    44 H    0.968    43 H    0.966
                             3 C    0.947
    15   6 C    3.980 --    14 C    1.006    16 C    0.993    46 H    0.976
                            45 H    0.966
    16   6 C    3.969 --    17 N    1.000    15 C    0.993    48 H    0.969
                            52 H    0.961
    17   7 N    3.090 --    30 C    1.016    16 C    1.000    18 C    0.979
    18   6 C    3.971 --    19 C    1.027    17 N    0.979    49 H    0.962
                            50 H    0.945
    19   6 C    3.549 --    20 C    1.447    18 C    1.027    51 H    0.966
    20   6 C    3.975 --    19 C    1.447    29 C    1.212    21 C    1.211
    21   6 C    3.816 --    22 C    1.521    20 C    1.211    53 H    0.966
    22   6 C    3.966 --    21 C    1.521    23 C    1.315    54 H    0.961
    23   6 C    3.777 --    22 C    1.315    26 C    1.170    24 O    1.152
    24   8 O    2.266 --    23 C    1.152    25 C    0.969
    25   6 C    3.920 --    57 H    0.976    55 H    0.971    56 H    0.970
                            24 O    0.969
    26   6 C    3.911 --    29 C    1.475    23 C    1.170    27 O    1.104
    27   8 O    2.259 --    26 C    1.104    28 C    0.977
    28   6 C    3.930 --    27 O    0.977    58 H    0.976    60 H    0.973
                            59 H    0.973
    29   6 C    3.860 --    26 C    1.475    20 C    1.212    61 H    0.956
    30   6 C    3.970 --    17 N    1.016    64 H    0.979    63 H    0.976
                            62 H    0.965
    31   6 C    3.964 --    32 C    1.008    33 C    1.007    65 H    0.957
                             3 C    0.939
    32   6 C    3.974 --    31 C    1.008    68 H    0.980    67 H    0.979
                            66 H    0.974
    33   6 C    3.969 --    31 C    1.007    70 H    0.981    71 H    0.977
                            69 H    0.970
    34   1 H    0.995 --     5 C    0.956
    35   1 H    0.990 --     8 C    0.972
    36   1 H    0.992 --     8 C    0.976
    37   1 H    0.990 --     8 C    0.972
    38   1 H    0.990 --    11 C    0.971
    39   1 H    0.992 --    11 C    0.976
    40   1 H    0.990 --    11 C    0.971
    41   1 H    0.994 --    12 C    0.962
    42   1 H    0.996 --    13 C    0.961
    43   1 H    0.994 --    14 C    0.966
    44   1 H    0.995 --    14 C    0.968
    45   1 H    0.996 --    15 C    0.966
    46   1 H    0.995 --    15 C    0.976
    47   1 H    0.966 --     2 C    0.910
    48   1 H    0.997 --    16 C    0.969
    49   1 H    0.994 --    18 C    0.962
    50   1 H    0.977 --    18 C    0.945
    51   1 H    0.996 --    19 C    0.966
    52   1 H    0.982 --    16 C    0.961
    53   1 H    0.996 --    21 C    0.966
    54   1 H    0.993 --    22 C    0.961
    55   1 H    0.988 --    25 C    0.971
    56   1 H    0.988 --    25 C    0.970
    57   1 H    0.991 --    25 C    0.976
    58   1 H    0.992 --    28 C    0.976
    59   1 H    0.993 --    28 C    0.973
    60   1 H    0.993 --    28 C    0.973
    61   1 H    0.996 --    29 C    0.956
    62   1 H    0.979 --    30 C    0.965
    63   1 H    0.994 --    30 C    0.976
    64   1 H    0.995 --    30 C    0.979
    65   1 H    0.986 --    31 C    0.957
    66   1 H    0.990 --    32 C    0.974
    67   1 H    0.995 --    32 C    0.979
    68   1 H    0.993 --    32 C    0.980
    69   1 H    0.988 --    33 C    0.970
    70   1 H    0.995 --    33 C    0.981
    71   1 H    0.991 --    33 C    0.977
    72   1 H    0.965 --     1 N    0.939
 ---------------------------------------------------------------------------

molecular dipole:
                 x           y           z       tot (Debye)
 q only:        1.054      -0.046      -0.384
   full:        1.469      -0.172      -0.633       4.090

           -------------------------------------------------
          | TOTAL ENERGY              -99.388641501159 Eh   |
          | GRADIENT NORM               0.001607156646 Eh/α |
          | HOMO-LUMO GAP               1.083041591800 eV   |
           -------------------------------------------------

 * finished run on 2024/04/06 at 11:14:47.784
