   * xtb version 6.6.1 (8d0f1dd) compiled by 'conda@1efc2f54142f' on 2023-08-01
          program call               : xtb struc.xyz --opt loose --input .xc1 --gfn2

   ID    Z sym.   atoms
    1    6 C      1, 3, 5-7, 10, 11, 14
    2    7 N      2, 4, 9, 13
    3    8 O      8, 12
    4    1 H      15-25
constraining bond 6 18 to    5.1400000 Å, actual value:    3.2169490 Å

          :  Hamiltonian                  GFN2-xTB          :
 * total energy  :   -35.6569293 Eh     change       -0.2401990E-09 Eh
 * total energy  :   -38.6575000 Eh     change       -0.3000571E+01 Eh
 * total energy  :   -40.5906751 Eh     change       -0.1933175E+01 Eh
 * total energy  :   -41.5579523 Eh     change       -0.9672772E+00 Eh
 * total energy  :   -41.8733907 Eh     change       -0.3154383E+00 Eh
 * total energy  :   -41.9220069 Eh     change       -0.4861627E-01 Eh
 * total energy  :   -41.9491355 Eh     change       -0.2712860E-01 Eh
 * total energy  :   -41.9924341 Eh     change       -0.4329861E-01 Eh
 * total energy  :   -42.0235292 Eh     change       -0.3109511E-01 Eh
 * total energy  :   -42.0462612 Eh     change       -0.2273195E-01 Eh
 * total energy  :   -42.1221840 Eh     change       -0.1421214E-02 Eh
 * total energy  :   -42.1236161 Eh     change       -0.1432147E-02 Eh
 * total energy  :   -42.1243983 Eh     change       -0.7822100E-03 Eh
 * total energy  :   -42.1249117 Eh     change       -0.5133477E-03 Eh
 * total energy  :   -42.1252203 Eh     change       -0.3086339E-03 Eh
 * total energy  :   -42.1260561 Eh     change       -0.8358083E-03 Eh
 * total energy  :   -42.1262872 Eh     change       -0.2311188E-03 Eh
 * total energy  :   -42.1263481 Eh     change       -0.6082597E-04 Eh
 * total energy  :   -42.1263848 Eh     change       -0.3670673E-04 Eh
   *** GEOMETRY OPTIMIZATION CONVERGED AFTER 25 ITERATIONS ***

 final structure:
================
25
 xtb: 6.6.1 (8d0f1dd)
C            3.15819784594377        1.20344584599177        0.01664785267151
N            2.21137774172625        0.12375191956387       -0.00112189019351
C            2.51924114271731       -1.17874107380255       -0.00787712967653
N            1.35730753155227       -1.87347145203918       -0.00716805483142
C            0.30254925660884       -1.00953346787122       -0.00033679687186
C            0.84172312719718        0.27229230901485        0.00490671557593
C            0.00577276073593        1.44495556359286       -0.00232711966905
O            0.38323602828810        2.59694655874432       -0.01351657862240
N           -1.35303260714103        1.10567575501442        0.00167894967307
C           -2.31689064323282        2.19228176597450        0.00010521601408
C           -1.90674383216503       -0.16427685435562        0.00317864582550
O           -3.09840367995880       -0.33659133938555        0.00581335408793
N           -1.02313565649282       -1.25386640837189        0.00016403341718
C           -1.56004637439347       -2.59799161896791       -0.00356956048820
H            3.66093550154511        1.24674548871369        0.98530467549851
H            3.91274538664707        1.04575926227523       -0.75415803460880
H            2.63755373498382        2.14570974978951       -0.15581358459056
H            4.92278321852529       -2.85095457308758       -0.01351971765677
H           -1.77147105138634        3.13474286351643        0.00822370550745
H           -2.94877423792710        2.12898102583496       -0.88782536094939
H           -2.96097267035204        2.11951185389343        0.87839872669777
H           -1.23129543985847       -3.14141931088022        0.88363198980355
H           -1.24561010559777       -3.13112471727731       -0.90223549737732
H           -2.64750158978949       -2.52278702699110        0.00527838913258
H            1.31088612592438       -2.88180357728977       -0.01269131046948

          :  Hamiltonian                  GFN2-xTB          :
         :: total energy             -42.126384768485 Eh    ::
         :: gradient norm              0.001705402563 Eh/a0 ::
         :: HOMO-LUMO gap              1.270824229250 eV    ::
         :: SCC energy               -42.628405994510 Eh    ::
         :: -> dispersion             -0.022503120213 Eh    ::
         :: repulsion energy           0.501926408949 Eh    ::

    * Orbital Energies and Occupations

         #    Occupation            Energy/Eh            Energy/eV
      -------------------------------------------------------------
         1        2.0000           -0.8975863             -24.4246
       ...           ...                  ...                  ...
        25        1.9974           -0.6693444             -18.2138
        26        1.9972           -0.6679276             -18.1752
        27        1.9935           -0.6474640             -17.6184
        28        1.9901           -0.6375382             -17.3483
        29        1.9850           -0.6274486             -17.0737
        30        1.9783           -0.6186311             -16.8338
        31        1.9774           -0.6177018             -16.8085
        32        1.9649           -0.6070994             -16.5200
        33        1.9477           -0.5973941             -16.2559
        34        1.8992           -0.5812145             -15.8157
        35        1.8899           -0.5789991             -15.7554
        36        1.7326           -0.5558490             -15.1254
        37        1.6976           -0.5524447             -15.0328 (HOMO)
        38        0.8800           -0.5057428             -13.7620 (LUMO)
        39        0.0540           -0.4263181             -11.6007
        40        0.0154           -0.3959914             -10.7755
        41        0.0065           -0.3755195             -10.2184
        42        0.0002           -0.2977954              -8.1034
        43        0.0000           -0.2140598              -5.8249
        44        0.0000           -0.1682839              -4.5792
        45        0.0000           -0.1461563              -3.9771
        46        0.0000           -0.1365270              -3.7151
        47                         -0.0681542              -1.8546
        48                         -0.0431830              -1.1751
       ...                                ...                  ...
        67                          0.5296695              14.4130
      -------------------------------------------------------------
                  HL-Gap            0.0467019 Eh            1.2708 eV

     #   Z          covCN         q      C6AA      α(0)
     1   6 C        3.692    -0.082    22.262     6.751
     2   7 N        2.848     0.075    19.929     6.630
     3   6 C        2.064    -0.053    32.390     9.193
     4   7 N        2.810    -0.057    22.348     7.021
     5   6 C        3.019     0.114    25.475     8.279
     6   6 C        3.085    -0.010    28.175     8.701
     7   6 C        2.764     0.270    22.447     7.759
     8   8 O        0.858    -0.333    20.395     6.055
     9   7 N        2.746    -0.071    22.613     7.063
    10   6 C        3.709    -0.061    21.812     6.675
    11   6 C        2.730     0.317    21.617     7.612
    12   8 O        0.860    -0.336    20.451     6.063
    13   7 N        2.738    -0.043    22.068     6.977
    14   6 C        3.697    -0.070    22.019     6.712
    15   1 H        0.924     0.115     1.655     2.012
    16   1 H        0.925     0.116     1.648     2.007
    17   1 H        0.924     0.125     1.577     1.964
    18   1 H        0.000     0.084     4.827     4.017
    19   1 H        0.925     0.127     1.559     1.953
    20   1 H        0.924     0.116     1.646     2.007
    21   1 H        0.924     0.116     1.644     2.005
    22   1 H        0.924     0.097     1.817     2.108
    23   1 H        0.924     0.097     1.815     2.107
    24   1 H        0.925     0.131     1.526     1.932
    25   1 H        0.860     0.219     1.013     1.576

Wiberg/Mayer (AO) data.
largest (>0.10) Wiberg bond orders for each atom

     #   Z sym  total        # sym  WBO       # sym  WBO       # sym  WBO
 ---------------------------------------------------------------------------
     1   6 C    3.882 --     2 N    0.999    17 H    0.953    16 H    0.949
                            15 H    0.941
     2   7 N    3.624 --     3 C    1.355     6 C    1.158     1 C    0.999
     3   6 C    2.827 --     2 N    1.355     4 N    1.282
     4   7 N    3.569 --     3 C    1.282     5 C    1.197    25 H    0.923
     5   6 C    3.879 --     6 C    1.313     4 N    1.197    13 N    1.196
     6   6 C    3.810 --     5 C    1.313     2 N    1.158     7 C    1.084
     7   6 C    3.920 --     8 O    1.659     6 C    1.084     9 N    1.083
     8   8 O    1.942 --     7 C    1.659     9 N    0.120
     9   7 N    3.484 --    11 C    1.117     7 C    1.083    10 C    0.979
                             8 O    0.120    12 O    0.118
    10   6 C    3.856 --     9 N    0.979    19 H    0.952    21 H    0.942
                            20 H    0.942
    11   6 C    3.941 --    12 O    1.673     9 N    1.117    13 N    1.059
    12   8 O    1.972 --    11 C    1.673     9 N    0.118    13 N    0.108
    13   7 N    3.487 --     5 C    1.196    11 C    1.059    14 C    0.979
                            12 O    0.108
    14   6 C    3.896 --    13 N    0.979    22 H    0.958    23 H    0.958
                            24 H    0.957
    15   1 H    0.965 --     1 C    0.941
    16   1 H    0.969 --     1 C    0.949
    17   1 H    0.972 --     1 C    0.953
    18   1 H    0.028
    19   1 H    0.970 --    10 C    0.952
    20   1 H    0.959 --    10 C    0.942
    21   1 H    0.959 --    10 C    0.942
    22   1 H    0.975 --    14 C    0.958
    23   1 H    0.974 --    14 C    0.958
    24   1 H    0.976 --    14 C    0.957
    25   1 H    0.950 --     4 N    0.923
 ---------------------------------------------------------------------------

molecular dipole:
                 x           y           z       tot (Debye)
 q only:        1.566      -1.537       0.007
   full:        1.343      -1.779       0.015       5.667

           -------------------------------------------------
          | TOTAL ENERGY              -42.126384768485 Eh   |
          | GRADIENT NORM               0.001705402563 Eh/α |
          | HOMO-LUMO GAP               1.270824229250 eV   |
           -------------------------------------------------

 * finished run on 2024/06/05 at 19:58:48.797
