   * xtb version 6.6.1 (8d0f1dd) compiled by 'conda@1efc2f54142f' on 2023-08-01
          program call               : xtb struc.xyz --opt loose --input .xc1 --gfn2

   ID    Z sym.   atoms
    1    6 C      1, 3, 5-7, 10, 11, 14
    2    7 N      2, 4, 9, 13
    3    8 O      8, 12
    4    1 H      15-25
constraining bond 7 19 to    5.1400000 Å, actual value:    2.4428892 Å

          :  Hamiltonian                  GFN2-xTB          :
 * total energy  :   -29.2565968 Eh     change       -0.6633627E-10 Eh
 * total energy  :   -33.9202297 Eh     change       -0.4663633E+01 Eh
 * total energy  :   -37.5261401 Eh     change       -0.3605910E+01 Eh
 * total energy  :   -39.7563929 Eh     change       -0.2230253E+01 Eh
 * total energy  :   -41.0310203 Eh     change       -0.1274627E+01 Eh
 * total energy  :   -41.5572890 Eh     change       -0.5262687E+00 Eh
 * total energy  :   -41.7172805 Eh     change       -0.1599915E+00 Eh
 * total energy  :   -41.8009053 Eh     change       -0.8362480E-01 Eh
 * total energy  :   -41.8433779 Eh     change       -0.4247264E-01 Eh
 * total energy  :   -41.8662138 Eh     change       -0.2283586E-01 Eh
 * total energy  :   -42.0771102 Eh     change       -0.1012074E-02 Eh
 * total energy  :   -42.0777244 Eh     change       -0.6142125E-03 Eh
 * total energy  :   -42.0783098 Eh     change       -0.5854137E-03 Eh
 * total energy  :   -42.0784219 Eh     change       -0.1120922E-03 Eh
 * total energy  :   -42.0788310 Eh     change       -0.4090945E-03 Eh
 * total energy  :   -42.0789798 Eh     change       -0.1488368E-03 Eh
 * total energy  :   -42.0790475 Eh     change       -0.6765128E-04 Eh
 * total energy  :   -42.0791046 Eh     change       -0.5711209E-04 Eh
 * total energy  :   -42.0791242 Eh     change       -0.1957048E-04 Eh
   *** GEOMETRY OPTIMIZATION CONVERGED AFTER 46 ITERATIONS ***

 final structure:
================
25
 xtb: 6.6.1 (8d0f1dd)
C            3.23296694482744        1.07434472169571       -0.03497961620327
N            2.29995801276910       -0.02101938489997       -0.02815146004853
C            2.58885354531732       -1.31393035299417       -0.00318610589023
N            1.45182415692164       -2.03942789783781        0.01906091503317
C            0.39766391918846       -1.17525205262113        0.00882767066282
C            0.92809069606649        0.10936490548562       -0.02060788807159
C            0.10582713972283        1.28210636431577       -0.05540967891304
O            0.46805329461876        2.43648807989870       -0.11417744380471
N           -1.28691112744531        0.94277940323246       -0.01648119068411
C           -2.16632031745967        1.95285263644652       -0.02843069272679
C           -1.82999235501431       -0.37472482335704        0.02713994014525
O           -3.01499503432858       -0.55728684329135        0.06295537492291
N           -0.92424065525454       -1.43316974047126        0.02164399566923
C           -1.43647672508111       -2.79158792230243        0.03835937497931
H            3.68248309859651        1.19361954174562        0.95206719691439
H            4.02284354402437        0.89400511804361       -0.76260125945941
H            2.69735541692309        1.98929567723172       -0.28632156844933
H            3.57703307265340       -1.73110494672611       -0.00258095034158
H           -3.30008614818370        5.12545661608295        0.15466902438436
H           -1.77766166323240        2.95576475078595       -0.06442033366969
H           -3.21546080063560        1.72585853500037       -0.00008915771222
H           -1.12710630021851       -3.30583641327179        0.94851051024094
H           -1.09202809379721       -3.33718618468287       -0.84027863207690
H           -2.52387684191792       -2.73468524952210        0.01744685986252
H            1.40263473503620       -3.04848599639102        0.03820673313690

          :  Hamiltonian                  GFN2-xTB          :
         :: total energy             -42.079124168033 Eh    ::
         :: gradient norm              0.002166960924 Eh/a0 ::
         :: HOMO-LUMO gap              0.013091523693 eV    ::
         :: SCC energy               -42.601417197621 Eh    ::
         :: -> dispersion             -0.022598005945 Eh    ::
         :: repulsion energy           0.522218835035 Eh    ::

    * Orbital Energies and Occupations

         #    Occupation            Energy/Eh            Energy/eV
      -------------------------------------------------------------
         1        2.0000           -0.9155644             -24.9138
       ...           ...                  ...                  ...
        25        2.0000           -0.6694314             -18.2162
        26        2.0000           -0.6672355             -18.1564
        27        2.0000           -0.6610138             -17.9871
        28        2.0000           -0.6348073             -17.2740
        29        2.0000           -0.6296959             -17.1349
        30        2.0000           -0.6278289             -17.0841
        31        2.0000           -0.6204478             -16.8832
        32        2.0000           -0.6139552             -16.7066
        33        2.0000           -0.6086905             -16.5633
        34        2.0000           -0.5835797             -15.8800
        35        2.0000           -0.5637511             -15.3404
        36        2.0000           -0.5592153             -15.2170
        37        1.0040           -0.4677406             -12.7279 (HOMO)
        38        0.9736           -0.4672595             -12.7148 (LUMO)
        39        0.0221           -0.4320864             -11.7577
        40        0.0003           -0.3990988             -10.8600
        41        0.0000           -0.3712573             -10.1024
        42                         -0.2864213              -7.7939
        43                         -0.2071203              -5.6360
        44                         -0.1988692              -5.4115
        45                         -0.1510663              -4.1107
        46                         -0.1437921              -3.9128
        47                         -0.0813470              -2.2136
        48                         -0.0557119              -1.5160
       ...                                ...                  ...
        67                          0.5500642              14.9680
      -------------------------------------------------------------
                  HL-Gap            0.0004811 Eh            0.0131 eV

     #   Z          covCN         q      C6AA      α(0)
     1   6 C        3.691    -0.095    22.509     6.789
     2   7 N        2.834     0.084    19.790     6.607
     3   6 C        3.057     0.053    26.757     8.483
     4   7 N        2.796    -0.054    22.279     7.010
     5   6 C        3.046     0.105    25.648     8.306
     6   6 C        3.114    -0.025    28.453     8.738
     7   6 C        2.776     0.253    22.757     7.813
     8   8 O        0.857    -0.369    21.076     6.155
     9   7 N        2.741    -0.030    21.828     6.939
    10   6 C        2.817    -0.027    28.661     8.772
    11   6 C        2.739     0.309    21.756     7.637
    12   8 O        0.859    -0.351    20.721     6.103
    13   7 N        2.737    -0.049    22.194     6.997
    14   6 C        3.698    -0.074    22.084     6.721
    15   1 H        0.924     0.110     1.695     2.036
    16   1 H        0.925     0.105     1.739     2.062
    17   1 H        0.925     0.137     1.483     1.905
    18   1 H        0.926     0.126     1.563     1.955
    19   1 H        0.000     0.009     7.254     4.925
    20   1 H        0.926     0.131     1.526     1.932
    21   1 H        0.926     0.128     1.553     1.949
    22   1 H        0.925     0.084     1.941     2.179
    23   1 H        0.925     0.083     1.950     2.184
    24   1 H        0.925     0.128     1.552     1.948
    25   1 H        0.860     0.231     0.961     1.536

Wiberg/Mayer (AO) data.
largest (>0.10) Wiberg bond orders for each atom

     #   Z sym  total        # sym  WBO       # sym  WBO       # sym  WBO
 ---------------------------------------------------------------------------
     1   6 C    3.915 --     2 N    0.985    16 H    0.965    17 H    0.961
                            15 H    0.954
     2   7 N    3.687 --     3 C    1.403     6 C    1.148     1 C    0.985
     3   6 C    3.885 --     2 N    1.403     4 N    1.286    18 H    0.952
     4   7 N    3.607 --     3 C    1.286     5 C    1.192    25 H    0.918
     5   6 C    3.906 --     6 C    1.324    13 N    1.195     4 N    1.192
     6   6 C    3.916 --     5 C    1.324     2 N    1.148     7 C    1.114
     7   6 C    3.878 --     8 O    1.667     6 C    1.114     9 N    0.996
     8   8 O    1.959 --     7 C    1.667     9 N    0.112
     9   7 N    3.631 --    10 C    1.344    11 C    1.015     7 C    0.996
                             8 O    0.112
    10   6 C    3.372 --     9 N    1.344    21 H    0.961    20 H    0.957
    11   6 C    3.913 --    12 O    1.711    13 N    1.086     9 N    1.015
    12   8 O    2.028 --    11 C    1.711    13 N    0.136
    13   7 N    3.575 --     5 C    1.195    11 C    1.086    14 C    0.970
                            12 O    0.136
    14   6 C    3.924 --    23 H    0.972    22 H    0.972    13 N    0.970
                            24 H    0.965
    15   1 H    0.985 --     1 C    0.954
    16   1 H    0.987 --     1 C    0.965
    17   1 H    0.981 --     1 C    0.961
    18   1 H    0.983 --     3 C    0.952
    19   1 H    0.003
    20   1 H    0.982 --    10 C    0.957
    21   1 H    0.983 --    10 C    0.961
    22   1 H    0.992 --    14 C    0.972
    23   1 H    0.992 --    14 C    0.972
    24   1 H    0.983 --    14 C    0.965
    25   1 H    0.946 --     4 N    0.918
 ---------------------------------------------------------------------------

molecular dipole:
                 x           y           z       tot (Debye)
 q only:        2.554      -2.201       0.023
   full:        2.807      -2.669       0.041       9.846

           -------------------------------------------------
          | TOTAL ENERGY              -42.079124168033 Eh   |
          | GRADIENT NORM               0.002166960924 Eh/α |
          | HOMO-LUMO GAP               0.013091523693 eV   |
           -------------------------------------------------

 * finished run on 2024/06/05 at 19:58:02.554
