   * xtb version 6.6.1 (8d0f1dd) compiled by 'conda@1efc2f54142f' on 2023-08-01
          program call               : xtb struc.xyz --opt loose --input .xc1 --gfn2

   ID    Z sym.   atoms
    1    6 C      1, 3, 5-7, 10, 11, 14
    2    7 N      2, 4, 9, 13
    3    8 O      8, 12
    4    1 H      15-25
constraining bond 5 7 to    5.0000000 Å, actual value:    2.4816200 Å

          :  Hamiltonian                  GFN2-xTB          :
 * total energy  :   -30.9210144 Eh     change       -0.6633627E-10 Eh
 * total energy  :   -35.0051088 Eh     change       -0.4084094E+01 Eh
 * total energy  :   -38.0433757 Eh     change       -0.3038267E+01 Eh
 * total energy  :   -40.1392193 Eh     change       -0.2095844E+01 Eh
 * total energy  :   -41.2846999 Eh     change       -0.1145481E+01 Eh
 * total energy  :   -41.5550652 Eh     change       -0.2703653E+00 Eh
 * total energy  :   -41.5753850 Eh     change       -0.2031979E-01 Eh
 * total energy  :   -41.6036801 Eh     change       -0.2829511E-01 Eh
 * total energy  :   -41.6379139 Eh     change       -0.3423378E-01 Eh
 * total energy  :   -41.6747136 Eh     change       -0.3679972E-01 Eh
 * total energy  :   -42.0293368 Eh     change       -0.1274792E-01 Eh
 * total energy  :   -42.0355044 Eh     change       -0.6167606E-02 Eh
 * total energy  :   -42.0399541 Eh     change       -0.4449787E-02 Eh
 * total energy  :   -42.0426104 Eh     change       -0.2656210E-02 Eh
 * total energy  :   -42.0437805 Eh     change       -0.1170130E-02 Eh
 * total energy  :   -42.0440661 Eh     change       -0.2856060E-03 Eh
 * total energy  :   -42.0441727 Eh     change       -0.1065613E-03 Eh
 * total energy  :   -42.0442290 Eh     change       -0.5635746E-04 Eh
 * total energy  :   -42.0442571 Eh     change       -0.2808188E-04 Eh
   *** GEOMETRY OPTIMIZATION CONVERGED AFTER 52 ITERATIONS ***

 final structure:
================
25
 xtb: 6.6.1 (8d0f1dd)
C            2.94799611058885        1.06599582223621        0.00795019537162
N            1.95431977746569        0.00082247301659       -0.00956312934920
C            2.37913047627023       -1.24240630711009       -0.01296866885046
N            1.79595763649741       -2.47807881993534       -0.00989525676210
C            0.49941451045379       -3.00487697077793       -0.00403851647823
C            0.60205079671895        0.42696262967232        0.01063435654894
C           -0.04605769145854        1.92482155047621        0.01699210730119
O            0.47074843446774        2.99457177219404        0.01026211195608
N           -1.34794500665761        1.52817533776217        0.04012886010125
C           -2.52278512382532        2.35101786551182       -0.01348043520479
C           -0.39090533124078       -0.51870309966015        0.01536406146048
O           -1.57443063239286        0.14271486505059        0.02879588885894
N           -0.44126879458688       -2.01119929908763        0.00630899382018
C           -1.81053971883674       -2.53402018746933        0.00208741988559
H            3.39902745340312        1.14666461029272        0.99827006590742
H            3.73153264581722        0.87924147760197       -0.72462828551598
H            2.46313065444447        2.01286115783356       -0.22250797230158
H            3.46402019537656       -1.30620877113318       -0.02044416068475
H           -2.19410981349378        3.38480216171063        0.07942990450242
H           -3.04477419486705        2.21699400196763       -0.96278305026295
H           -3.19426283040301        2.10410965866427        0.80925854535485
H           -1.95450030859525       -3.17604854322536        0.86983106465885
H           -1.96697276259786       -3.13193683389386       -0.89475853411796
H           -2.53916940919639       -1.73032863842821        0.02730922142451
H            2.48082444074816       -3.22770937167003       -0.01638316972475

          :  Hamiltonian                  GFN2-xTB          :
         :: total energy             -42.044257091330 Eh    ::
         :: gradient norm              0.002894185889 Eh/a0 ::
         :: HOMO-LUMO gap              1.491093376285 eV    ::
         :: SCC energy               -42.504879315087 Eh    ::
         :: -> dispersion             -0.021652171627 Eh    ::
         :: repulsion energy           0.457624954991 Eh    ::

    * Orbital Energies and Occupations

         #    Occupation            Energy/Eh            Energy/eV
      -------------------------------------------------------------
         1        2.0000           -0.9288531             -25.2754
       ...           ...                  ...                  ...
        25        2.0000           -0.6629071             -18.0386
        26        2.0000           -0.6616914             -18.0055
        27        2.0000           -0.6480093             -17.6332
        28        2.0000           -0.6451406             -17.5552
        29        2.0000           -0.6320876             -17.2000
        30        2.0000           -0.6229916             -16.9525
        31        2.0000           -0.6217729             -16.9193
        32        2.0000           -0.6080948             -16.5471
        33        2.0000           -0.5969876             -16.2449
        34        1.9990           -0.5673046             -15.4371
        35        1.9953           -0.5547765             -15.0962
        36        1.9855           -0.5458782             -14.8541
        37        1.9484           -0.5356635             -14.5761 (HOMO)
        38        0.0718           -0.4808668             -13.0851 (LUMO)
        39        0.0000           -0.3851233             -10.4797
        40                         -0.3654059              -9.9432
        41                         -0.3274643              -8.9108
        42                         -0.3042904              -8.2802
        43                         -0.2438150              -6.6345
        44                         -0.2054011              -5.5892
        45                         -0.1918610              -5.2208
        46                         -0.1362974              -3.7088
        47                         -0.1152006              -3.1348
        48                         -0.0744748              -2.0266
       ...                                ...                  ...
        67                          0.6038183              16.4307
      -------------------------------------------------------------
                  HL-Gap            0.0547967 Eh            1.4911 eV

     #   Z          covCN         q      C6AA      α(0)
     1   6 C        3.714    -0.093    22.401     6.763
     2   7 N        2.732     0.058    20.225     6.679
     3   6 C        2.778     0.092    25.937     8.341
     4   7 N        2.693    -0.070    22.596     7.060
     5   6 C        1.849    -0.072    33.121     9.297
     6   6 C        2.933    -0.054    29.331     8.882
     7   6 C        2.732     0.261    22.608     7.785
     8   8 O        0.856    -0.341    20.541     6.076
     9   7 N        2.821     0.067    20.080     6.655
    10   6 C        3.685    -0.075    22.138     6.736
    11   6 C        2.798     0.167    24.386     8.090
    12   8 O        1.785    -0.144    16.460     5.479
    13   7 N        2.734     0.002    21.221     6.842
    14   6 C        3.716    -0.077    22.101     6.716
    15   1 H        0.924     0.104     1.752     2.070
    16   1 H        0.925     0.096     1.817     2.108
    17   1 H        0.925     0.133     1.509     1.921
    18   1 H        0.925     0.110     1.699     2.039
    19   1 H        0.925     0.119     1.619     1.990
    20   1 H        0.924     0.099     1.796     2.096
    21   1 H        0.924     0.102     1.769     2.080
    22   1 H        0.925     0.098     1.803     2.100
    23   1 H        0.925     0.097     1.812     2.105
    24   1 H        0.925     0.091     1.872     2.140
    25   1 H        0.860     0.229     0.971     1.544

Wiberg/Mayer (AO) data.
largest (>0.10) Wiberg bond orders for each atom

     #   Z sym  total        # sym  WBO       # sym  WBO       # sym  WBO
 ---------------------------------------------------------------------------
     1   6 C    3.918 --     2 N    0.972    16 H    0.969    17 H    0.961
                            15 H    0.959
     2   7 N    3.680 --     3 C    1.492     6 C    1.023     1 C    0.972
                             4 N    0.115
     3   6 C    3.912 --     2 N    1.492     4 N    1.267    18 H    0.944
     4   7 N    3.567 --     3 C    1.267     5 C    1.155    25 H    0.920
                             2 N    0.115
     5   6 C    2.817 --    13 N    1.451     4 N    1.155
     6   6 C    3.869 --    11 C    1.565     2 N    1.023     7 C    0.912
                             8 O    0.124
     7   6 C    3.956 --     8 O    1.740     9 N    1.193     6 C    0.912
     8   8 O    2.145 --     7 C    1.740     9 N    0.195     6 C    0.124
     9   7 N    3.489 --     7 C    1.193    10 C    0.986    12 O    0.970
                             8 O    0.195
    10   6 C    3.925 --     9 N    0.986    21 H    0.966    20 H    0.965
                            19 H    0.960
    11   6 C    3.888 --     6 C    1.565    12 O    1.111    13 N    0.978
    12   8 O    2.340 --    11 C    1.111     9 N    0.970
    13   7 N    3.582 --     5 C    1.451    14 C    0.981    11 C    0.978
    14   6 C    3.936 --    13 N    0.981    24 H    0.972    22 H    0.968
                            23 H    0.968
    15   1 H    0.987 --     1 C    0.959
    16   1 H    0.989 --     1 C    0.969
    17   1 H    0.982 --     1 C    0.961
    18   1 H    0.987 --     3 C    0.944
    19   1 H    0.984 --    10 C    0.960
    20   1 H    0.988 --    10 C    0.965
    21   1 H    0.988 --    10 C    0.966
    22   1 H    0.987 --    14 C    0.968
    23   1 H    0.987 --    14 C    0.968
    24   1 H    0.992 --    14 C    0.972
    25   1 H    0.947 --     4 N    0.920
 ---------------------------------------------------------------------------

molecular dipole:
                 x           y           z       tot (Debye)
 q only:        1.097      -1.325      -0.007
   full:        1.337      -1.141      -0.008       4.467

           -------------------------------------------------
          | TOTAL ENERGY              -42.044257091330 Eh   |
          | GRADIENT NORM               0.002894185889 Eh/α |
          | HOMO-LUMO GAP               1.491093376285 eV   |
           -------------------------------------------------

 * finished run on 2024/06/05 at 19:57:58.183
