   * xtb version 6.6.1 (8d0f1dd) compiled by 'conda@1efc2f54142f' on 2023-08-01
          program call               : xtb xtbopt.xyz --opt crude --input .xc2 --gfn2

   ID    Z sym.   atoms
    1    6 C      1, 3, 5-7, 10, 11, 14
    2    7 N      2, 4, 9, 13
    3    8 O      8, 12
    4    1 H      15-25
########################################################################
[WARNING] Please study the warnings concerning your input carefully
-1- readin_getIntValue: could not parse ''
########################################################################

          :  Hamiltonian                  GFN2-xTB          :
 * total energy  :   -42.0471383 Eh     change       -0.4263256E-12 Eh
 * total energy  :   -42.0717348 Eh     change       -0.2459650E-01 Eh
 * total energy  :   -42.0811710 Eh     change       -0.9436234E-02 Eh
 * total energy  :   -42.0823531 Eh     change       -0.1182136E-02 Eh
 * total energy  :   -42.0828575 Eh     change       -0.5043900E-03 Eh
 * total energy  :   -42.0829844 Eh     change       -0.1268353E-03 Eh
   *** GEOMETRY OPTIMIZATION CONVERGED AFTER 6 ITERATIONS ***

 final structure:
================
25
 xtb: 6.6.1 (8d0f1dd)
C            2.90284517190900        1.13526269679761        0.02069536491038
N            1.96632569389904        0.02172154460225       -0.00792198740205
C            2.44638211456261       -1.18698363603114       -0.01832653583427
N            1.79057506436175       -2.37617070132321       -0.01938669244593
C            0.48757086920755       -2.79299557027920       -0.00729368974743
C            0.58562250350907        0.31349336290274        0.00672388749736
C            0.00952430440455        1.66703525519860        0.00038768004895
O            0.52316678131525        2.76019835836661       -0.01995400795398
N           -1.34369585409218        1.44696066670187        0.02435724720934
C           -2.43379640430611        2.37254987736950       -0.01280898576303
C           -0.46962203257139       -0.55991594973624        0.01334260838784
O           -1.63208992824690        0.09998557407499        0.02240352089426
N           -0.53019365098264       -1.95889386688207        0.00921093318409
C           -1.85580915441847       -2.57692048552132        0.00918199725242
H            3.33812361284007        1.23065838547005        1.01635708930075
H            3.69825136717388        0.97550130242043       -0.70431554962004
H            2.38157351687506        2.06361238193002       -0.21025241267755
H            3.52854685898325       -1.26007566920746       -0.02611917784126
H           -2.00304318645675        3.37002495909153        0.07197784058424
H           -2.97957035476426        2.28450187291916       -0.95401286920155
H           -3.11010122158625        2.18753419253859        0.82274411886946
H           -1.94916867756134       -3.23062553437206        0.87410432414460
H           -1.97588125470999       -3.17536594955799       -0.89184511035443
H           -2.62907234314814       -1.81628153247266        0.04428024360016
H            2.41396771790346       -3.17657299340102       -0.03235821914279

          :  Hamiltonian                  GFN2-xTB          :
         :: total energy             -42.082984365710 Eh    ::
         :: gradient norm              0.003635083026 Eh/a0 ::
         :: HOMO-LUMO gap              1.282163946548 eV    ::
         :: SCC energy               -42.577707603870 Eh    ::
         :: -> dispersion             -0.022083268297 Eh    ::
         :: repulsion energy           0.494607660359 Eh    ::

    * Orbital Energies and Occupations

         #    Occupation            Energy/Eh            Energy/eV
      -------------------------------------------------------------
         1        2.0000           -0.9416976             -25.6249
       ...           ...                  ...                  ...
        25        2.0000           -0.6673775             -18.1603
        26        2.0000           -0.6634145             -18.0524
        27        2.0000           -0.6536021             -17.7854
        28        2.0000           -0.6436183             -17.5137
        29        2.0000           -0.6294438             -17.1280
        30        2.0000           -0.6198137             -16.8660
        31        2.0000           -0.6187389             -16.8367
        32        2.0000           -0.6155006             -16.7486
        33        2.0000           -0.6067426             -16.5103
        34        1.9962           -0.5518194             -15.0158
        35        1.9937           -0.5478471             -14.9077
        36        1.9783           -0.5380087             -14.6400
        37        1.9176           -0.5272004             -14.3459 (HOMO)
        38        0.1142           -0.4800818             -13.0637 (LUMO)
        39        0.0000           -0.3869282             -10.5289
        40                         -0.3489818              -9.4963
        41                         -0.3041495              -8.2763
        42                         -0.2530068              -6.8847
        43                         -0.2020129              -5.4971
        44                         -0.1740463              -4.7360
        45                         -0.1420068              -3.8642
        46                         -0.1170185              -3.1842
        47                         -0.0856381              -2.3303
        48                         -0.0370566              -1.0084
       ...                                ...                  ...
        67                          0.5835784              15.8800
      -------------------------------------------------------------
                  HL-Gap            0.0471187 Eh            1.2822 eV

     #   Z          covCN         q      C6AA      α(0)
     1   6 C        3.714    -0.100    22.540     6.784
     2   7 N        2.730     0.067    20.082     6.656
     3   6 C        2.792     0.089    26.014     8.355
     4   7 N        2.686    -0.071    22.631     7.065
     5   6 C        1.863    -0.070    33.042     9.285
     6   6 C        2.957    -0.043    29.063     8.842
     7   6 C        2.821     0.248    22.843     7.831
     8   8 O        0.857    -0.403    21.742     6.252
     9   7 N        2.872     0.058    20.221     6.679
    10   6 C        3.684    -0.073    22.106     6.732
    11   6 C        2.918     0.179    24.167     8.062
    12   8 O        1.788    -0.130    16.249     5.443
    13   7 N        2.732     0.023    20.844     6.781
    14   6 C        3.720    -0.082    22.196     6.729
    15   1 H        0.924     0.103     1.758     2.073
    16   1 H        0.925     0.095     1.828     2.115
    17   1 H        0.925     0.147     1.412     1.858
    18   1 H        0.925     0.111     1.686     2.030
    19   1 H        0.925     0.123     1.587     1.970
    20   1 H        0.924     0.097     1.809     2.103
    21   1 H        0.924     0.099     1.793     2.094
    22   1 H        0.925     0.102     1.762     2.076
    23   1 H        0.925     0.101     1.773     2.082
    24   1 H        0.925     0.095     1.831     2.116
    25   1 H        0.860     0.232     0.954     1.530

Wiberg/Mayer (AO) data.
largest (>0.10) Wiberg bond orders for each atom

     #   Z sym  total        # sym  WBO       # sym  WBO       # sym  WBO
 ---------------------------------------------------------------------------
     1   6 C    3.908 --    16 H    0.969     2 N    0.969    15 H    0.958
                            17 H    0.947
     2   7 N    3.680 --     3 C    1.503     6 C    1.021     1 C    0.969
                             4 N    0.110
     3   6 C    3.885 --     2 N    1.503     4 N    1.238    18 H    0.944
     4   7 N    3.572 --     3 C    1.238     5 C    1.184    25 H    0.918
                             2 N    0.110
     5   6 C    2.816 --    13 N    1.426     4 N    1.184
     6   6 C    3.896 --    11 C    1.477     7 C    1.063     2 N    1.021
     7   6 C    3.961 --     8 O    1.642     9 N    1.146     6 C    1.063
     8   8 O    2.039 --     7 C    1.642     9 N    0.183
     9   7 N    3.474 --     7 C    1.146    10 C    0.990    12 O    0.983
                             8 O    0.183
    10   6 C    3.924 --     9 N    0.990    21 H    0.965    20 H    0.963
                            19 H    0.959
    11   6 C    3.886 --     6 C    1.477    12 O    1.129    13 N    1.048
    12   8 O    2.371 --    11 C    1.129     9 N    0.983
    13   7 N    3.625 --     5 C    1.426    11 C    1.048    14 C    0.966
    14   6 C    3.928 --    24 H    0.974    22 H    0.970    23 H    0.970
                            13 N    0.966
    15   1 H    0.987 --     1 C    0.958
    16   1 H    0.989 --     1 C    0.969
    17   1 H    0.978 --     1 C    0.947
    18   1 H    0.986 --     3 C    0.944
    19   1 H    0.983 --    10 C    0.959
    20   1 H    0.986 --    10 C    0.963
    21   1 H    0.987 --    10 C    0.965
    22   1 H    0.988 --    14 C    0.970
    23   1 H    0.988 --    14 C    0.970
    24   1 H    0.991 --    14 C    0.974
    25   1 H    0.944 --     4 N    0.918
 ---------------------------------------------------------------------------

molecular dipole:
                 x           y           z       tot (Debye)
 q only:        1.011      -1.746       0.008
   full:        1.190      -1.560       0.013       4.988

           -------------------------------------------------
          | TOTAL ENERGY              -42.082984365710 Eh   |
          | GRADIENT NORM               0.003635083026 Eh/α |
          | HOMO-LUMO GAP               1.282163946548 eV   |
           -------------------------------------------------

 * finished run on 2024/06/05 at 19:57:58.473
