   * xtb version 6.6.1 (8d0f1dd) compiled by 'conda@1efc2f54142f' on 2023-08-01
          program call               : xtb struc.xyz --opt loose --input .xc1 --gfn2

   ID    Z sym.   atoms
    1    7 N      1, 17
    2    6 C      2-6, 8, 9, 11-16, 18-23, 25, 26, 28-33
    3    8 O      7, 10, 24, 27
    4    1 H      34-72
constraining bond 29 60 to    4.7133300 Å, actual value:    2.8322293 Å

          :  Hamiltonian                  GFN2-xTB          :
 * total energy  :  -100.0359485 Eh     change       -0.4035485E-08 Eh
 * total energy  :  -100.5124562 Eh     change       -0.4765077E+00 Eh
 * total energy  :  -101.0808194 Eh     change       -0.5683632E+00 Eh
 * total energy  :  -101.7263198 Eh     change       -0.6455004E+00 Eh
 * total energy  :   -97.9126287 Eh     change        0.3813691E+01 Eh
 * total energy  :  -101.7951623 Eh     change       -0.3882534E+01 Eh
 * total energy  :  -101.8544175 Eh     change       -0.5925524E-01 Eh
 * total energy  :  -101.8988185 Eh     change       -0.4440097E-01 Eh
 * total energy  :  -101.9274430 Eh     change       -0.2862446E-01 Eh
 * total energy  :  -101.9350947 Eh     change       -0.7651715E-02 Eh
 * total energy  :  -101.9848854 Eh     change       -0.1311001E-02 Eh
 * total energy  :  -101.9857896 Eh     change       -0.9041808E-03 Eh
 * total energy  :  -101.9864981 Eh     change       -0.7084663E-03 Eh
 * total energy  :  -101.9871875 Eh     change       -0.6894534E-03 Eh
 * total energy  :  -101.9875594 Eh     change       -0.3719107E-03 Eh
 * total energy  :  -101.9877306 Eh     change       -0.1712224E-03 Eh
 * total energy  :  -101.9878292 Eh     change       -0.9851873E-04 Eh
 * total energy  :  -101.9878895 Eh     change       -0.6033146E-04 Eh
 * total energy  :  -101.9879303 Eh     change       -0.4080581E-04 Eh
   *** GEOMETRY OPTIMIZATION CONVERGED AFTER 30 ITERATIONS ***

 final structure:
================
72
 xtb: 6.6.1 (8d0f1dd)
N           -1.82311805124990        2.76176900310262        2.24066907279067
C           -1.78744078399555        2.08588189948051        1.19026184674330
C           -2.94782140079483        1.90009490069373        0.25202224791733
C           -3.43265593566646        0.45942169288700        0.31913334503808
C           -4.38610980901505        0.00816430490138       -0.59609981630470
C           -4.87226727749185       -1.28733847051885       -0.55656431627969
O           -5.80197575750866       -1.79652484162729       -1.39324845829120
C           -6.43254013591663       -0.94471082027624       -2.32022626576853
C           -4.38203384297777       -2.18863991438224        0.42541630812833
O           -4.90138766050023       -3.43382885045462        0.38281542936857
C           -4.52623100786556       -4.36393021872122        1.37109148766272
C           -3.43770030533546       -1.73504224971825        1.33139343933649
C           -2.97245060754521       -0.42622571967053        1.27998027693406
C           -2.40583527374141        2.20590601975285       -1.16918384145232
C           -1.49312294633101        1.11287296810722       -1.75763730969408
C           -0.15431757504562        1.06300359103196       -1.12931755780366
N            0.48013886144181       -0.04384064565901       -0.74281659329027
C            1.84539078920178        0.01748816446169       -0.28714733234553
C            2.84296440252488       -0.48916221882944       -1.35456816167802
C            4.25420677688323       -0.25267823468583       -0.90606471739732
C            4.91873497238392        0.88140209960802       -1.21379428666784
C            6.23820140474593        1.14740642980124       -0.78180049323511
C            6.92859384982085        0.21252243423843       -0.03396937410434
O            8.19066506156779        0.34453707958623        0.42315554194753
C            8.88656595845520        1.54420538688946        0.16824973859712
C            6.31060248974434       -1.01645448810901        0.30105584967860
O            7.04100879351735       -1.87620655564517        0.98319202740106
C            6.66277386092848       -3.03985502613039        1.41956390328326
C            4.86893163367372       -1.33892805571151       -0.04400400855071
C           -0.14344499827545       -1.34407900323637       -0.80389749332822
C           -4.15075186461688        2.83598541729041        0.57390016072323
C           -4.78207073527795        2.49133398886953        1.92103103503605
C           -3.78518637928516        4.31743690980201        0.54055601832975
H           -4.76480292161981        0.68720198461745       -1.34169332187107
H           -6.92629737432898       -0.10500820611241       -1.82183304809626
H           -7.18113843551968       -1.55825570165718       -2.81761477920834
H           -5.72575605006597       -0.56505593580849       -3.06548419962939
H           -4.77582405270561       -4.00605848588592        2.37440586792227
H           -5.09828917779597       -5.26448600300882        1.15681583677554
H           -3.45696580210862       -4.59440187529533        1.32067904491008
H           -3.06250712013044       -2.39065923655555        2.10044391082135
H           -2.26151314503694       -0.10130879299508        2.02391913054841
H           -3.25092600860019        2.33617190529211       -1.84419617522149
H           -1.85787237181937        3.14849745610031       -1.14176570681207
H           -1.99753398190748        0.14960016683245       -1.70771898900202
H           -1.35246883326459        1.36143060562693       -2.81771931124706
H           -0.87656472863141        1.58125986162621        0.81458822595833
H            0.41683448758258        1.97892028033290       -1.10070526439943
H            1.94265801341775       -0.58419581587140        0.62125069928145
H            2.09782017985523        1.05123073002588       -0.04250493802972
H            2.65343246147645        0.05455961861864       -2.28142288301115
H            2.67065171811862       -1.55118943586077       -1.53788872339855
H            4.43797116416603        1.62533545309656       -1.83267861437383
H            6.69469971866051        2.07953495394976       -1.06243646856891
H            8.36112086711920        2.40619064345727        0.58821901994355
H            9.04286834138207        1.69551598839427       -0.90325071329246
H            9.84968776566235        1.43233188367096        0.66168173512549
H            7.41014035935028       -3.59734679100555        1.94952532780578
H            5.67749001995263       -3.44371922347225        1.25826563322745
H            4.79399529593884       -2.00737185600556       -0.36178202578358
H            4.31957796509154       -1.30692207130635        0.93203795604334
H           -0.29120060488330       -1.66348361467267       -1.83795081231768
H           -1.11240165958759       -1.32730832391489       -0.29893177958734
H            0.49254462185225       -2.07071945542651       -0.30450534818345
H           -4.90104605503537        2.65648553433694       -0.20444567919940
H           -4.07289159198378        2.67464960976144        2.72150495661861
H           -5.09188565348102        1.44973252832797        1.95509868182286
H           -5.65755704947126        3.11459490739632        2.08298951170735
H           -3.02598543260144        4.53580122986338        1.28507633993183
H           -3.42778576417401        4.62591399929051       -0.43835415298166
H           -4.66801357016498        4.90710275899475        0.77338235751673
H           -0.96806650416493        2.83758127061683        2.78311583813566

          :  Hamiltonian                  GFN2-xTB          :
         :: total energy            -101.987930325051 Eh    ::
         :: gradient norm              0.003409746832 Eh/a0 ::
         :: HOMO-LUMO gap              1.137189649695 eV    ::
         :: SCC energy              -100.725874148573 Eh    ::
         :: -> dispersion             -0.075282257139 Eh    ::
         :: repulsion energy           1.550005430464 Eh    ::

    * Orbital Energies and Occupations

         #    Occupation            Energy/Eh            Energy/eV
      -------------------------------------------------------------
         1        2.0000           -0.8507385             -23.1498
       ...           ...                  ...                  ...
        78        1.9990           -0.5283005             -14.3758
        79        1.9988           -0.5256867             -14.3047
        80        1.9986           -0.5229869             -14.2312
        81        1.9986           -0.5224739             -14.2172
        82        1.9980           -0.5168097             -14.0631
        83        1.9968           -0.5092574             -13.8576
        84        1.9962           -0.5066056             -13.7854
        85        1.9954           -0.5036990             -13.7063
        86        1.9843           -0.4841575             -13.1746
        87        1.9801           -0.4803761             -13.0717
        88        1.9482           -0.4649968             -12.6532
        89        1.8954           -0.4534380             -12.3387
        90        1.6014           -0.4295902             -11.6897 (HOMO)
        91        0.4459           -0.3877992             -10.5526 (LUMO)
        92        0.1399           -0.3665935              -9.9755
        93        0.0175           -0.3326517              -9.0519
        94        0.0043           -0.3102071              -8.4412
        95        0.0035           -0.3069951              -8.3538
        96        0.0033           -0.3063726              -8.3368
        97        0.0000           -0.2225938              -6.0571
        98        0.0000           -0.1842703              -5.0143
        99                         -0.1328332              -3.6146
       100                         -0.0775602              -2.1105
       101                         -0.0642201              -1.7475
       ...                                ...                  ...
       171                          1.4067083              38.2785
      -------------------------------------------------------------
                  HL-Gap            0.0417910 Eh            1.1372 eV

     #   Z          covCN         q      C6AA      α(0)
     1   7 N        1.774    -0.273    27.901     7.822
     2   6 C        2.826     0.101    25.761     8.317
     3   6 C        3.907     0.006    20.416     6.422
     4   6 C        2.974     0.002    27.979     8.676
     5   6 C        2.921    -0.080    30.003     8.982
     6   6 C        2.862     0.128    25.184     8.226
     7   8 O        1.706    -0.234    17.871     5.708
     8   6 C        3.644     0.029    20.428     6.496
     9   6 C        2.864     0.127    25.215     8.231
    10   8 O        1.706    -0.233    17.857     5.705
    11   6 C        3.645     0.028    20.430     6.496
    12   6 C        2.914    -0.076    29.890     8.965
    13   6 C        2.921    -0.054    29.349     8.884
    14   6 C        3.812    -0.064    21.724     6.634
    15   6 C        3.802    -0.068    21.802     6.648
    16   6 C        2.842     0.001    27.989     8.670
    17   7 N        2.728     0.003    21.211     6.840
    18   6 C        3.754    -0.016    20.911     6.520
    19   6 C        3.806    -0.073    21.884     6.659
    20   6 C        2.952    -0.019    28.470     8.751
    21   6 C        2.906    -0.044    29.098     8.845
    22   6 C        2.910    -0.082    30.062     8.991
    23   6 C        2.852     0.137    25.013     8.197
    24   8 O        1.706    -0.237    17.933     5.718
    25   6 C        3.645     0.025    20.482     6.504
    26   6 C        2.864     0.079    26.230     8.395
    27   8 O        1.712    -0.071    15.431     5.304
    28   6 C        2.743    -0.000    28.017     8.667
    29   6 C        3.807    -0.104    22.475     6.749
    30   6 C        3.699    -0.069    21.986     6.706
    31   6 C        3.853    -0.007    20.673     6.467
    32   6 C        3.756    -0.118    22.823     6.812
    33   6 C        3.755    -0.118    22.810     6.810
    34   1 H        0.926     0.051     2.310     2.377
    35   1 H        0.924     0.052     2.291     2.367
    36   1 H        0.925     0.079     1.986     2.204
    37   1 H        0.924     0.046     2.371     2.408
    38   1 H        0.924     0.053     2.281     2.362
    39   1 H        0.925     0.079     1.987     2.204
    40   1 H        0.924     0.046     2.377     2.411
    41   1 H        0.926     0.049     2.330     2.387
    42   1 H        0.926     0.036     2.499     2.472
    43   1 H        0.925     0.058     2.217     2.329
    44   1 H        0.924     0.052     2.298     2.371
    45   1 H        0.925     0.064     2.149     2.292
    46   1 H        0.924     0.076     2.023     2.224
    47   1 H        0.922     0.004     2.986     2.703
    48   1 H        0.926     0.065     2.143     2.289
    49   1 H        0.924     0.061     2.183     2.310
    50   1 H        0.924     0.066     2.125     2.280
    51   1 H        0.924     0.057     2.231     2.336
    52   1 H        0.924     0.054     2.274     2.358
    53   1 H        0.926     0.049     2.335     2.390
    54   1 H        0.926     0.058     2.224     2.332
    55   1 H        0.924     0.054     2.274     2.358
    56   1 H        0.924     0.056     2.248     2.345
    57   1 H        0.925     0.081     1.970     2.195
    58   1 H        0.926     0.084     1.934     2.175
    59   1 H        0.926     0.051     2.311     2.377
    60   1 H        0.930     0.121     1.608     1.983
    61   1 H        0.920     0.056     2.245     2.343
    62   1 H        0.924     0.074     2.044     2.236
    63   1 H        0.924     0.079     1.990     2.206
    64   1 H        0.925     0.075     2.026     2.226
    65   1 H        0.924     0.036     2.508     2.477
    66   1 H        0.925     0.068     2.103     2.268
    67   1 H        0.925     0.035     2.521     2.483
    68   1 H        0.925     0.049     2.329     2.386
    69   1 H        0.925     0.059     2.207     2.323
    70   1 H        0.925     0.033     2.542     2.493
    71   1 H        0.925     0.053     2.287     2.365
    72   1 H        0.860     0.153     1.379     1.840

Wiberg/Mayer (AO) data.
largest (>0.10) Wiberg bond orders for each atom

     #   Z sym  total        # sym  WBO       # sym  WBO       # sym  WBO
 ---------------------------------------------------------------------------
     1   7 N    3.037 --     2 C    1.953    72 H    0.943
     2   6 C    3.926 --     1 N    1.953     3 C    0.996    47 H    0.901
     3   6 C    3.978 --     2 C    0.996     4 C    0.969    14 C    0.958
                            31 C    0.943
     4   6 C    3.954 --    13 C    1.418     5 C    1.367     3 C    0.969
     5   6 C    3.965 --     6 C    1.404     4 C    1.367    34 H    0.958
     6   6 C    3.910 --     5 C    1.404     9 C    1.226     7 O    1.095
     7   8 O    2.254 --     6 C    1.095     8 C    0.979
     8   6 C    3.934 --     7 O    0.979    36 H    0.977    35 H    0.974
                            37 H    0.974
     9   6 C    3.907 --    12 C    1.396     6 C    1.226    10 O    1.096
    10   8 O    2.252 --     9 C    1.096    11 C    0.979
    11   6 C    3.934 --    10 O    0.979    39 H    0.977    40 H    0.974
                            38 H    0.974
    12   6 C    3.965 --    13 C    1.400     9 C    1.396    41 H    0.964
    13   6 C    3.959 --     4 C    1.418    12 C    1.400    42 H    0.963
    14   6 C    3.971 --    15 C    0.980    44 H    0.973    43 H    0.969
                             3 C    0.958
    15   6 C    3.987 --    16 C    1.060    14 C    0.980    45 H    0.962
                            46 H    0.930
    16   6 C    3.559 --    17 N    1.372    15 C    1.060    48 H    0.958
    17   7 N    3.456 --    16 C    1.372    30 C    0.999    18 C    0.994
    18   6 C    3.953 --    17 N    0.994    50 H    0.969    49 H    0.963
                            19 C    0.960
    19   6 C    3.977 --    20 C    1.019    52 H    0.971    51 H    0.970
                            18 C    0.960
    20   6 C    3.834 --    21 C    1.651    19 C    1.019    29 C    1.010
    21   6 C    3.966 --    20 C    1.651    22 C    1.251    53 H    0.964
    22   6 C    3.805 --    23 C    1.400    21 C    1.251    54 H    0.965
    23   6 C    3.893 --    22 C    1.400    26 C    1.240    24 O    1.100
    24   8 O    2.259 --    23 C    1.100    25 C    0.974
    25   6 C    3.930 --    57 H    0.977    55 H    0.975    56 H    0.974
                            24 O    0.974
    26   6 C    3.768 --    23 C    1.240    27 O    1.176    29 C    1.004
                            28 C    0.226
    27   8 O    2.562 --    28 C    1.273    26 C    1.176
    28   6 C    3.573 --    27 O    1.273    59 H    0.970    58 H    0.969
                            26 C    0.226
    29   6 C    3.977 --    20 C    1.010    26 C    1.004    60 H    0.952
                            61 H    0.918
    30   6 C    3.959 --    17 N    0.999    64 H    0.978    62 H    0.967
                            63 H    0.961
    31   6 C    3.975 --    33 C    1.009    32 C    1.008    65 H    0.961
                             3 C    0.943
    32   6 C    3.981 --    31 C    1.008    67 H    0.982    68 H    0.982
                            66 H    0.975
    33   6 C    3.985 --    31 C    1.009    70 H    0.983    71 H    0.981
                            69 H    0.977
    34   1 H    0.996 --     5 C    0.958
    35   1 H    0.994 --     8 C    0.974
    36   1 H    0.993 --     8 C    0.977
    37   1 H    0.995 --     8 C    0.974
    38   1 H    0.994 --    11 C    0.974
    39   1 H    0.993 --    11 C    0.977
    40   1 H    0.994 --    11 C    0.974
    41   1 H    0.996 --    12 C    0.964
    42   1 H    0.998 --    13 C    0.963
    43   1 H    0.995 --    14 C    0.969
    44   1 H    0.996 --    14 C    0.973
    45   1 H    0.995 --    15 C    0.962
    46   1 H    0.969 --    15 C    0.930
    47   1 H    0.989 --     2 C    0.901
    48   1 H    0.995 --    16 C    0.958
    49   1 H    0.991 --    18 C    0.963
    50   1 H    0.995 --    18 C    0.969
    51   1 H    0.994 --    19 C    0.970
    52   1 H    0.995 --    19 C    0.971
    53   1 H    0.997 --    21 C    0.964
    54   1 H    0.995 --    22 C    0.965
    55   1 H    0.994 --    25 C    0.975
    56   1 H    0.994 --    25 C    0.974
    57   1 H    0.993 --    25 C    0.977
    58   1 H    0.992 --    28 C    0.969
    59   1 H    0.997 --    28 C    0.970
    60   1 H    0.978 --    29 C    0.952
    61   1 H    0.968 --    29 C    0.918
    62   1 H    0.985 --    30 C    0.967
    63   1 H    0.987 --    30 C    0.961
    64   1 H    0.994 --    30 C    0.978
    65   1 H    0.994 --    31 C    0.961
    66   1 H    0.992 --    32 C    0.975
    67   1 H    0.997 --    32 C    0.982
    68   1 H    0.995 --    32 C    0.982
    69   1 H    0.994 --    33 C    0.977
    70   1 H    0.998 --    33 C    0.983
    71   1 H    0.994 --    33 C    0.981
    72   1 H    0.972 --     1 N    0.943
 ---------------------------------------------------------------------------

molecular dipole:
                 x           y           z       tot (Debye)
 q only:        1.972      -0.445      -0.696
   full:        2.283      -0.513      -0.825       6.306

           -------------------------------------------------
          | TOTAL ENERGY             -101.987930325051 Eh   |
          | GRADIENT NORM               0.003409746832 Eh/α |
          | HOMO-LUMO GAP               1.137189649695 eV   |
           -------------------------------------------------

 * finished run on 2024/04/06 at 11:14:12.093
