   * xtb version 6.6.1 (8d0f1dd) compiled by 'conda@1efc2f54142f' on 2023-08-01
          program call               : xtb xtbopt.xyz --opt crude --input .xc2 --gfn2

   ID    Z sym.   atoms
    1    7 N      1, 17
    2    6 C      2-6, 8, 9, 11-16, 18-23, 25, 26, 28-33
    3    8 O      7, 10, 24, 27
    4    1 H      34-72
########################################################################
[WARNING] Please study the warnings concerning your input carefully
-1- readin_getIntValue: could not parse ''
########################################################################

          :  Hamiltonian                  GFN2-xTB          :
 * total energy  :   -99.1746061 Eh     change       -0.2994227E-10 Eh
 * total energy  :   -99.3362378 Eh     change       -0.1616317E+00 Eh
 * total energy  :   -99.3381043 Eh     change       -0.1866506E-02 Eh
 * total energy  :   -99.3391351 Eh     change       -0.1030766E-02 Eh
 * total energy  :   -99.3393716 Eh     change       -0.2365650E-03 Eh
   *** GEOMETRY OPTIMIZATION CONVERGED AFTER 5 ITERATIONS ***

 final structure:
================
72
 xtb: 6.6.1 (8d0f1dd)
N           -1.82522283120082        2.76725690783000        2.23978480642630
C           -1.79101308439902        2.08768835426093        1.19174109032306
C           -2.94973994036029        1.90132488438057        0.25202082488094
C           -3.43246954811456        0.45992743756977        0.31871121536208
C           -4.38383918541542        0.00714097030992       -0.59790074091081
C           -4.86919249740801       -1.28866363359215       -0.55765550228664
O           -5.79762006533517       -1.79930497869723       -1.39489029280637
C           -6.42685593358980       -0.94870824764125       -2.32386562452666
C           -4.38001183601173       -2.18868226013973        0.42602171680598
O           -4.89979965511194       -3.43370362470986        0.38410234542315
C           -4.52705971160729       -4.36297902542060        1.37397818908337
C           -3.43690419524610       -1.73396600106146        1.33264827265666
C           -2.97279997637442       -0.42470912433170        1.28077779008887
C           -2.40567780138626        2.20841962020566       -1.16816186111783
C           -1.49130203676573        1.11607772069384       -1.75486471795098
C           -0.15622317914856        1.06475532404034       -1.11898333979704
N            0.47721995375614       -0.04328510761306       -0.73424018131853
C            1.84075129235847        0.01938130254885       -0.27180086849072
C            2.84389589159858       -0.47096475251810       -1.34080736572249
C            4.25306699933817       -0.23405357827597       -0.88916506879827
C            4.92388636948486        0.89623910753246       -1.20840190467441
C            6.24295713935847        1.16016521171462       -0.77295772763557
C            6.93130437058819        0.22980950109492       -0.01910410434751
O            8.19766238474097        0.36000423995403        0.42792023040995
C            8.90025041254010        1.55270745610062        0.15340976614614
C            6.30265281104046       -0.99306840452677        0.33036550785367
O            7.02779509985092       -1.86549167271328        0.99726556517456
C            6.64676226439295       -3.02679833756404        1.43226345215113
C            4.87563332646134       -1.28872054718452       -0.02310178809145
C           -0.14500346291510       -1.34358541385468       -0.80220574503402
C           -4.15394555109919        2.83603770876142        0.57184737804013
C           -4.78567252021300        2.49184435805643        1.91877007912948
C           -3.78927144117075        4.31767215410796        0.53729975283876
H           -4.76154455782513        0.68515862465337       -1.34487608064924
H           -6.92230902801309       -0.10902440189563       -1.82706379115913
H           -7.17392850823690       -1.56316626716094       -2.82241360892713
H           -5.71871520233256       -0.56906174113357       -3.06780943594343
H           -4.77854262548137       -4.00407994926986        2.37645648705991
H           -5.09918570982473       -5.26341967002205        1.15933358825448
H           -3.45784808769591       -4.59412323298025        1.32607836771689
H           -3.06195269933997       -2.38873748137874        2.10256363505556
H           -2.26314667093022       -0.09862682981912        2.02543631812672
H           -3.24962153099401        2.33944423112621       -1.84451903564684
H           -1.85788210661802        3.15108523877253       -1.13888487124300
H           -1.99647165533773        0.15300114945700       -1.70908634304644
H           -1.34517861164283        1.36641941877396       -2.81385629747995
H           -0.88104527472464        1.57946049310622        0.81819381832368
H            0.41518337765053        1.98025891595458       -1.08552465477521
H            1.93788177990066       -0.59152383373697        0.63017926364495
H            2.08641654310162        1.05183249637795       -0.01511829154190
H            2.65393986954758        0.07928261538831       -2.26381423160580
H            2.67965997696284       -1.53269245819403       -1.53240873920117
H            4.45190619981412        1.63806921677796       -1.83634572120764
H            6.70333334988768        2.08929774237589       -1.05955127852584
H            8.38711639847038        2.42278558758546        0.57301797278473
H            9.04449535244785        1.69391026510122       -0.92142824704378
H            9.86878537881982        1.43683025036514        0.63579294279242
H            7.40449459999622       -3.59832491275903        1.93195363914652
H            5.65533976770733       -3.41940335322233        1.29160252242994
H            4.80197076220948       -2.26350871043065       -0.51731066104758
H            4.29522286699395       -1.38365748929929        0.91518421550915
H           -0.29440221471783       -1.65661436730025       -1.83787835839080
H           -1.11336486808911       -1.33118181858293       -0.29555269868883
H            0.49279480395374       -2.07239454988464       -0.30865797951965
H           -4.90346946743092        2.65504017371125       -0.20691183282591
H           -4.07697399204769        2.67587424006239        2.71950784747264
H           -5.09496857304477        1.45006284327834        1.95308713575619
H           -5.66158388606214        3.11469103230556        2.07998516887264
H           -3.02980514279778        4.53678394307521        1.28133499191132
H           -3.43229993381978        4.62552794336620       -0.44198339486058
H           -4.67218648201181        4.90719790038673        0.76993669246319
H           -0.96981246408509        2.84189871825427        2.78179463933014

          :  Hamiltonian                  GFN2-xTB          :
         :: total energy             -99.339371623720 Eh    ::
         :: gradient norm              0.007864589097 Eh/a0 ::
         :: HOMO-LUMO gap              1.148114385626 eV    ::
         :: SCC energy              -100.702237560932 Eh    ::
         :: -> dispersion             -0.075283745976 Eh    ::
         :: repulsion energy           1.361598282786 Eh    ::

    * Orbital Energies and Occupations

         #    Occupation            Energy/Eh            Energy/eV
      -------------------------------------------------------------
         1        2.0000           -0.8504779             -23.1427
       ...           ...                  ...                  ...
        78        1.9990           -0.5283267             -14.3765
        79        1.9988           -0.5250805             -14.2882
        80        1.9986           -0.5230484             -14.2329
        81        1.9986           -0.5225176             -14.2184
        82        1.9980           -0.5168635             -14.0646
        83        1.9968           -0.5093140             -13.8591
        84        1.9962           -0.5066519             -13.7867
        85        1.9954           -0.5037810             -13.7086
        86        1.9843           -0.4842168             -13.1762
        87        1.9794           -0.4799020             -13.0588
        88        1.9484           -0.4651178             -12.6565
        89        1.8953           -0.4534865             -12.3400
        90        1.6078           -0.4299691             -11.7001 (HOMO)
        91        0.4441           -0.3877767             -10.5519 (LUMO)
        92        0.1362           -0.3661982              -9.9648
        93        0.0175           -0.3327047              -9.0534
        94        0.0043           -0.3102684              -8.4428
        95        0.0035           -0.3070447              -8.3551
        96        0.0032           -0.3058312              -8.3221
        97        0.0000           -0.2235896              -6.0842
        98        0.0000           -0.1843371              -5.0161
        99                         -0.1328206              -3.6142
       100                         -0.0743895              -2.0242
       101                         -0.0632862              -1.7221
       ...                                ...                  ...
       171                          0.5791283              15.7589
      -------------------------------------------------------------
                  HL-Gap            0.0421924 Eh            1.1481 eV

     #   Z          covCN         q      C6AA      α(0)
     1   7 N        1.773    -0.273    27.900     7.822
     2   6 C        2.826     0.101    25.761     8.317
     3   6 C        3.907     0.006    20.416     6.422
     4   6 C        2.974     0.002    27.980     8.677
     5   6 C        2.921    -0.080    30.003     8.982
     6   6 C        2.863     0.128    25.185     8.226
     7   8 O        1.706    -0.234    17.871     5.708
     8   6 C        3.644     0.029    20.428     6.496
     9   6 C        2.864     0.127    25.214     8.231
    10   8 O        1.706    -0.233    17.856     5.705
    11   6 C        3.645     0.028    20.430     6.496
    12   6 C        2.914    -0.076    29.889     8.965
    13   6 C        2.921    -0.054    29.349     8.884
    14   6 C        3.812    -0.064    21.723     6.634
    15   6 C        3.802    -0.068    21.802     6.648
    16   6 C        2.843     0.002    27.984     8.670
    17   7 N        2.728     0.003    21.210     6.840
    18   6 C        3.754    -0.015    20.904     6.519
    19   6 C        3.806    -0.072    21.881     6.659
    20   6 C        2.953    -0.013    28.347     8.733
    21   6 C        2.907    -0.044    29.086     8.843
    22   6 C        2.910    -0.082    30.053     8.989
    23   6 C        2.851     0.137    25.004     8.195
    24   8 O        1.706    -0.237    17.931     5.717
    25   6 C        3.645     0.025    20.485     6.505
    26   6 C        2.865     0.084    26.130     8.379
    27   8 O        1.712    -0.069    15.402     5.299
    28   6 C        2.743    -0.000    28.014     8.666
    29   6 C        3.808    -0.072    21.870     6.657
    30   6 C        3.699    -0.069    21.986     6.706
    31   6 C        3.853    -0.007    20.673     6.467
    32   6 C        3.756    -0.118    22.822     6.812
    33   6 C        3.755    -0.118    22.812     6.810
    34   1 H        0.926     0.051     2.310     2.377
    35   1 H        0.924     0.052     2.291     2.367
    36   1 H        0.925     0.079     1.985     2.203
    37   1 H        0.924     0.046     2.371     2.408
    38   1 H        0.924     0.053     2.281     2.362
    39   1 H        0.925     0.079     1.987     2.204
    40   1 H        0.924     0.046     2.377     2.411
    41   1 H        0.926     0.049     2.330     2.387
    42   1 H        0.926     0.036     2.500     2.472
    43   1 H        0.925     0.059     2.216     2.328
    44   1 H        0.924     0.052     2.298     2.370
    45   1 H        0.925     0.064     2.148     2.292
    46   1 H        0.923     0.076     2.022     2.224
    47   1 H        0.922     0.004     2.983     2.701
    48   1 H        0.926     0.065     2.141     2.288
    49   1 H        0.924     0.061     2.182     2.310
    50   1 H        0.924     0.066     2.127     2.281
    51   1 H        0.924     0.058     2.226     2.333
    52   1 H        0.924     0.054     2.272     2.357
    53   1 H        0.926     0.049     2.327     2.385
    54   1 H        0.926     0.058     2.224     2.332
    55   1 H        0.924     0.054     2.271     2.357
    56   1 H        0.924     0.056     2.247     2.344
    57   1 H        0.925     0.081     1.967     2.193
    58   1 H        0.926     0.085     1.924     2.169
    59   1 H        0.926     0.051     2.307     2.375
    60   1 H        0.924     0.067     2.119     2.277
    61   1 H        0.922     0.060     2.205     2.322
    62   1 H        0.924     0.074     2.043     2.235
    63   1 H        0.924     0.079     1.990     2.206
    64   1 H        0.925     0.076     2.026     2.226
    65   1 H        0.924     0.036     2.508     2.477
    66   1 H        0.925     0.068     2.105     2.269
    67   1 H        0.925     0.035     2.521     2.483
    68   1 H        0.925     0.049     2.328     2.386
    69   1 H        0.925     0.059     2.206     2.323
    70   1 H        0.925     0.033     2.541     2.493
    71   1 H        0.925     0.053     2.286     2.365
    72   1 H        0.860     0.153     1.379     1.839

Wiberg/Mayer (AO) data.
largest (>0.10) Wiberg bond orders for each atom

     #   Z sym  total        # sym  WBO       # sym  WBO       # sym  WBO
 ---------------------------------------------------------------------------
     1   7 N    3.037 --     2 C    1.953    72 H    0.943
     2   6 C    3.926 --     1 N    1.953     3 C    0.996    47 H    0.900
     3   6 C    3.978 --     2 C    0.996     4 C    0.969    14 C    0.958
                            31 C    0.943
     4   6 C    3.954 --    13 C    1.418     5 C    1.367     3 C    0.969
     5   6 C    3.965 --     6 C    1.404     4 C    1.367    34 H    0.958
     6   6 C    3.910 --     5 C    1.404     9 C    1.226     7 O    1.095
     7   8 O    2.254 --     6 C    1.095     8 C    0.979
     8   6 C    3.934 --     7 O    0.979    36 H    0.977    35 H    0.974
                            37 H    0.974
     9   6 C    3.907 --    12 C    1.396     6 C    1.226    10 O    1.096
    10   8 O    2.252 --     9 C    1.096    11 C    0.979
    11   6 C    3.934 --    10 O    0.979    39 H    0.977    40 H    0.974
                            38 H    0.974
    12   6 C    3.965 --    13 C    1.400     9 C    1.396    41 H    0.964
    13   6 C    3.959 --     4 C    1.418    12 C    1.400    42 H    0.963
    14   6 C    3.971 --    15 C    0.980    44 H    0.973    43 H    0.969
                             3 C    0.958
    15   6 C    3.987 --    16 C    1.060    14 C    0.980    45 H    0.962
                            46 H    0.930
    16   6 C    3.560 --    17 N    1.373    15 C    1.060    48 H    0.958
    17   7 N    3.456 --    16 C    1.373    30 C    0.999    18 C    0.994
    18   6 C    3.953 --    17 N    0.994    50 H    0.969    49 H    0.963
                            19 C    0.960
    19   6 C    3.977 --    20 C    1.018    51 H    0.971    52 H    0.970
                            18 C    0.960
    20   6 C    3.836 --    21 C    1.645    29 C    1.022    19 C    1.018
    21   6 C    3.965 --    20 C    1.645    22 C    1.253    53 H    0.965
    22   6 C    3.810 --    23 C    1.404    21 C    1.253    54 H    0.965
    23   6 C    3.893 --    22 C    1.404    26 C    1.234    24 O    1.101
    24   8 O    2.259 --    23 C    1.101    25 C    0.974
    25   6 C    3.930 --    57 H    0.977    55 H    0.975    56 H    0.974
                            24 O    0.974
    26   6 C    3.775 --    23 C    1.234    27 O    1.177    29 C    1.017
                            28 C    0.228
    27   8 O    2.566 --    28 C    1.275    26 C    1.177
    28   6 C    3.581 --    27 O    1.275    59 H    0.969    58 H    0.969
                            26 C    0.228
    29   6 C    3.989 --    20 C    1.022    26 C    1.017    60 H    0.936
                            61 H    0.928
    30   6 C    3.959 --    17 N    0.999    64 H    0.978    62 H    0.967
                            63 H    0.961
    31   6 C    3.975 --    33 C    1.009    32 C    1.008    65 H    0.961
                             3 C    0.943
    32   6 C    3.981 --    31 C    1.008    67 H    0.982    68 H    0.982
                            66 H    0.975
    33   6 C    3.985 --    31 C    1.009    70 H    0.983    71 H    0.981
                            69 H    0.977
    34   1 H    0.996 --     5 C    0.958
    35   1 H    0.994 --     8 C    0.974
    36   1 H    0.993 --     8 C    0.977
    37   1 H    0.995 --     8 C    0.974
    38   1 H    0.994 --    11 C    0.974
    39   1 H    0.993 --    11 C    0.977
    40   1 H    0.994 --    11 C    0.974
    41   1 H    0.996 --    12 C    0.964
    42   1 H    0.998 --    13 C    0.963
    43   1 H    0.995 --    14 C    0.969
    44   1 H    0.996 --    14 C    0.973
    45   1 H    0.995 --    15 C    0.962
    46   1 H    0.969 --    15 C    0.930
    47   1 H    0.989 --     2 C    0.900
    48   1 H    0.995 --    16 C    0.958
    49   1 H    0.991 --    18 C    0.963
    50   1 H    0.995 --    18 C    0.969
    51   1 H    0.994 --    19 C    0.971
    52   1 H    0.995 --    19 C    0.970
    53   1 H    0.997 --    21 C    0.965
    54   1 H    0.995 --    22 C    0.965
    55   1 H    0.994 --    25 C    0.975
    56   1 H    0.994 --    25 C    0.974
    57   1 H    0.993 --    25 C    0.977
    58   1 H    0.992 --    28 C    0.969
    59   1 H    0.997 --    28 C    0.969
    60   1 H    0.976 --    29 C    0.936
    61   1 H    0.971 --    29 C    0.928
    62   1 H    0.985 --    30 C    0.967
    63   1 H    0.987 --    30 C    0.961
    64   1 H    0.994 --    30 C    0.978
    65   1 H    0.994 --    31 C    0.961
    66   1 H    0.992 --    32 C    0.975
    67   1 H    0.997 --    32 C    0.982
    68   1 H    0.995 --    32 C    0.982
    69   1 H    0.994 --    33 C    0.977
    70   1 H    0.998 --    33 C    0.983
    71   1 H    0.994 --    33 C    0.981
    72   1 H    0.972 --     1 N    0.943
 ---------------------------------------------------------------------------

molecular dipole:
                 x           y           z       tot (Debye)
 q only:        1.981      -0.395      -0.686
   full:        2.287      -0.503      -0.824       6.310

           -------------------------------------------------
          | TOTAL ENERGY              -99.339371623720 Eh   |
          | GRADIENT NORM               0.007864589097 Eh/α |
          | HOMO-LUMO GAP               1.148114385626 eV   |
           -------------------------------------------------

 * finished run on 2024/04/06 at 11:14:13.238
