   * xtb version 6.6.1 (8d0f1dd) compiled by 'conda@1efc2f54142f' on 2023-08-01
          program call               : xtb xtbopt.xyz --opt crude --input .xc2 --gfn2

   ID    Z sym.   atoms
    1    6 C      1, 3, 5-7, 10, 11, 14
    2    7 N      2, 4, 9, 13
    3    8 O      8, 12
    4    1 H      15-25
########################################################################
[WARNING] Please study the warnings concerning your input carefully
-1- readin_getIntValue: could not parse ''
########################################################################

          :  Hamiltonian                  GFN2-xTB          :
 * total energy  :   -42.1097440 Eh     change       -0.5044853E-12 Eh
   *** GEOMETRY OPTIMIZATION CONVERGED AFTER 1 ITERATIONS ***

 final structure:
================
25
 xtb: 6.6.1 (8d0f1dd)
C            2.68798441741630        1.31798049700175        0.00011859425586
N            1.93689279854607        0.09325788226228        0.03447321362442
C            2.41738323484918       -1.14417268092914       -0.08142832121622
N            1.40161746082002       -2.01779944429845        0.03130022573291
C            0.24093570810042       -1.29158536362888        0.21661832387378
C            0.58409218675001        0.03647883992706        0.21071941747573
C           -0.25623648204444        1.29570860090938        0.44118347546438
O           -0.28322689409958        1.74190616773883        1.58603694596998
N           -0.80077284264243        1.71277712070750       -0.66494273075682
C           -1.58544041068356        2.89482023868605       -0.73480516521570
C           -1.67748959044707       -1.57993604442859        1.49201556011972
O           -2.19754918812408       -1.22763107725588        2.46304331704083
N           -1.01011551271574       -1.90497113419486        0.45530932593137
C           -1.51779382490147       -2.87560319260915       -0.52858647441090
H            2.45530172820287        1.90938143749149        0.88792578287567
H            3.75270250358021        1.10016397294707       -0.02746270398547
H            2.40850872534767        1.90145952817569       -0.87846009202306
H            3.44471975323319       -1.40693467455405       -0.23700654488242
H           -0.97881162984834        3.78420738554284       -0.53631851632972
H           -1.99761180898729        2.96112353935061       -1.74170412956762
H           -2.40305112829021        2.87804946548366       -0.00600852308300
H           -1.06168684398200       -3.85464723769135       -0.37306450462606
H           -1.28956816853521       -2.51371153997237       -1.53027021338837
H           -2.59606137396260       -2.97008013057278       -0.42168784125182
H            1.48570869666506       -3.02200361448730       -0.02582680373209

          :  Hamiltonian                  GFN2-xTB          :
         :: total energy             -42.109744035702 Eh    ::
         :: gradient norm              0.002662650233 Eh/a0 ::
         :: HOMO-LUMO gap              1.285674582336 eV    ::
         :: SCC energy               -42.654476193726 Eh    ::
         :: -> dispersion             -0.021492464929 Eh    ::
         :: repulsion energy           0.544499622944 Eh    ::

    * Orbital Energies and Occupations

         #    Occupation            Energy/Eh            Energy/eV
      -------------------------------------------------------------
         1        2.0000           -0.9300113             -25.3069
       ...           ...                  ...                  ...
        25        2.0000           -0.6557298             -17.8433
        26        2.0000           -0.6481221             -17.6363
        27        2.0000           -0.6418673             -17.4661
        28        2.0000           -0.6359419             -17.3049
        29        1.9999           -0.6304401             -17.1551
        30        1.9999           -0.6209252             -16.8962
        31        1.9998           -0.6100936             -16.6015
        32        1.9992           -0.5903715             -16.0648
        33        1.9991           -0.5884152             -16.0116
        34        1.9985           -0.5801655             -15.7871
        35        1.9532           -0.5250962             -14.2886
        36        1.7524           -0.4969961             -13.5240
        37        1.7082           -0.4939948             -13.4423 (HOMO)
        38        0.4570           -0.4467472             -12.1566 (LUMO)
        39        0.1026           -0.4198145             -11.4237
        40        0.0261           -0.3975019             -10.8166
        41        0.0040           -0.3677747             -10.0077
        42        0.0002           -0.3198565              -8.7037
        43        0.0000           -0.2310118              -6.2862
        44                         -0.1879038              -5.1131
        45                         -0.1380502              -3.7565
        46                         -0.0777981              -2.1170
        47                         -0.0506439              -1.3781
        48                         -0.0441541              -1.2015
       ...                                ...                  ...
        67                          0.9161169              24.9288
      -------------------------------------------------------------
                  HL-Gap            0.0472477 Eh            1.2857 eV

     #   Z          covCN         q      C6AA      α(0)
     1   6 C        3.693    -0.086    22.324     6.760
     2   7 N        2.861     0.083    19.803     6.609
     3   6 C        3.033     0.048    26.889     8.505
     4   7 N        2.798    -0.059    22.370     7.025
     5   6 C        3.066     0.080    26.143     8.384
     6   6 C        3.091     0.011    27.656     8.620
     7   6 C        2.760     0.275    22.356     7.743
     8   8 O        0.858    -0.419    22.069     6.298
     9   7 N        1.834    -0.267    27.793     7.812
    10   6 C        3.700    -0.021    21.108     6.570
    11   6 C        1.825     0.284    24.696     8.029
    12   8 O        0.856    -0.103    16.557     5.456
    13   7 N        2.727     0.019    20.926     6.794
    14   6 C        3.701    -0.081    22.208     6.739
    15   1 H        0.924     0.123     1.590     1.972
    16   1 H        0.925     0.101     1.774     2.083
    17   1 H        0.924     0.114     1.664     2.017
    18   1 H        0.926     0.123     1.587     1.970
    19   1 H        0.924     0.078     2.000     2.212
    20   1 H        0.925     0.078     1.998     2.210
    21   1 H        0.924     0.077     2.013     2.219
    22   1 H        0.924     0.097     1.813     2.106
    23   1 H        0.925     0.108     1.713     2.046
    24   1 H        0.925     0.110     1.694     2.036
    25   1 H        0.860     0.225     0.986     1.556

Wiberg/Mayer (AO) data.
largest (>0.10) Wiberg bond orders for each atom

     #   Z sym  total        # sym  WBO       # sym  WBO       # sym  WBO
 ---------------------------------------------------------------------------
     1   6 C    3.923 --     2 N    0.988    16 H    0.975    15 H    0.957
                            17 H    0.957
     2   7 N    3.689 --     3 C    1.352     6 C    1.208     1 C    0.988
     3   6 C    3.826 --     2 N    1.352     4 N    1.301    18 H    0.952
     4   7 N    3.556 --     3 C    1.301     5 C    1.156    25 H    0.921
     5   6 C    3.851 --     6 C    1.497     4 N    1.156    13 N    0.983
     6   6 C    3.887 --     5 C    1.497     2 N    1.208     7 C    0.890
     7   6 C    3.930 --     8 O    1.547     9 N    1.433     6 C    0.890
     8   8 O    1.831 --     7 C    1.547     9 N    0.176
     9   7 N    2.709 --     7 C    1.433    10 C    1.053     8 O    0.176
    10   6 C    3.910 --     9 N    1.053    20 H    0.957    21 H    0.934
                            19 H    0.934
    11   6 C    3.551 --    12 O    2.046    13 N    1.425
    12   8 O    2.294 --    11 C    2.046    13 N    0.187
    13   7 N    3.571 --    11 C    1.425     5 C    0.983    14 C    0.923
                            12 O    0.187
    14   6 C    3.885 --    24 H    0.974    23 H    0.972    22 H    0.971
                            13 N    0.923
    15   1 H    0.983 --     1 C    0.957
    16   1 H    0.989 --     1 C    0.975
    17   1 H    0.985 --     1 C    0.957
    18   1 H    0.984 --     3 C    0.952
    19   1 H    0.950 --    10 C    0.934
    20   1 H    0.967 --    10 C    0.957
    21   1 H    0.948 --    10 C    0.934
    22   1 H    0.990 --    14 C    0.971
    23   1 H    0.987 --    14 C    0.972
    24   1 H    0.987 --    14 C    0.974
    25   1 H    0.948 --     4 N    0.921
 ---------------------------------------------------------------------------

molecular dipole:
                 x           y           z       tot (Debye)
 q only:        1.716      -3.179      -1.071
   full:        1.835      -3.445      -1.035      10.264

           -------------------------------------------------
          | TOTAL ENERGY              -42.109744035702 Eh   |
          | GRADIENT NORM               0.002662650233 Eh/α |
          | HOMO-LUMO GAP               1.285674582336 eV   |
           -------------------------------------------------

 * finished run on 2024/06/05 at 19:58:04.999
