   * xtb version 6.6.1 (8d0f1dd) compiled by 'conda@1efc2f54142f' on 2023-08-01
          program call               : xtb xtbopt.xyz --opt crude --input .xc2 --gfn2

   ID    Z sym.   atoms
    1    7 N      1, 17
    2    6 C      2-6, 8, 9, 11-16, 18-23, 25, 26, 28-33
    3    8 O      7, 10, 24, 27
    4    1 H      34-72
########################################################################
[WARNING] Please study the warnings concerning your input carefully
-1- readin_getIntValue: could not parse ''
########################################################################

          :  Hamiltonian                  GFN2-xTB          :
 * total energy  :   -99.3510335 Eh     change       -0.1506351E-11 Eh
   *** GEOMETRY OPTIMIZATION CONVERGED AFTER 1 ITERATIONS ***

 final structure:
================
72
 xtb: 6.6.1 (8d0f1dd)
N           -1.84988699773683        2.63857287025123        2.25193898879410
C           -1.74866315958971        2.05860830714194        1.14730539434800
C           -2.89326682289216        1.85720554832957        0.18889448224678
C           -3.39261213357168        0.43064790752816        0.26939609857081
C           -4.33545795413024       -0.02934474365030       -0.60688088534426
C           -4.86797889524126       -1.32470144028198       -0.53961499878090
O           -5.81152705944752       -1.81354642810243       -1.34731145264503
C           -6.41925642588291       -0.98357477843166       -2.31216036305876
C           -4.39663654174191       -2.23471587895931        0.47453662420682
O           -4.97337186440811       -3.45361192856032        0.42978110077006
C           -4.62854982474336       -4.40237605031600        1.41305091562908
C           -3.45873774224203       -1.82203407068146        1.36245552014166
C           -2.88137261122604       -0.45265395966034        1.35135902375997
C           -2.34527399162855        2.15779801553568       -1.23362554296972
C           -1.44179225777632        1.06632747128561       -1.83764474247654
C           -0.08113583669922        1.01398632407356       -1.23885486123749
N            0.52339033819244       -0.07213272192195       -0.77153219996242
C            1.90991819785543        0.09027388903749       -0.33994865983345
C            2.88390858867747       -0.23676420858941       -1.48149163517967
C            4.29865044462119       -0.05216209743604       -1.00719292016824
C            4.95720487229947        1.15243296813629       -1.19032314499638
C            6.24787672581460        1.33432900558909       -0.71800866314377
C            6.90532086231463        0.31376671504273       -0.04604679736742
O            8.15290655857277        0.38060742403379        0.45471447034185
C            8.89890489675131        1.56415441451169        0.28495735792276
C            6.23651980317786       -0.92667119930497        0.14818991987377
O            6.94464563478522       -1.86553066932331        0.80726251513165
C            6.37287010976675       -3.13401328175656        1.02084013569230
C            4.94653100427566       -1.08443452863045       -0.33315358417833
C            0.01830940824795       -1.29408270542740       -0.66757546576515
C           -4.10188451702041        2.80587948363621        0.48738787785469
C           -4.78588688263342        2.45638192916933        1.80729409880036
C           -3.71309717270213        4.28122006900368        0.48439675283964
H           -4.69934513590495        0.62786418465054       -1.38073841604234
H           -6.87657118821206       -0.10411461982614       -1.85054588015643
H           -7.19407748131703       -1.59227585114874       -2.77363459820783
H           -5.70467163834198       -0.66819114716398       -3.07822890584618
H           -4.85591031299760       -4.03543454304049        2.41814578058911
H           -5.23845115997851       -5.27778674747893        1.20036032221264
H           -3.56989933456130       -4.67303377433539        1.35308360646959
H           -3.09597098971487       -2.47928548394760        2.13519395341230
H           -3.06383589946280        0.02855389533322        2.32358375008596
H           -3.18979153453446        2.30401677439060       -1.90661129613123
H           -1.78732624008239        3.09410870670098       -1.19970185824976
H           -1.94141183436873        0.10183829313456       -1.77079907917002
H           -1.33187613842929        1.30861189662770       -2.90177750609962
H           -0.79941128842013        1.65769078616233        0.75343481324945
H            0.51006642452910        1.91379253883475       -1.28232781588841
H            2.10200834843501       -0.57427068249208        0.50454085500522
H            2.07212330129687        1.11878917927740       -0.01124634116281
H            2.68290434799924        0.42511714808695       -2.32534765775102
H            2.72297204966624       -1.26620736733586       -1.80598544308680
H            4.47045189171420        1.96023132288748       -1.71521385485160
H            6.73647683745275        2.28062914991941       -0.88190865310158
H            8.41946122936465        2.41435929664529        0.77981866290634
H            9.04903955951138        1.79420005855135       -0.77409529280114
H            9.86253985469595        1.37142548433061        0.75261678560762
H            7.12728259619704       -3.70913431987841        1.55388793411406
H            5.46877968127396       -3.06861178805134        1.63463844067349
H            6.13896000958565       -3.63276729830353        0.07522171696585
H            4.43270568453276       -2.02350818364017       -0.19946782652659
H           -0.96457157732376       -1.52482801445627       -1.02220548650892
H           -1.78553732017136       -0.52912566414227        1.28564727077660
H            0.63709684143927       -2.08034390121693       -0.28520010342583
H           -4.82601051821555        2.64615730439568       -0.31919154479504
H           -4.09163260513609        2.58660021437748        2.63141374790979
H           -5.15439910928014        1.43299035061568        1.80364300453123
H           -5.63265684368131        3.12006329575563        1.96256965704491
H           -2.98927054846720        4.48464415679659        1.26756413348191
H           -3.30268772866423        4.59047266155644       -0.47290146616997
H           -4.59796917173463        4.88233182934859        0.67673867963813
H           -1.00363621572395        2.73872872931335        2.80389539408194

          :  Hamiltonian                  GFN2-xTB          :
         :: total energy             -99.351033524350 Eh    ::
         :: gradient norm              0.002673513052 Eh/a0 ::
         :: HOMO-LUMO gap              0.989372472150 eV    ::
         :: SCC energy              -100.721517752738 Eh    ::
         :: -> dispersion             -0.075090792190 Eh    ::
         :: repulsion energy           1.369227803555 Eh    ::

    * Orbital Energies and Occupations

         #    Occupation            Energy/Eh            Energy/eV
      -------------------------------------------------------------
         1        2.0000           -0.8255855             -22.4653
       ...           ...                  ...                  ...
        78        1.9987           -0.5317073             -14.4685
        79        1.9986           -0.5308279             -14.4446
        80        1.9982           -0.5266499             -14.3309
        81        1.9980           -0.5254113             -14.2972
        82        1.9968           -0.5179409             -14.0939
        83        1.9968           -0.5177276             -14.0881
        84        1.9961           -0.5143967             -13.9974
        85        1.9954           -0.5118904             -13.9292
        86        1.9769           -0.4862128             -13.2305
        87        1.9721           -0.4832165             -13.1490
        88        1.9535           -0.4749696             -12.9246
        89        1.8359           -0.4540264             -12.3547
        90        1.6314           -0.4393454             -11.9552 (HOMO)
        91        0.6163           -0.4029866             -10.9658 (LUMO)
        92        0.0190           -0.3422209              -9.3123
        93        0.0145           -0.3378873              -9.1944
        94        0.0048           -0.3203989              -8.7185
        95        0.0025           -0.3098584              -8.4317
        96        0.0021           -0.3071653              -8.3584
        97        0.0000           -0.2328401              -6.3359
        98        0.0000           -0.1849852              -5.0337
        99                         -0.1155763              -3.1450
       100                         -0.0770122              -2.0956
       101                         -0.0711390              -1.9358
       ...                                ...                  ...
       171                          0.5787337              15.7481
      -------------------------------------------------------------
                  HL-Gap            0.0363588 Eh            0.9894 eV

     #   Z          covCN         q      C6AA      α(0)
     1   7 N        1.774    -0.277    28.015     7.838
     2   6 C        2.825     0.097    25.847     8.331
     3   6 C        3.906     0.006    20.424     6.424
     4   6 C        2.962     0.014    27.690     8.631
     5   6 C        2.904    -0.073    29.819     8.954
     6   6 C        2.860     0.136    25.025     8.200
     7   8 O        1.706    -0.198    17.308     5.617
     8   6 C        3.644     0.021    20.561     6.518
     9   6 C        2.850     0.133    25.082     8.208
    10   8 O        1.706    -0.235    17.896     5.712
    11   6 C        3.646     0.025    20.492     6.505
    12   6 C        2.901    -0.082    30.049     8.988
    13   6 C        3.812    -0.064    21.725     6.634
    14   6 C        3.809    -0.066    21.754     6.639
    15   6 C        3.801    -0.064    21.723     6.636
    16   6 C        2.861    -0.044    29.094     8.841
    17   7 N        2.730     0.085    19.766     6.603
    18   6 C        3.784    -0.018    20.913     6.514
    19   6 C        3.808    -0.068    21.799     6.646
    20   6 C        2.970     0.001    28.006     8.680
    21   6 C        2.922    -0.048    29.192     8.860
    22   6 C        2.914    -0.067    29.675     8.933
    23   6 C        2.865     0.133    25.080     8.209
    24   8 O        1.706    -0.222    17.681     5.677
    25   6 C        3.645     0.025    20.489     6.505
    26   6 C        2.863     0.133    25.087     8.210
    27   8 O        1.706    -0.225    17.726     5.684
    28   6 C        3.645     0.027    20.451     6.500
    29   6 C        2.920    -0.079    29.983     8.979
    30   6 C        2.810    -0.111    30.791     9.091
    31   6 C        3.852    -0.007    20.670     6.466
    32   6 C        3.755    -0.121    22.876     6.820
    33   6 C        3.755    -0.118    22.808     6.810
    34   1 H        0.926     0.061     2.191     2.315
    35   1 H        0.924     0.062     2.181     2.309
    36   1 H        0.925     0.089     1.893     2.151
    37   1 H        0.924     0.058     2.218     2.329
    38   1 H        0.924     0.053     2.280     2.361
    39   1 H        0.925     0.083     1.948     2.182
    40   1 H        0.924     0.050     2.325     2.385
    41   1 H        0.926     0.059     2.209     2.324
    42   1 H        0.923     0.094     1.844     2.124
    43   1 H        0.925     0.054     2.273     2.358
    44   1 H        0.924     0.054     2.270     2.356
    45   1 H        0.925     0.052     2.295     2.369
    46   1 H        0.924     0.064     2.150     2.293
    47   1 H        0.923     0.009     2.904     2.665
    48   1 H        0.926     0.050     2.324     2.384
    49   1 H        0.924     0.070     2.085     2.258
    50   1 H        0.924     0.066     2.135     2.285
    51   1 H        0.924     0.057     2.237     2.339
    52   1 H        0.924     0.058     2.218     2.329
    53   1 H        0.926     0.047     2.356     2.400
    54   1 H        0.926     0.059     2.213     2.326
    55   1 H        0.924     0.054     2.266     2.354
    56   1 H        0.924     0.056     2.245     2.343
    57   1 H        0.925     0.082     1.956     2.187
    58   1 H        0.925     0.082     1.963     2.191
    59   1 H        0.924     0.048     2.340     2.392
    60   1 H        0.924     0.053     2.281     2.362
    61   1 H        0.926     0.048     2.343     2.394
    62   1 H        0.927     0.053     2.277     2.359
    63   1 H        0.923     0.073     2.048     2.238
    64   1 H        0.926     0.054     2.267     2.354
    65   1 H        0.924     0.036     2.501     2.473
    66   1 H        0.925     0.071     2.077     2.254
    67   1 H        0.925     0.032     2.555     2.500
    68   1 H        0.925     0.053     2.285     2.364
    69   1 H        0.925     0.059     2.208     2.324
    70   1 H        0.925     0.037     2.488     2.466
    71   1 H        0.925     0.055     2.257     2.350
    72   1 H        0.860     0.156     1.364     1.829

Wiberg/Mayer (AO) data.
largest (>0.10) Wiberg bond orders for each atom

     #   Z sym  total        # sym  WBO       # sym  WBO       # sym  WBO
 ---------------------------------------------------------------------------
     1   7 N    3.018 --     2 C    1.955    72 H    0.943
     2   6 C    3.929 --     1 N    1.955     3 C    0.994    47 H    0.913
     3   6 C    3.977 --     2 C    0.994     4 C    0.987    14 C    0.954
                            31 C    0.928
     4   6 C    3.739 --     5 C    1.547    13 C    1.044     3 C    0.987
     5   6 C    3.976 --     4 C    1.547     6 C    1.292    34 H    0.954
     6   6 C    3.692 --     5 C    1.292     7 O    1.151     9 C    1.132
     7   8 O    2.270 --     6 C    1.151     8 C    0.970
     8   6 C    3.925 --    36 H    0.976    35 H    0.972    37 H    0.971
                             7 O    0.970
     9   6 C    3.936 --    12 C    1.578     6 C    1.132    10 O    1.094
    10   8 O    2.260 --     9 C    1.094    11 C    0.976    12 C    0.107
    11   6 C    3.931 --    39 H    0.977    10 O    0.976    40 H    0.975
                            38 H    0.974
    12   6 C    3.804 --     9 C    1.578    13 C    1.047    41 H    0.963
                            10 O    0.107
    13   6 C    3.983 --    12 C    1.047     4 C    1.044    63 H    0.911
                            42 H    0.909
    14   6 C    3.968 --    15 C    0.984    44 H    0.972    43 H    0.970
                             3 C    0.954
    15   6 C    3.987 --    16 C    1.045    14 C    0.984    45 H    0.963
                            46 H    0.944
    16   6 C    3.693 --    17 N    1.347    15 C    1.045    48 H    0.962
                            30 C    0.241
    17   7 N    3.736 --    30 C    1.359    16 C    1.347    18 C    0.966
    18   6 C    3.955 --    19 C    0.977    50 H    0.969    49 H    0.968
                            17 N    0.966
    19   6 C    3.987 --    20 C    1.007    18 C    0.977    51 H    0.972
                            52 H    0.970
    20   6 C    3.943 --    21 C    1.410    29 C    1.380    19 C    1.007
    21   6 C    3.949 --    22 C    1.416    20 C    1.410    53 H    0.968
    22   6 C    3.958 --    21 C    1.416    23 C    1.384    54 H    0.963
    23   6 C    3.894 --    22 C    1.384    26 C    1.219    24 O    1.110
    24   8 O    2.253 --    23 C    1.110    25 C    0.976
    25   6 C    3.928 --    57 H    0.977    24 O    0.976    55 H    0.972
                            56 H    0.972
    26   6 C    3.897 --    29 C    1.395    23 C    1.219    27 O    1.103
    27   8 O    2.253 --    26 C    1.103    28 C    0.979
    28   6 C    3.932 --    27 O    0.979    58 H    0.977    59 H    0.973
                            60 H    0.973
    29   6 C    3.959 --    26 C    1.395    20 C    1.380    61 H    0.962
    30   6 C    3.624 --    17 N    1.359    64 H    0.976    62 H    0.969
                            16 C    0.241
    31   6 C    3.965 --    33 C    1.010    32 C    1.009    65 H    0.961
                             3 C    0.928
    32   6 C    3.981 --    31 C    1.009    67 H    0.982    68 H    0.981
                            66 H    0.973
    33   6 C    3.984 --    31 C    1.010    70 H    0.983    71 H    0.979
                            69 H    0.978
    34   1 H    0.995 --     5 C    0.954
    35   1 H    0.990 --     8 C    0.972
    36   1 H    0.992 --     8 C    0.976
    37   1 H    0.990 --     8 C    0.971
    38   1 H    0.995 --    11 C    0.974
    39   1 H    0.992 --    11 C    0.977
    40   1 H    0.995 --    11 C    0.975
    41   1 H    0.995 --    12 C    0.963
    42   1 H    0.953 --    13 C    0.909
    43   1 H    0.996 --    14 C    0.970
    44   1 H    0.996 --    14 C    0.972
    45   1 H    0.997 --    15 C    0.963
    46   1 H    0.979 --    15 C    0.944
    47   1 H    0.986 --     2 C    0.913
    48   1 H    0.997 --    16 C    0.962
    49   1 H    0.994 --    18 C    0.968
    50   1 H    0.995 --    18 C    0.969
    51   1 H    0.996 --    19 C    0.972
    52   1 H    0.995 --    19 C    0.970
    53   1 H    0.997 --    21 C    0.968
    54   1 H    0.995 --    22 C    0.963
    55   1 H    0.991 --    25 C    0.972
    56   1 H    0.991 --    25 C    0.972
    57   1 H    0.992 --    25 C    0.977
    58   1 H    0.993 --    28 C    0.977
    59   1 H    0.993 --    28 C    0.973
    60   1 H    0.992 --    28 C    0.973
    61   1 H    0.996 --    29 C    0.962
    62   1 H    0.997 --    30 C    0.969
    63   1 H    0.960 --    13 C    0.911
    64   1 H    0.997 --    30 C    0.976
    65   1 H    0.994 --    31 C    0.961
    66   1 H    0.992 --    32 C    0.973
    67   1 H    0.998 --    32 C    0.982
    68   1 H    0.994 --    32 C    0.981
    69   1 H    0.994 --    33 C    0.978
    70   1 H    0.997 --    33 C    0.983
    71   1 H    0.994 --    33 C    0.979
    72   1 H    0.971 --     1 N    0.943
 ---------------------------------------------------------------------------

molecular dipole:
                 x           y           z       tot (Debye)
 q only:       -0.283      -0.063      -0.385
   full:        0.054      -0.097      -0.586       1.516

           -------------------------------------------------
          | TOTAL ENERGY              -99.351033524350 Eh   |
          | GRADIENT NORM               0.002673513052 Eh/α |
          | HOMO-LUMO GAP               0.989372472150 eV   |
           -------------------------------------------------

 * finished run on 2024/04/06 at 11:12:10.210
