   * xtb version 6.6.1 (8d0f1dd) compiled by 'conda@1efc2f54142f' on 2023-08-01
          program call               : xtb xtbopt.xyz --opt crude --input .xc2 --gfn2

   ID    Z sym.   atoms
    1    6 C      1, 3, 5-7, 10, 11, 14
    2    7 N      2, 4, 9, 13
    3    8 O      8, 12
    4    1 H      15-25
########################################################################
[WARNING] Please study the warnings concerning your input carefully
-1- readin_getIntValue: could not parse ''
########################################################################

          :  Hamiltonian                  GFN2-xTB          :
 * total energy  :   -42.0256337 Eh     change       -0.4858691E-10 Eh
   *** GEOMETRY OPTIMIZATION CONVERGED AFTER 1 ITERATIONS ***

 final structure:
================
25
 xtb: 6.6.1 (8d0f1dd)
C            3.12715108851671        0.81728115556512       -0.92972023819968
N            2.37307196069438        0.23453729743071        0.12186605553594
C            2.75940661329818       -0.49084127820776        1.30137245037312
N            1.96903506948874       -1.70660571943010        1.39539636839873
C            1.27907880025083       -0.51842030450636        1.70569809638749
C            1.04763555192737        0.20364042928609        0.41848641041387
C           -0.01407336905253        0.83834465712902       -0.28068211366661
O            0.14705321936938        1.50603314300623       -1.28781468125239
N           -1.32269796516462        0.68925704559571        0.30366763997136
C           -1.89261797047088        1.82943438543543        0.96238591953264
C           -2.15015016456808       -0.34130997313453       -0.13361229697652
O           -3.32026050535719       -0.40748644781749        0.21313653964041
N           -1.53046946751990       -1.21070953350526       -0.93694709876166
C           -2.14008212005147       -2.31946046364886       -1.51818200978188
H            3.90370731891302        1.47338331383143       -0.52687712579967
H            3.61753046587175        0.03752246303231       -1.52198806790594
H            2.45422133238162        1.39059555648034       -1.56894313454146
H            3.69099738492102       -0.33400716980942        1.81545007661034
H           -1.85232063404111        2.71128126366736        0.31291314162679
H           -2.93299895292828        1.60383408562421        1.20416055986714
H           -1.33802875224225        2.04838838798097        1.87855983304459
H           -2.47725321576329       -3.04034324314099       -0.75781045094344
H           -1.41212441265043       -2.80669525681121       -2.17173951113400
H           -3.02344063047454       -2.03797757017299       -2.11121336329458
H            2.19806086875198       -2.35143768227852        2.14360861875941

          :  Hamiltonian                  GFN2-xTB          :
         :: total energy             -42.025633652737 Eh    ::
         :: gradient norm              0.003569637087 Eh/a0 ::
         :: HOMO-LUMO gap              0.105762612884 eV    ::
         :: SCC energy               -42.495566740115 Eh    ::
         :: -> dispersion             -0.020185838796 Eh    ::
         :: repulsion energy           0.469690473057 Eh    ::

    * Orbital Energies and Occupations

         #    Occupation            Energy/Eh            Energy/eV
      -------------------------------------------------------------
         1        2.0000           -0.8905417             -24.2329
       ...           ...                  ...                  ...
        25        1.9951           -0.6586381             -17.9225
        26        1.9939           -0.6536558             -17.7869
        27        1.9891           -0.6397209             -17.4077
        28        1.9887           -0.6389374             -17.3864
        29        1.9882           -0.6378758             -17.3575
        30        1.9769           -0.6218727             -16.9220
        31        1.9626           -0.6102238             -16.6050
        32        1.9134           -0.5896587             -16.0454
        33        1.8502           -0.5758581             -15.6699
        34        1.7641           -0.5639371             -15.3455
        35        1.7349           -0.5607680             -15.2593
        36        1.5169           -0.5433236             -14.7846
        37        1.3991           -0.5362261             -14.5915 (HOMO)
        38        1.3282           -0.5323393             -14.4857 (LUMO)
        39        0.6076           -0.4964518             -13.5091
        40        0.0049           -0.3736330             -10.1671
        41        0.0012           -0.3392585              -9.2317
        42        0.0001           -0.2778141              -7.5597
        43        0.0000           -0.2027372              -5.5168
        44        0.0000           -0.1703231              -4.6347
        45        0.0000           -0.1222387              -3.3263
        46                         -0.0976674              -2.6577
        47                         -0.0831907              -2.2637
        48                         -0.0624895              -1.7004
       ...                                ...                  ...
        67                          0.4924777              13.4010
      -------------------------------------------------------------
                  HL-Gap            0.0038867 Eh            0.1058 eV

     #   Z          covCN         q      C6AA      α(0)
     1   6 C        3.683    -0.080    22.243     6.753
     2   7 N        2.966     0.033    20.666     6.752
     3   6 C        4.109     0.094    18.959     6.184
     4   7 N        2.696    -0.132    23.860     7.255
     5   6 C        3.094    -0.021    28.427     8.739
     6   6 C        3.284     0.050    25.429     8.107
     7   6 C        2.761     0.272    22.395     7.750
     8   8 O        0.858    -0.305    19.864     5.976
     9   7 N        2.747    -0.071    22.618     7.063
    10   6 C        3.696    -0.057    21.784     6.676
    11   6 C        2.707     0.341    21.211     7.538
    12   8 O        0.859    -0.333    20.377     6.052
    13   7 N        1.836    -0.187    25.861     7.536
    14   6 C        3.693    -0.029    21.265     6.598
    15   1 H        0.924     0.114     1.666     2.018
    16   1 H        0.924     0.121     1.609     1.984
    17   1 H        0.924     0.133     1.510     1.921
    18   1 H        0.926     0.096     1.825     2.113
    19   1 H        0.924     0.119     1.623     1.992
    20   1 H        0.924     0.133     1.515     1.925
    21   1 H        0.924     0.107     1.724     2.054
    22   1 H        0.923     0.129     1.540     1.941
    23   1 H        0.924     0.122     1.597     1.977
    24   1 H        0.923     0.132     1.517     1.926
    25   1 H        0.860     0.219     1.013     1.576

Wiberg/Mayer (AO) data.
largest (>0.10) Wiberg bond orders for each atom

     #   Z sym  total        # sym  WBO       # sym  WBO       # sym  WBO
 ---------------------------------------------------------------------------
     1   6 C    3.879 --     2 N    1.018    17 H    0.947    15 H    0.937
                            16 H    0.925
     2   7 N    3.370 --     6 C    1.255     1 C    1.018     3 C    0.995
     3   6 C    3.732 --     2 N    0.995    18 H    0.953     4 N    0.930
                             5 C    0.790
     4   7 N    2.936 --     5 C    1.023     3 C    0.930    25 H    0.917
     5   6 C    2.917 --     4 N    1.023     6 C    1.012     3 C    0.790
     6   6 C    3.598 --     2 N    1.255     7 C    1.154     5 C    1.012
     7   6 C    3.831 --     8 O    1.661     6 C    1.154     9 N    0.936
     8   8 O    1.846 --     7 C    1.661
     9   7 N    3.210 --    11 C    1.071    10 C    1.002     7 C    0.936
    10   6 C    3.848 --     9 N    1.002    20 H    0.943    21 H    0.935
                            19 H    0.923
    11   6 C    3.912 --    12 O    1.548    13 N    1.231     9 N    1.071
    12   8 O    1.762 --    11 C    1.548
    13   7 N    2.480 --    11 C    1.231    14 C    1.117
    14   6 C    3.825 --    13 N    1.117    23 H    0.921    24 H    0.881
                            22 H    0.880
    15   1 H    0.956 --     1 C    0.937
    16   1 H    0.948 --     1 C    0.925
    17   1 H    0.971 --     1 C    0.947
    18   1 H    0.982 --     3 C    0.953
    19   1 H    0.933 --    10 C    0.923
    20   1 H    0.962 --    10 C    0.943
    21   1 H    0.945 --    10 C    0.935
    22   1 H    0.891 --    14 C    0.880
    23   1 H    0.933 --    14 C    0.921
    24   1 H    0.891 --    14 C    0.881
    25   1 H    0.941 --     4 N    0.917
 ---------------------------------------------------------------------------

molecular dipole:
                 x           y           z       tot (Debye)
 q only:        2.119      -0.703       0.542
   full:        2.373      -0.841       0.708       6.647

           -------------------------------------------------
          | TOTAL ENERGY              -42.025633652737 Eh   |
          | GRADIENT NORM               0.003569637087 Eh/α |
          | HOMO-LUMO GAP               0.105762612884 eV   |
           -------------------------------------------------

 * finished run on 2024/06/05 at 19:58:48.001
