   * xtb version 6.6.1 (8d0f1dd) compiled by 'conda@1efc2f54142f' on 2023-08-01
          program call               : xtb struc.xyz --opt loose --input .xc1 --gfn2

   ID    Z sym.   atoms
    1    6 C      1, 3, 5-7, 10, 11, 14
    2    7 N      2, 4, 9, 13
    3    8 O      8, 12
    4    1 H      15-25
constraining bond 4 18 to    4.0600000 Å, actual value:    2.1494719 Å

          :  Hamiltonian                  GFN2-xTB          :
 * total energy  :   -35.7426484 Eh     change       -0.2401990E-09 Eh
 * total energy  :   -38.5987965 Eh     change       -0.2856148E+01 Eh
 * total energy  :   -40.6951349 Eh     change       -0.2096338E+01 Eh
 * total energy  :   -41.7022734 Eh     change       -0.1007138E+01 Eh
 * total energy  :   -41.9543674 Eh     change       -0.2520940E+00 Eh
 * total energy  :   -41.9722190 Eh     change       -0.1785163E-01 Eh
 * total energy  :   -41.9810779 Eh     change       -0.8858842E-02 Eh
 * total energy  :   -41.9954365 Eh     change       -0.1435865E-01 Eh
 * total energy  :   -42.0061135 Eh     change       -0.1067699E-01 Eh
 * total energy  :   -42.0135707 Eh     change       -0.7457151E-02 Eh
 * total energy  :   -42.0911769 Eh     change       -0.4742249E-02 Eh
 * total energy  :   -42.0952351 Eh     change       -0.4058199E-02 Eh
 * total energy  :   -42.0998285 Eh     change       -0.4593430E-02 Eh
 * total energy  :   -42.1098826 Eh     change       -0.1005410E-01 Eh
 * total energy  :   -42.1157115 Eh     change       -0.5828882E-02 Eh
 * total energy  :   -42.1172131 Eh     change       -0.1501663E-02 Eh
 * total energy  :   -42.1176020 Eh     change       -0.3888964E-03 Eh
 * total energy  :   -42.1177292 Eh     change       -0.1271357E-03 Eh
 * total energy  :   -42.1177689 Eh     change       -0.3977420E-04 Eh
   *** GEOMETRY OPTIMIZATION CONVERGED AFTER 27 ITERATIONS ***

 final structure:
================
25
 xtb: 6.6.1 (8d0f1dd)
C            3.06171102165480        1.26244815936629        0.02216357458294
N            2.37713170563519       -0.04165912638407       -0.01000635963065
C            3.21689916544532       -1.02730792043895       -0.02035186033556
N            0.68612116551706       -2.60707496230045       -0.00910232891873
C            0.24989237148822       -1.40020701844144       -0.00448558098479
C            0.97219523988045       -0.12903380929265       -0.00540920900234
C            0.17679933211128        1.08786291437515       -0.01040091827874
O            0.61651994566087        2.23573154044032       -0.02551973354808
N           -1.20480862001643        0.96214856719580        0.00038052463331
C           -2.01383352249681        2.16578063441410       -0.00040854309077
C           -1.90558580244060       -0.22301969875695        0.00634789526397
O           -3.11329548881087       -0.24439691680945        0.01344548738724
N           -1.13701445327615       -1.35992483511602        0.00217648757873
C           -1.83611980114806       -2.62642724745550        0.00166479569261
H            3.52035388557941        1.40618504563518        1.00222814472066
H            3.83208134295307        1.29009341072237       -0.74792344709950
H            2.36653956825685        2.08557965865324       -0.15309093708017
H            4.30654837758438       -0.79397133083396       -0.01739715169312
H           -1.35634698042671        3.03328601663511        0.00738783070842
H           -2.65021740714105        2.18213439489312       -0.88773856054515
H           -2.66251204201646        2.17372080876940        0.87789635277455
H           -1.55703474502320       -3.21012551124514        0.88067866618723
H           -1.56815623271433       -3.20307811854294       -0.88556853372702
H           -2.90659421342826       -2.42460679519142        0.00899510411323
H            1.68915770127202       -2.77589931869111       -0.01479008180826

          :  Hamiltonian                  GFN2-xTB          :
         :: total energy             -42.117768941010 Eh    ::
         :: gradient norm              0.002318142558 Eh/a0 ::
         :: HOMO-LUMO gap              0.438239431211 eV    ::
         :: SCC energy               -42.609938766972 Eh    ::
         :: -> dispersion             -0.022219974776 Eh    ::
         :: repulsion energy           0.491842271125 Eh    ::

    * Orbital Energies and Occupations

         #    Occupation            Energy/Eh            Energy/eV
      -------------------------------------------------------------
         1        2.0000           -0.8969869             -24.4083
       ...           ...                  ...                  ...
        25        1.9968           -0.6762626             -18.4020
        26        1.9919           -0.6542034             -17.8018
        27        1.9913           -0.6526482             -17.7595
        28        1.9881           -0.6450902             -17.5538
        29        1.9773           -0.6296178             -17.1328
        30        1.9753           -0.6275962             -17.0778
        31        1.9714           -0.6240715             -16.9819
        32        1.9174           -0.5982381             -16.2789
        33        1.8862           -0.5902313             -16.0610
        34        1.8440           -0.5822048             -15.8426
        35        1.8019           -0.5759863             -15.6734
        36        1.7859           -0.5739333             -15.6175
        37        1.5344           -0.5518730             -15.0172 (HOMO)
        38        1.2518           -0.5357680             -14.5790 (LUMO)
        39        0.0778           -0.4473660             -12.1734
        40        0.0152           -0.4078888             -11.0992
        41        0.0061           -0.3862287             -10.5098
        42        0.0002           -0.3023390              -8.2271
        43        0.0000           -0.2271974              -6.1824
        44        0.0000           -0.1733591              -4.7173
        45        0.0000           -0.1506225              -4.0986
        46                         -0.1108765              -3.0171
        47                         -0.0683196              -1.8591
        48                         -0.0477183              -1.2985
       ...                                ...                  ...
        67                          0.4971380              13.5278
      -------------------------------------------------------------
                  HL-Gap            0.0161050 Eh            0.4382 eV

     #   Z          covCN         q      C6AA      α(0)
     1   6 C        3.740    -0.097    22.440     6.759
     2   7 N        2.728     0.122    19.157     6.500
     3   6 C        1.902    -0.076    33.199     9.306
     4   7 N        1.810    -0.246    27.261     7.735
     5   6 C        2.824     0.158    24.566     8.121
     6   6 C        2.892    -0.020    28.495     8.752
     7   6 C        2.767     0.261    22.597     7.785
     8   8 O        0.861    -0.356    20.826     6.119
     9   7 N        2.745    -0.057    22.352     7.022
    10   6 C        3.709    -0.061    21.823     6.677
    11   6 C        2.724     0.318    21.597     7.608
    12   8 O        0.860    -0.331    20.348     6.048
    13   7 N        2.777    -0.028    21.787     6.932
    14   6 C        3.710    -0.074    22.066     6.713
    15   1 H        0.924     0.112     1.676     2.025
    16   1 H        0.925     0.110     1.694     2.036
    17   1 H        0.924     0.168     1.279     1.769
    18   1 H        0.921     0.128     1.549     1.946
    19   1 H        0.925     0.132     1.519     1.927
    20   1 H        0.924     0.122     1.600     1.978
    21   1 H        0.924     0.122     1.597     1.976
    22   1 H        0.924     0.126     1.563     1.955
    23   1 H        0.924     0.126     1.564     1.956
    24   1 H        0.925     0.135     1.501     1.916
    25   1 H        0.860     0.207     1.072     1.622

Wiberg/Mayer (AO) data.
largest (>0.10) Wiberg bond orders for each atom

     #   Z sym  total        # sym  WBO       # sym  WBO       # sym  WBO
 ---------------------------------------------------------------------------
     1   6 C    3.779 --    16 H    0.954    15 H    0.950     2 N    0.935
                            17 H    0.879
     2   7 N    3.678 --     3 C    1.582     6 C    1.119     1 C    0.935
     3   6 C    2.690 --     2 N    1.582    18 H    0.908
     4   7 N    2.699 --     5 C    1.602    25 H    0.900
     5   6 C    3.932 --     4 N    1.602     6 C    1.119    13 N    1.114
     6   6 C    3.599 --     7 C    1.134     5 C    1.119     2 N    1.119
     7   6 C    3.912 --     8 O    1.565     6 C    1.134     9 N    1.110
     8   8 O    1.869 --     7 C    1.565
     9   7 N    3.459 --     7 C    1.110    11 C    1.100    10 C    0.981
                            12 O    0.102
    10   6 C    3.838 --     9 N    0.981    19 H    0.944    21 H    0.935
                            20 H    0.935
    11   6 C    3.944 --    12 O    1.643    13 N    1.119     9 N    1.100
    12   8 O    1.928 --    11 C    1.643    13 N    0.107     9 N    0.102
    13   7 N    3.467 --    11 C    1.119     5 C    1.114    14 C    0.985
                            12 O    0.107
    14   6 C    3.838 --    13 N    0.985    24 H    0.944    22 H    0.932
                            23 H    0.932
    15   1 H    0.973 --     1 C    0.950
    16   1 H    0.973 --     1 C    0.954
    17   1 H    0.938 --     1 C    0.879
    18   1 H    0.933 --     3 C    0.908
    19   1 H    0.965 --    10 C    0.944
    20   1 H    0.951 --    10 C    0.935
    21   1 H    0.951 --    10 C    0.935
    22   1 H    0.950 --    14 C    0.932
    23   1 H    0.949 --    14 C    0.932
    24   1 H    0.964 --    14 C    0.944
    25   1 H    0.944 --     4 N    0.900
 ---------------------------------------------------------------------------

molecular dipole:
                 x           y           z       tot (Debye)
 q only:        1.349      -0.594       0.007
   full:        1.809      -0.319       0.018       4.668

           -------------------------------------------------
          | TOTAL ENERGY              -42.117768941010 Eh   |
          | GRADIENT NORM               0.002318142558 Eh/α |
          | HOMO-LUMO GAP               0.438239431211 eV   |
           -------------------------------------------------

 * finished run on 2024/06/05 at 19:58:45.419
