   * xtb version 6.6.1 (8d0f1dd) compiled by 'conda@1efc2f54142f' on 2023-08-01
          program call               : xtb xtbopt.xyz --opt crude --input .xc2 --gfn2

   ID    Z sym.   atoms
    1    6 C      1, 3, 5-7, 10, 11, 14
    2    7 N      2, 4, 9, 13
    3    8 O      8, 12
    4    1 H      15-25
########################################################################
[WARNING] Please study the warnings concerning your input carefully
-1- readin_getIntValue: could not parse ''
########################################################################

          :  Hamiltonian                  GFN2-xTB          :
 * total energy  :   -42.1179825 Eh     change       -0.1570299E-11 Eh
 * total energy  :   -42.1261494 Eh     change       -0.8166851E-02 Eh
 * total energy  :   -42.1322060 Eh     change       -0.6056617E-02 Eh
 * total energy  :   -42.1338790 Eh     change       -0.1673021E-02 Eh
 * total energy  :   -42.1348420 Eh     change       -0.9629917E-03 Eh
 * total energy  :   -42.1353917 Eh     change       -0.5496911E-03 Eh
 * total energy  :   -42.1356182 Eh     change       -0.2265394E-03 Eh
   *** GEOMETRY OPTIMIZATION CONVERGED AFTER 7 ITERATIONS ***

 final structure:
================
25
 xtb: 6.6.1 (8d0f1dd)
C            3.10588210361819        1.16879417832954        0.03148420769113
N            2.30363932868003       -0.04943809754021       -0.01450087755557
C            2.92590106746394       -1.17992662244759       -0.04035457864258
N            0.89978512147003       -2.40905878645690       -0.01178279172872
C            0.25548982409960       -1.30043283129150       -0.00423222236429
C            0.91611406705234       -0.01400205703732       -0.00658030409708
C            0.13282087312365        1.19648403513579       -0.01826040133351
O            0.58384158427872        2.33245295356187       -0.04517533419885
N           -1.24692032039482        1.00672936939013       -0.00053352845942
C           -2.10377717529473        2.17664711913645       -0.00209699747559
C           -1.90467871256198       -0.20944064048950        0.01116063926757
O           -3.10953368315230       -0.27367295428628        0.02297274220207
N           -1.11157890958023       -1.34099689399262        0.00609188937349
C           -1.74553656951873       -2.64108075534703        0.00677084649956
H            3.54956470136240        1.27520855793077        1.02328917931591
H            3.90659435087586        1.11068695692885       -0.70571572692502
H            2.48502421544751        2.04269211913059       -0.16932479244999
H            3.98880358842259       -1.31504950305321       -0.03417816240220
H           -1.47781372270381        3.06791186768757        0.00511238242199
H           -2.74144277739243        2.17035535559966       -0.88898715706191
H           -2.75322403568594        2.16136538447029        0.87585942692331
H           -1.42875328122371       -3.20544580483489        0.88614570414780
H           -1.44207687328948       -3.19945024945571       -0.88115125883999
H           -2.82545431059224       -2.50229595189315        0.01526294364062
H            1.99776105959574       -2.25079820757567       -0.03010421004866

          :  Hamiltonian                  GFN2-xTB          :
         :: total energy             -42.135618240271 Eh    ::
         :: gradient norm              0.009411712967 Eh/a0 ::
         :: HOMO-LUMO gap              1.162588377336 eV    ::
         :: SCC energy               -42.635372774666 Eh    ::
         :: -> dispersion             -0.022387663952 Eh    ::
         :: repulsion energy           0.499637815714 Eh    ::

    * Orbital Energies and Occupations

         #    Occupation            Energy/Eh            Energy/eV
      -------------------------------------------------------------
         1        2.0000           -0.8946711             -24.3452
       ...           ...                  ...                  ...
        25        1.9974           -0.6780790             -18.4515
        26        1.9927           -0.6534736             -17.7819
        27        1.9919           -0.6509096             -17.7122
        28        1.9905           -0.6471771             -17.6106
        29        1.9822           -0.6320834             -17.1999
        30        1.9783           -0.6273704             -17.0716
        31        1.9734           -0.6224915             -16.9389
        32        1.9368           -0.6014556             -16.3664
        33        1.9052           -0.5914343             -16.0937
        34        1.8892           -0.5875290             -15.9875
        35        1.8541           -0.5805556             -15.7977
        36        1.8229           -0.5755483             -15.6615
        37        1.6570           -0.5575758             -15.1724 (HOMO)
        38        0.8886           -0.5148514             -14.0098 (LUMO)
        39        0.1265           -0.4561416             -12.4122
        40        0.0149           -0.4039890             -10.9931
        41        0.0073           -0.3870733             -10.5328
        42        0.0002           -0.2980029              -8.1091
        43        0.0000           -0.2142888              -5.8311
        44        0.0000           -0.1637850              -4.4568
        45        0.0000           -0.1466219              -3.9898
        46                         -0.0780002              -2.1225
        47                         -0.0506998              -1.3796
        48                         -0.0393844              -1.0717
       ...                                ...                  ...
        67                          0.5078638              13.8197
      -------------------------------------------------------------
                  HL-Gap            0.0427243 Eh            1.1626 eV

     #   Z          covCN         q      C6AA      α(0)
     1   6 C        3.714    -0.098    22.507     6.779
     2   7 N        2.734     0.130    19.025     6.478
     3   6 C        2.409    -0.059    30.113     8.944
     4   7 N        1.786    -0.267    27.768     7.805
     5   6 C        2.837     0.155    24.627     8.133
     6   6 C        2.934    -0.031    28.779     8.798
     7   6 C        2.764     0.266    22.516     7.771
     8   8 O        0.859    -0.354    20.786     6.113
     9   7 N        2.743    -0.064    22.471     7.040
    10   6 C        3.708    -0.060    21.804     6.674
    11   6 C        2.721     0.318    21.594     7.607
    12   8 O        0.860    -0.331    20.340     6.047
    13   7 N        2.754    -0.030    21.832     6.940
    14   6 C        3.706    -0.069    21.979     6.702
    15   1 H        0.924     0.117     1.640     2.003
    16   1 H        0.925     0.112     1.677     2.025
    17   1 H        0.924     0.153     1.369     1.830
    18   1 H        0.926     0.138     1.478     1.901
    19   1 H        0.925     0.129     1.541     1.941
    20   1 H        0.924     0.120     1.616     1.988
    21   1 H        0.924     0.120     1.613     1.986
    22   1 H        0.924     0.119     1.620     1.990
    23   1 H        0.924     0.119     1.620     1.990
    24   1 H        0.925     0.130     1.533     1.936
    25   1 H        1.336     0.236     0.926     1.502

Wiberg/Mayer (AO) data.
largest (>0.10) Wiberg bond orders for each atom

     #   Z sym  total        # sym  WBO       # sym  WBO       # sym  WBO
 ---------------------------------------------------------------------------
     1   6 C    3.829 --    16 H    0.957    15 H    0.947     2 N    0.946
                            17 H    0.922
     2   7 N    3.695 --     3 C    1.561     6 C    1.135     1 C    0.946
     3   6 C    3.124 --     2 N    1.561    18 H    0.930    25 H    0.321
                             4 N    0.120
     4   7 N    2.500 --     5 C    1.587    25 H    0.601     3 C    0.120
     5   6 C    3.937 --     4 N    1.587    13 N    1.135     6 C    1.121
     6   6 C    3.643 --     2 N    1.135     7 C    1.129     5 C    1.121
     7   6 C    3.919 --     8 O    1.597     6 C    1.129     9 N    1.095
     8   8 O    1.889 --     7 C    1.597     9 N    0.105
     9   7 N    3.461 --    11 C    1.102     7 C    1.095    10 C    0.982
                            12 O    0.106     8 O    0.105
    10   6 C    3.844 --     9 N    0.982    19 H    0.948    21 H    0.937
                            20 H    0.936
    11   6 C    3.942 --    12 O    1.655     9 N    1.102    13 N    1.100
    12   8 O    1.944 --    11 C    1.655    13 N    0.106     9 N    0.106
    13   7 N    3.465 --     5 C    1.135    11 C    1.100    14 C    0.982
                            12 O    0.106
    14   6 C    3.853 --    13 N    0.982    24 H    0.951    22 H    0.939
                            23 H    0.939
    15   1 H    0.974 --     1 C    0.947
    16   1 H    0.977 --     1 C    0.957
    17   1 H    0.960 --     1 C    0.922
    18   1 H    0.953 --     3 C    0.930
    19   1 H    0.967 --    10 C    0.948
    20   1 H    0.952 --    10 C    0.936
    21   1 H    0.953 --    10 C    0.937
    22   1 H    0.956 --    14 C    0.939
    23   1 H    0.956 --    14 C    0.939
    24   1 H    0.969 --    14 C    0.951
    25   1 H    0.942 --     4 N    0.601     3 C    0.321
 ---------------------------------------------------------------------------

molecular dipole:
                 x           y           z       tot (Debye)
 q only:        1.701      -0.689       0.021
   full:        1.992      -0.519       0.035       5.234

           -------------------------------------------------
          | TOTAL ENERGY              -42.135618240271 Eh   |
          | GRADIENT NORM               0.009411712967 Eh/α |
          | HOMO-LUMO GAP               1.162588377336 eV   |
           -------------------------------------------------

 * finished run on 2024/06/05 at 19:58:45.739
