   * xtb version 6.6.1 (8d0f1dd) compiled by 'conda@1efc2f54142f' on 2023-08-01
          program call               : xtb xtbopt.xyz --opt crude --input .xc2 --gfn2

   ID    Z sym.   atoms
    1    6 C      1, 3, 5-7, 10, 11, 14
    2    7 N      2, 4, 9, 13
    3    8 O      8, 12
    4    1 H      15-25
########################################################################
[WARNING] Please study the warnings concerning your input carefully
-1- readin_getIntValue: could not parse ''
########################################################################

          :  Hamiltonian                  GFN2-xTB          :
 * total energy  :   -42.1331515 Eh     change       -0.7815970E-13 Eh
   *** GEOMETRY OPTIMIZATION CONVERGED AFTER 1 ITERATIONS ***

 final structure:
================
25
 xtb: 6.6.1 (8d0f1dd)
C            2.96146038611796        1.24807121407977        0.35928999631341
N            2.22883304581156        0.04208431789351        0.08440055707534
C            2.77400653266478       -1.11483341678883       -0.19204394762073
N            1.84711216732870       -2.04003105228135       -0.38948015249701
C            0.55063110519284       -1.50388365468182       -0.24901608517620
C            0.81433052910351       -0.09683318465459        0.09519544121726
C            0.09879656272509        1.04808771308238        0.35846637453885
O            0.39433081801792        2.19255739022915        0.53713201074966
N           -1.53871202392287        0.85579929207854        0.43381239660159
C           -2.20373157559113        1.51909788772535       -0.67776392084215
C           -1.97625943477130        0.63209675786869        1.56443869316936
O           -2.26167659599424        0.31959016572933        2.62366791106645
N           -0.39101600103923       -2.31361916855783       -0.47487482355231
C           -1.79919638381224       -2.11886550875492       -0.41019748285511
H            2.72989182129127        1.61704241839407        1.35885316244642
H            4.02696146855483        1.04067657502028        0.29014655872980
H            2.69738907393711        2.02754550195870       -0.35568751347032
H            3.83341449894560       -1.29174611003268       -0.24521957380859
H           -1.85249254603060        2.55076764904213       -0.73856949512768
H           -1.94048533862692        0.99821189968427       -1.59808727197149
H           -3.28282932404605        1.50676244042242       -0.53996263683164
H           -2.13569801114769       -2.06510700249758        0.62954378238775
H           -2.25624848506260       -2.99591300433750       -0.86850122629037
H           -2.14009558000212       -1.22730023322783       -0.94076846638483
H            1.98171480446453       -3.01202034578254       -0.62360266996236

          :  Hamiltonian                  GFN2-xTB          :
         :: total energy             -42.133151546606 Eh    ::
         :: gradient norm              0.006396223332 Eh/a0 ::
         :: HOMO-LUMO gap              1.657442979349 eV    ::
         :: SCC energy               -42.712220018350 Eh    ::
         :: -> dispersion             -0.022343258974 Eh    ::
         :: repulsion energy           0.578808049547 Eh    ::

    * Orbital Energies and Occupations

         #    Occupation            Energy/Eh            Energy/eV
      -------------------------------------------------------------
         1        2.0000           -0.9492676             -25.8309
       ...           ...                  ...                  ...
        25        2.0000           -0.6723041             -18.2943
        26        2.0000           -0.6690925             -18.2069
        27        2.0000           -0.6492251             -17.6663
        28        2.0000           -0.6453694             -17.5614
        29        2.0000           -0.6375137             -17.3476
        30        2.0000           -0.6321201             -17.2009
        31        2.0000           -0.6103786             -16.6092
        32        2.0000           -0.6048222             -16.4580
        33        2.0000           -0.6004028             -16.3378
        34        2.0000           -0.5913817             -16.0923
        35        2.0000           -0.5883998             -16.0112
        36        1.9793           -0.5123527             -13.9418
        37        1.9666           -0.5085146             -13.8374 (HOMO)
        38        0.0522           -0.4476046             -12.1799 (LUMO)
        39        0.0019           -0.4210315             -11.4569
        40        0.0000           -0.3856593             -10.4943
        41        0.0000           -0.3687165             -10.0333
        42                         -0.2932522              -7.9798
        43                         -0.2833494              -7.7103
        44                         -0.1710900              -4.6556
        45                         -0.1326942              -3.6108
        46                         -0.1149509              -3.1280
        47                         -0.0771055              -2.0981
        48                         -0.0546532              -1.4872
       ...                                ...                  ...
        67                          1.0434481              28.3937
      -------------------------------------------------------------
                  HL-Gap            0.0609099 Eh            1.6574 eV

     #   Z          covCN         q      C6AA      α(0)
     1   6 C        3.694    -0.083    22.265     6.751
     2   7 N        2.819     0.056    20.263     6.686
     3   6 C        2.953     0.087    26.065     8.374
     4   7 N        2.803    -0.078    22.748     7.084
     5   6 C        2.915     0.141    24.936     8.189
     6   6 C        3.026    -0.056    29.362     8.888
     7   6 C        2.719     0.254    22.724     7.804
     8   8 O        0.857    -0.326    20.258     6.034
     9   7 N        2.681    -0.054    22.296     7.013
    10   6 C        3.694    -0.055    21.738     6.670
    11   6 C        1.789     0.344    23.580     7.849
    12   8 O        0.856    -0.103    16.556     5.455
    13   7 N        1.840    -0.240    27.124     7.718
    14   6 C        3.692    -0.033    21.349     6.612
    15   1 H        0.924     0.107     1.721     2.051
    16   1 H        0.925     0.094     1.840     2.121
    17   1 H        0.925     0.112     1.684     2.029
    18   1 H        0.926     0.114     1.658     2.014
    19   1 H        0.924     0.117     1.636     2.000
    20   1 H        0.925     0.104     1.752     2.070
    21   1 H        0.925     0.099     1.795     2.095
    22   1 H        0.924     0.048     2.347     2.396
    23   1 H        0.925     0.084     1.936     2.176
    24   1 H        0.924     0.035     2.522     2.484
    25   1 H        0.860     0.232     0.958     1.533

Wiberg/Mayer (AO) data.
largest (>0.10) Wiberg bond orders for each atom

     #   Z sym  total        # sym  WBO       # sym  WBO       # sym  WBO
 ---------------------------------------------------------------------------
     1   6 C    3.934 --     2 N    0.992    16 H    0.973    15 H    0.961
                            17 H    0.959
     2   7 N    3.689 --     3 C    1.446     6 C    1.039     1 C    0.992
                             4 N    0.132
     3   6 C    3.951 --     2 N    1.446     4 N    1.353    18 H    0.948
     4   7 N    3.590 --     3 C    1.353     5 C    1.049    25 H    0.918
                             2 N    0.132
     5   6 C    3.951 --    13 N    1.698     6 C    1.076     4 N    1.049
     6   6 C    3.872 --     7 C    1.369     5 C    1.076     2 N    1.039
                             8 O    0.148
     7   6 C    3.910 --     8 O    1.758     6 C    1.369     9 N    0.587
     8   8 O    2.222 --     7 C    1.758     6 C    0.148
     9   7 N    3.548 --    11 C    1.656    10 C    0.936     7 C    0.587
                            12 O    0.266
    10   6 C    3.904 --    21 H    0.975    20 H    0.968    19 H    0.960
                             9 N    0.936
    11   6 C    3.893 --    12 O    2.104     9 N    1.656
    12   8 O    2.488 --    11 C    2.104     9 N    0.266
    13   7 N    3.081 --     5 C    1.698    14 C    1.037
    14   6 C    3.972 --    13 N    1.037    23 H    0.974    24 H    0.963
                            22 H    0.957
    15   1 H    0.987 --     1 C    0.961
    16   1 H    0.990 --     1 C    0.973
    17   1 H    0.987 --     1 C    0.959
    18   1 H    0.985 --     3 C    0.948
    19   1 H    0.986 --    10 C    0.960
    20   1 H    0.989 --    10 C    0.968
    21   1 H    0.990 --    10 C    0.975
    22   1 H    0.995 --    14 C    0.957
    23   1 H    0.989 --    14 C    0.974
    24   1 H    0.995 --    14 C    0.963
    25   1 H    0.946 --     4 N    0.918
 ---------------------------------------------------------------------------

molecular dipole:
                 x           y           z       tot (Debye)
 q only:        1.088      -0.384      -0.275
   full:        1.087      -0.290      -0.186       2.899

           -------------------------------------------------
          | TOTAL ENERGY              -42.133151546606 Eh   |
          | GRADIENT NORM               0.006396223332 Eh/α |
          | HOMO-LUMO GAP               1.657442979349 eV   |
           -------------------------------------------------

 * finished run on 2024/06/05 at 19:58:06.299
