   * xtb version 6.6.1 (8d0f1dd) compiled by 'conda@1efc2f54142f' on 2023-08-01
          program call               : xtb struc.xyz --opt loose --input .xc1 --gfn2

   ID    Z sym.   atoms
    1    7 N      1, 17
    2    6 C      2-6, 8, 9, 11-16, 18-23, 25, 26, 28-33
    3    8 O      7, 10, 24, 27
    4    1 H      34-72
constraining bond 2 5 to    6.0000000 Å, actual value:    3.7629579 Å

          :  Hamiltonian                  GFN2-xTB          :
 * total energy  :   -98.5105869 Eh     change       -0.4035485E-08 Eh
 * total energy  :   -98.7604537 Eh     change       -0.2498668E+00 Eh
 * total energy  :   -98.9075345 Eh     change       -0.1470808E+00 Eh
 * total energy  :   -98.9921792 Eh     change       -0.8464467E-01 Eh
 * total energy  :   -99.0467585 Eh     change       -0.5457934E-01 Eh
 * total energy  :   -99.0881830 Eh     change       -0.4142448E-01 Eh
 * total energy  :   -99.1291891 Eh     change       -0.4100609E-01 Eh
 * total energy  :   -99.1780416 Eh     change       -0.4885254E-01 Eh
 * total energy  :   -99.2226119 Eh     change       -0.4457025E-01 Eh
 * total energy  :   -99.2421534 Eh     change       -0.1954156E-01 Eh
 * total energy  :   -99.3025663 Eh     change       -0.1301024E-03 Eh
 * total energy  :   -99.3026720 Eh     change       -0.1057092E-03 Eh
 * total energy  :   -99.3027672 Eh     change       -0.9514871E-04 Eh
 * total energy  :   -99.3028474 Eh     change       -0.8020208E-04 Eh
 * total energy  :   -99.3029050 Eh     change       -0.5758076E-04 Eh
 * total energy  :   -99.3029515 Eh     change       -0.4652749E-04 Eh
 * total energy  :   -99.3029675 Eh     change       -0.1597040E-04 Eh
 * total energy  :   -99.3030370 Eh     change       -0.6955302E-04 Eh
 * total energy  :   -99.3030796 Eh     change       -0.4262334E-04 Eh
   *** GEOMETRY OPTIMIZATION CONVERGED AFTER 83 ITERATIONS ***

 final structure:
================
72
 xtb: 6.6.1 (8d0f1dd)
N           -0.90467882082398        0.41908120534950        3.55640039173579
C           -0.07278648537700        1.08235686032511        2.97679106822065
C           -3.25383517752709        1.76968979831314       -0.49518748622053
C           -3.65837701494267        0.48764383336841       -0.07612179138924
C           -4.35553069550364       -0.38643508439166       -0.95808141165217
C           -4.72741094915381       -1.65734112341899       -0.58725051541275
O           -5.41941583039352       -2.52779206285081       -1.35645340946432
C           -5.87843052118306       -2.11424970080351       -2.62107337891512
C           -4.38022607043518       -2.15148282355334        0.70439487123660
O           -4.75798821059972       -3.41475263717502        0.96731404871309
C           -4.51027180668095       -3.95205815962911        2.24593569979877
C           -3.69025233145293       -1.30943932403298        1.57143072760149
C           -3.34936483411704       -0.02674746206293        1.20452203609108
C           -3.04840774543225        2.03956568329689       -1.95174239527327
C           -2.00877879018683        1.08074267963056       -2.61272333964184
C           -0.65258481987351        1.28879203492426       -2.07528944497536
N           -0.01898298871322        0.46939022656050       -1.25027425571836
C            1.31866114990050        0.77002729741708       -0.80003220323559
C            2.38037435953249        0.09424047238604       -1.69097152159177
C            3.74850257962993        0.26432076087727       -1.09354457525810
C            4.44950020642747        1.44848837036355       -1.24944220889270
C            5.69731262096716        1.61555705875718       -0.66833751568236
C            6.27024552981210        0.59848983967570        0.08122947902501
O            7.46992065472135        0.65147811746425        0.69266119643771
C            8.24353130612056        1.82384273193929        0.58500803337450
C            5.56260925963281       -0.62372420038450        0.23859344529020
O            6.19662914425010       -1.56672631996158        0.96758924748622
C            5.59858857767815       -2.83089557460079        1.12297940130920
C            4.31325580939658       -0.76433504290919       -0.34320659183732
C           -0.55173174804555       -0.82174573460545       -0.88560600461517
C           -2.99782546204849        2.93070794918808        0.42496133393999
C           -3.91716369899556        2.98976984183463        1.64886434340522
C           -1.52182194155831        3.03771636799843        0.84064689682426
H           -4.66734155209060       -0.01131494271428       -1.91792046401500
H           -6.54274856084266       -1.24804916335450       -2.54377705204172
H           -6.43574509681059       -2.95950353311107       -3.01993103821416
H           -5.04750336546061       -1.88016232872627       -3.29489658279406
H           -5.00857480221549       -3.37027109815183        3.02706842040542
H           -4.92301569163691       -4.95882795928773        2.22592426008731
H           -3.43738723579463       -4.00469492229872        2.45748488779640
H           -3.40474203648962       -1.65856498568710        2.55031257253059
H           -2.76528154950654        0.55705578115478        1.89237706394730
H           -3.98380199862871        1.92687299000078       -2.50603495030365
H           -2.70957807288328        3.06575170202454       -2.09693386477926
H           -2.33915522355736        0.05329223503368       -2.47974749115444
H           -1.99946056121321        1.31622975067860       -3.68017882417313
H            0.79156146943379        1.67718049371512        3.22789774152225
H           -0.14806307720432        2.21046928624650       -2.32144233478233
H            1.42758381917790        0.41919688962762        0.22928563317614
H            1.47593856464532        1.85002113517268       -0.80865493306177
H            2.34305479123540        0.54349589219507       -2.68500399914865
H            2.14850845540026       -0.96738301248216       -1.78615161641552
H            4.03162165132439        2.25119574274129       -1.83761583944205
H            6.22161304217481        2.54601035683834       -0.81195231879748
H            7.72145119385137        2.68873597458158        1.00554790797693
H            8.51546965725389        2.03070374954302       -0.45422357601479
H            9.14559983369009        1.63157844134074        1.16237120287714
H            6.30816324835179       -3.42108491362206        1.69971107597586
H            4.65385374525108       -2.76440417167056        1.67284391710863
H            5.42640925883207       -3.31552235779214        0.15681522009496
H            3.76852914235486       -1.68869105035102       -0.23018182179808
H           -0.71783930385301       -1.44372121020793       -1.76778920616295
H           -1.49685158037055       -0.70989890395085       -0.35059328799572
H            0.15259238586560       -1.32888531034323       -0.23182726723531
H           -3.21513785403643        3.82922216705361       -0.16793661892458
H           -3.57495606055863        2.35080643818670        2.45574075401594
H           -4.92831595853033        2.69514782887223        1.37970384398861
H           -3.94727890186989        4.00992006149932        2.02458911645202
H           -1.20299918334842        2.17390761759044        1.42825123078093
H           -0.88390081588671        3.11200491968411       -0.03683964787645
H           -1.38222197229767        3.93148992435386        1.44370187990551
H           -1.03679946188933        0.21065412874576        4.54728667842929

          :  Hamiltonian                  GFN2-xTB          :
         :: total energy             -99.303079643297 Eh    ::
         :: gradient norm              0.002444723844 Eh/a0 ::
         :: HOMO-LUMO gap              0.074122357132 eV    ::
         :: SCC energy              -100.700856691241 Eh    ::
         :: -> dispersion             -0.073381551658 Eh    ::
         :: repulsion energy           1.395798919915 Eh    ::

    * Orbital Energies and Occupations

         #    Occupation            Energy/Eh            Energy/eV
      -------------------------------------------------------------
         1        2.0000           -0.8074567             -21.9720
       ...           ...                  ...                  ...
        78        1.9991           -0.5303219             -14.4308
        79        1.9990           -0.5302091             -14.4277
        80        1.9989           -0.5276118             -14.3570
        81        1.9986           -0.5237749             -14.2526
        82        1.9983           -0.5213467             -14.1866
        83        1.9976           -0.5152637             -14.0210
        84        1.9974           -0.5141313             -13.9902
        85        1.9961           -0.5078366             -13.8189
        86        1.9890           -0.4913465             -13.3702
        87        1.9819           -0.4834730             -13.1560
        88        1.9393           -0.4639335             -12.6243
        89        1.8687           -0.4511394             -12.2761
        90        0.9668           -0.4080448             -11.1035 (HOMO)
        91        0.8814           -0.4053209             -11.0293 (LUMO)
        92        0.3710           -0.3856686             -10.4946
        93        0.0121           -0.3282821              -8.9330
        94        0.0033           -0.3077296              -8.3737
        95        0.0032           -0.3070743              -8.3559
        96        0.0028           -0.3048607              -8.2957
        97        0.0011           -0.2903981              -7.9021
        98        0.0000           -0.1819847              -4.9521
        99        0.0000           -0.1809477              -4.9238
       100                         -0.1245912              -3.3903
       101                         -0.0618576              -1.6832
       ...                                ...                  ...
       171                          0.6676618              18.1680
      -------------------------------------------------------------
                  HL-Gap            0.0027239 Eh            0.0741 eV

     #   Z          covCN         q      C6AA      α(0)
     1   7 N        1.770    -0.195    26.023     7.554
     2   6 C        1.836    -0.023    31.768     9.106
     3   6 C        2.952    -0.009    28.241     8.716
     4   6 C        2.962     0.003    27.967     8.674
     5   6 C        2.919    -0.088    30.196     9.011
     6   6 C        2.857     0.129    25.175     8.224
     7   8 O        1.706    -0.239    17.953     5.721
     8   6 C        3.644     0.029    20.417     6.495
     9   6 C        2.864     0.131    25.132     8.217
    10   8 O        1.706    -0.221    17.671     5.676
    11   6 C        3.646     0.026    20.474     6.502
    12   6 C        2.909    -0.071    29.759     8.945
    13   6 C        2.920    -0.051    29.261     8.871
    14   6 C        3.806    -0.064    21.725     6.635
    15   6 C        3.801    -0.069    21.811     6.649
    16   6 C        2.845     0.005    27.908     8.658
    17   7 N        2.729     0.027    20.786     6.771
    18   6 C        3.757    -0.021    20.997     6.533
    19   6 C        3.808    -0.071    21.848     6.654
    20   6 C        2.969    -0.001    28.051     8.688
    21   6 C        2.922    -0.050    29.237     8.867
    22   6 C        2.914    -0.068    29.701     8.937
    23   6 C        2.865     0.132    25.116     8.215
    24   8 O        1.706    -0.226    17.754     5.689
    25   6 C        3.645     0.026    20.468     6.502
    26   6 C        2.863     0.131    25.127     8.217
    27   8 O        1.706    -0.229    17.802     5.697
    28   6 C        3.645     0.029    20.429     6.496
    29   6 C        2.920    -0.080    30.009     8.983
    30   6 C        3.701    -0.076    22.125     6.726
    31   6 C        3.852    -0.013    20.775     6.483
    32   6 C        3.753    -0.113    22.729     6.798
    33   6 C        3.753    -0.109    22.653     6.787
    34   1 H        0.926     0.049     2.336     2.390
    35   1 H        0.924     0.051     2.309     2.376
    36   1 H        0.925     0.079     1.989     2.206
    37   1 H        0.924     0.043     2.405     2.425
    38   1 H        0.924     0.056     2.242     2.342
    39   1 H        0.925     0.081     1.969     2.194
    40   1 H        0.924     0.051     2.308     2.376
    41   1 H        0.926     0.054     2.268     2.355
    42   1 H        0.926     0.067     2.116     2.275
    43   1 H        0.924     0.069     2.100     2.266
    44   1 H        0.924     0.054     2.272     2.357
    45   1 H        0.925     0.066     2.133     2.284
    46   1 H        0.924     0.074     2.047     2.238
    47   1 H        0.926     0.064     2.152     2.294
    48   1 H        0.926     0.067     2.121     2.277
    49   1 H        0.924     0.072     2.068     2.249
    50   1 H        0.924     0.069     2.095     2.264
    51   1 H        0.924     0.056     2.248     2.345
    52   1 H        0.924     0.054     2.269     2.355
    53   1 H        0.926     0.044     2.396     2.421
    54   1 H        0.926     0.057     2.238     2.339
    55   1 H        0.924     0.052     2.297     2.370
    56   1 H        0.924     0.055     2.264     2.353
    57   1 H        0.925     0.080     1.975     2.198
    58   1 H        0.925     0.080     1.981     2.201
    59   1 H        0.924     0.046     2.373     2.409
    60   1 H        0.924     0.051     2.306     2.375
    61   1 H        0.926     0.045     2.380     2.413
    62   1 H        0.924     0.074     2.038     2.232
    63   1 H        0.924     0.087     1.905     2.159
    64   1 H        0.925     0.079     1.988     2.205
    65   1 H        0.923     0.049     2.336     2.390
    66   1 H        0.925     0.048     2.351     2.398
    67   1 H        0.925     0.044     2.392     2.419
    68   1 H        0.925     0.047     2.352     2.398
    69   1 H        0.924     0.051     2.312     2.378
    70   1 H        0.925     0.030     2.593     2.518
    71   1 H        0.925     0.050     2.318     2.381
    72   1 H        0.860     0.177     1.229     1.737

Wiberg/Mayer (AO) data.
largest (>0.10) Wiberg bond orders for each atom

     #   Z sym  total        # sym  WBO       # sym  WBO       # sym  WBO
 ---------------------------------------------------------------------------
     1   7 N    3.121 --     2 C    2.217    72 H    0.877
     2   6 C    3.165 --     1 N    2.217    47 H    0.908
     3   6 C    3.512 --     4 C    1.326    14 C    1.042    31 C    1.024
     4   6 C    3.975 --     3 C    1.326    13 C    1.262     5 C    1.235
     5   6 C    3.879 --     6 C    1.461     4 C    1.235    34 H    0.957
     6   6 C    3.916 --     5 C    1.461     9 C    1.196     7 O    1.088
     7   8 O    2.250 --     6 C    1.088     8 C    0.980
     8   6 C    3.936 --     7 O    0.980    36 H    0.977    37 H    0.974
                            35 H    0.974
     9   6 C    3.809 --    12 C    1.348     6 C    1.196    10 O    1.114
    10   8 O    2.246 --     9 C    1.114    11 C    0.976
    11   6 C    3.931 --    39 H    0.977    10 O    0.976    38 H    0.973
                            40 H    0.973
    12   6 C    3.970 --    13 C    1.476     9 C    1.348    41 H    0.962
    13   6 C    3.844 --    12 C    1.476     4 C    1.262    42 H    0.955
    14   6 C    3.958 --     3 C    1.042    44 H    0.972    43 H    0.941
                            15 C    0.930
    15   6 C    3.972 --    16 C    1.070    45 H    0.964    46 H    0.949
                            14 C    0.930
    16   6 C    3.573 --    17 N    1.421    15 C    1.070    48 H    0.959
    17   7 N    3.483 --    16 C    1.421    30 C    0.998    18 C    0.990
    18   6 C    3.956 --    17 N    0.990    50 H    0.968    19 C    0.966
                            49 H    0.963
    19   6 C    3.976 --    20 C    1.009    52 H    0.972    51 H    0.970
                            18 C    0.966
    20   6 C    3.950 --    21 C    1.412    29 C    1.379    19 C    1.009
    21   6 C    3.955 --    22 C    1.416    20 C    1.412    53 H    0.968
    22   6 C    3.963 --    21 C    1.416    23 C    1.386    54 H    0.963
    23   6 C    3.901 --    22 C    1.386    26 C    1.225    24 O    1.105
    24   8 O    2.254 --    23 C    1.105    25 C    0.977
    25   6 C    3.931 --    57 H    0.977    24 O    0.977    55 H    0.973
                            56 H    0.973
    26   6 C    3.904 --    29 C    1.398    23 C    1.225    27 O    1.097
    27   8 O    2.252 --    26 C    1.097    28 C    0.980
    28   6 C    3.934 --    27 O    0.980    58 H    0.977    59 H    0.974
                            60 H    0.974
    29   6 C    3.962 --    26 C    1.398    20 C    1.379    61 H    0.962
    30   6 C    3.955 --    17 N    0.998    64 H    0.978    62 H    0.966
                            63 H    0.955
    31   6 C    3.985 --     3 C    1.024    32 C    0.999    33 C    0.972
                            65 H    0.951
    32   6 C    3.984 --    31 C    0.999    67 H    0.986    68 H    0.984
                            66 H    0.980
    33   6 C    3.944 --    70 H    0.983    71 H    0.982    31 C    0.972
                            69 H    0.955
    34   1 H    0.996 --     5 C    0.957
    35   1 H    0.995 --     8 C    0.974
    36   1 H    0.993 --     8 C    0.977
    37   1 H    0.995 --     8 C    0.974
    38   1 H    0.992 --    11 C    0.973
    39   1 H    0.993 --    11 C    0.977
    40   1 H    0.992 --    11 C    0.973
    41   1 H    0.995 --    12 C    0.962
    42   1 H    0.995 --    13 C    0.955
    43   1 H    0.973 --    14 C    0.941
    44   1 H    0.996 --    14 C    0.972
    45   1 H    0.995 --    15 C    0.964
    46   1 H    0.981 --    15 C    0.949
    47   1 H    0.920 --     2 C    0.908
    48   1 H    0.995 --    16 C    0.959
    49   1 H    0.991 --    18 C    0.963
    50   1 H    0.994 --    18 C    0.968
    51   1 H    0.995 --    19 C    0.970
    52   1 H    0.996 --    19 C    0.972
    53   1 H    0.997 --    21 C    0.968
    54   1 H    0.995 --    22 C    0.963
    55   1 H    0.993 --    25 C    0.973
    56   1 H    0.992 --    25 C    0.973
    57   1 H    0.993 --    25 C    0.977
    58   1 H    0.993 --    28 C    0.977
    59   1 H    0.994 --    28 C    0.974
    60   1 H    0.994 --    28 C    0.974
    61   1 H    0.997 --    29 C    0.962
    62   1 H    0.985 --    30 C    0.966
    63   1 H    0.984 --    30 C    0.955
    64   1 H    0.994 --    30 C    0.978
    65   1 H    0.986 --    31 C    0.951
    66   1 H    0.997 --    32 C    0.980
    67   1 H    0.997 --    32 C    0.986
    68   1 H    0.996 --    32 C    0.984
    69   1 H    0.997 --    33 C    0.955
    70   1 H    0.999 --    33 C    0.983
    71   1 H    0.994 --    33 C    0.982
    72   1 H    0.883 --     1 N    0.877
 ---------------------------------------------------------------------------

molecular dipole:
                 x           y           z       tot (Debye)
 q only:       -0.233       0.407      -0.546
   full:       -0.117       0.711      -0.312       1.996

           -------------------------------------------------
          | TOTAL ENERGY              -99.303079643297 Eh   |
          | GRADIENT NORM               0.002444723844 Eh/α |
          | HOMO-LUMO GAP               0.074122357132 eV   |
           -------------------------------------------------

 * finished run on 2024/04/06 at 11:11:44.768
