   * xtb version 6.6.1 (8d0f1dd) compiled by 'conda@1efc2f54142f' on 2023-08-01
          program call               : xtb xtbopt.xyz --opt crude --input .xc2 --gfn2

   ID    Z sym.   atoms
    1    6 C      1, 3, 5-7, 10, 11, 14
    2    7 N      2, 4, 9, 13
    3    8 O      8, 12
    4    1 H      15-25

          :  Hamiltonian                  GFN2-xTB          :
 * total energy  :   -42.1059171 Eh     change       -0.5989875E-11 Eh
   *** GEOMETRY OPTIMIZATION CONVERGED AFTER 1 ITERATIONS ***

 final structure:
================
25
 xtb: 6.6.1 (8d0f1dd)
C            3.36609311966006        1.05361513969092       -0.01366760265782
N            2.37468466849495        0.01137329668321       -0.02941066812068
C            2.60058193701566       -1.29978207825278       -0.00392440328423
N            1.42361729454267       -1.96829805692761       -0.00278418214712
C            0.41661499356755       -1.05056359195796       -0.02614411476933
C            1.00966045827104        0.20566519929172       -0.04509738644828
C            0.24824362373113        1.41617693730423       -0.08041580226399
O            0.65872110967735        2.55435687029642       -0.10848965522615
N           -1.16911920376203        1.14296369393613       -0.05709712051447
C           -1.99491701106774        2.19799112282889       -0.05628363218185
C           -1.77427916525092       -0.14704464815609       -0.03471926972002
O           -2.96747893046947       -0.27459921510026       -0.02711916000960
N           -0.91799749231329       -1.24481770124892       -0.02310319249290
C           -1.48778010934035       -2.58037954252595        0.00067483085642
H            3.85723541734103        1.09271378919729        0.95959037329798
H            4.11758384120078        0.87049880106117       -0.78036528600223
H            2.87445842096173        2.00778327471417       -0.19826107301079
H            3.56766289048463       -1.76083305154001        0.00960180249232
H           -1.54891860407694        3.17577146161546       -0.08655828173243
H           -3.07096450987466        2.04351873315005        0.05343875032945
H           -4.81062048832438        2.07016461088992        0.55027518406581
H           -1.16950382072162       -3.11190096253176        0.89748207980924
H           -1.19492924440906       -3.13422798890688       -0.89136763913737
H           -2.57190462983706       -2.47906728624350        0.01449510168288
H            1.32368694860018       -2.97284026566792        0.01042196508609

          :  Hamiltonian                  GFN2-xTB          :
         :: total energy             -42.105917142823 Eh    ::
         :: gradient norm              0.003904858420 Eh/a0 ::
         :: HOMO-LUMO gap              0.132696427377 eV    ::
         :: SCC energy               -42.624026756415 Eh    ::
         :: -> dispersion             -0.022878670181 Eh    ::
         :: repulsion energy           0.518027216612 Eh    ::

    * Orbital Energies and Occupations

         #    Occupation            Energy/Eh            Energy/eV
      -------------------------------------------------------------
         1        2.0000           -0.9109248             -24.7875
       ...           ...                  ...                  ...
        25        2.0000           -0.6712927             -18.2668
        26        2.0000           -0.6690046             -18.2045
        27        2.0000           -0.6628526             -18.0371
        28        1.9999           -0.6329433             -17.2233
        29        1.9999           -0.6299239             -17.1411
        30        1.9999           -0.6278627             -17.0850
        31        1.9998           -0.6188877             -16.8408
        32        1.9997           -0.6146824             -16.7264
        33        1.9997           -0.6130302             -16.6814
        34        1.9982           -0.5852760             -15.9262
        35        1.9943           -0.5668235             -15.4241
        36        1.9904           -0.5584554             -15.1963
        37        1.0153           -0.4744869             -12.9114 (HOMO)
        38        0.8622           -0.4696103             -12.7787 (LUMO)
        39        0.1197           -0.4303857             -11.7114
        40        0.0180           -0.3995503             -10.8723
        41        0.0031           -0.3715329             -10.1099
        42        0.0000           -0.2876205              -7.8266
        43        0.0000           -0.2089063              -5.6846
        44                         -0.1966667              -5.3516
        45                         -0.1513675              -4.1189
        46                         -0.1463308              -3.9819
        47                         -0.0783124              -2.1310
        48                         -0.0538920              -1.4665
       ...                                ...                  ...
        67                          0.5489846              14.9386
      -------------------------------------------------------------
                  HL-Gap            0.0048765 Eh            0.1327 eV

     #   Z          covCN         q      C6AA      α(0)
     1   6 C        3.691    -0.094    22.481     6.785
     2   7 N        2.829     0.077    19.910     6.627
     3   6 C        3.049     0.047    26.904     8.507
     4   7 N        2.791    -0.058    22.355     7.022
     5   6 C        3.041     0.106    25.628     8.303
     6   6 C        3.108    -0.023    28.430     8.736
     7   6 C        2.774     0.254    22.738     7.810
     8   8 O        0.857    -0.362    20.931     6.134
     9   7 N        2.740    -0.032    21.862     6.944
    10   6 C        2.812    -0.021    28.517     8.749
    11   6 C        2.737     0.309    21.755     7.637
    12   8 O        0.859    -0.352    20.741     6.106
    13   7 N        2.737    -0.050    22.200     6.998
    14   6 C        3.699    -0.073    22.076     6.720
    15   1 H        0.924     0.107     1.720     2.051
    16   1 H        0.925     0.105     1.744     2.065
    17   1 H        0.925     0.134     1.505     1.918
    18   1 H        0.926     0.123     1.585     1.969
    19   1 H        0.926     0.133     1.510     1.922
    20   1 H        0.924     0.134     1.505     1.919
    21   1 H        0.000     0.012     7.110     4.876
    22   1 H        0.925     0.083     1.945     2.181
    23   1 H        0.925     0.084     1.936     2.176
    24   1 H        0.925     0.127     1.557     1.951
    25   1 H        0.860     0.229     0.970     1.543

Wiberg/Mayer (AO) data.
largest (>0.10) Wiberg bond orders for each atom

     #   Z sym  total        # sym  WBO       # sym  WBO       # sym  WBO
 ---------------------------------------------------------------------------
     1   6 C    3.917 --     2 N    0.986    16 H    0.964    17 H    0.962
                            15 H    0.956
     2   7 N    3.647 --     3 C    1.378     6 C    1.145     1 C    0.986
     3   6 C    3.819 --     2 N    1.378     4 N    1.266    18 H    0.953
     4   7 N    3.579 --     3 C    1.266     5 C    1.194    25 H    0.919
     5   6 C    3.898 --     6 C    1.327     4 N    1.194    13 N    1.190
     6   6 C    3.909 --     5 C    1.327     2 N    1.145     7 C    1.119
     7   6 C    3.864 --     8 O    1.676     6 C    1.119     9 N    0.978
     8   8 O    1.959 --     7 C    1.676     9 N    0.108
     9   7 N    3.613 --    10 C    1.349    11 C    1.015     7 C    0.978
                             8 O    0.108
    10   6 C    3.303 --     9 N    1.349    19 H    0.956    20 H    0.909
    11   6 C    3.904 --    12 O    1.706    13 N    1.088     9 N    1.015
    12   8 O    2.018 --    11 C    1.706    13 N    0.134
    13   7 N    3.565 --     5 C    1.190    11 C    1.088    14 C    0.970
                            12 O    0.134
    14   6 C    3.924 --    22 H    0.972    23 H    0.971    13 N    0.970
                            24 H    0.965
    15   1 H    0.983 --     1 C    0.956
    16   1 H    0.985 --     1 C    0.964
    17   1 H    0.982 --     1 C    0.962
    18   1 H    0.984 --     3 C    0.953
    19   1 H    0.979 --    10 C    0.956
    20   1 H    0.981 --    10 C    0.909
    21   1 H    0.060
    22   1 H    0.991 --    14 C    0.972
    23   1 H    0.991 --    14 C    0.971
    24   1 H    0.983 --    14 C    0.965
    25   1 H    0.947 --     4 N    0.919
 ---------------------------------------------------------------------------

molecular dipole:
                 x           y           z       tot (Debye)
 q only:        2.368      -1.970       0.041
   full:        2.589      -2.428       0.063       9.022

           -------------------------------------------------
          | TOTAL ENERGY              -42.105917142823 Eh   |
          | GRADIENT NORM               0.003904858420 Eh/α |
          | HOMO-LUMO GAP               0.132696427377 eV   |
           -------------------------------------------------

 * finished run on 2024/06/05 at 20:00:14.961
