   * xtb version 6.6.1 (8d0f1dd) compiled by 'conda@1efc2f54142f' on 2023-08-01
          program call               : xtb struc.xyz --opt loose --input .xc1 --gfn2

   ID    Z sym.   atoms
    1    7 N      1, 17
    2    6 C      2-6, 8, 9, 11-16, 18-23, 25, 26, 28-33
    3    8 O      7, 10, 24, 27
    4    1 H      34-72
constraining bond 17 51 to    3.6866700 Å, actual value:    2.6770191 Å

          :  Hamiltonian                  GFN2-xTB          :
 * total energy  :   -99.5861472 Eh     change       -0.4035485E-08 Eh
 * total energy  :   -99.8758904 Eh     change       -0.2897432E+00 Eh
 * total energy  :  -100.2447427 Eh     change       -0.3688523E+00 Eh
 * total energy  :  -100.5012423 Eh     change       -0.2564996E+00 Eh
 * total energy  :  -100.4899546 Eh     change        0.1128776E-01 Eh
 * total energy  :  -100.5947435 Eh     change       -0.1047889E+00 Eh
 * total energy  :  -100.3839198 Eh     change        0.2108237E+00 Eh
 * total energy  :  -100.6701670 Eh     change       -0.2862472E+00 Eh
 * total energy  :  -100.6860297 Eh     change       -0.1586273E-01 Eh
 * total energy  :  -100.6999006 Eh     change       -0.1387094E-01 Eh
 * total energy  :  -100.7457227 Eh     change       -0.2249173E-03 Eh
 * total energy  :  -100.7459155 Eh     change       -0.1927994E-03 Eh
 * total energy  :  -100.7460575 Eh     change       -0.1420660E-03 Eh
 * total energy  :  -100.7461671 Eh     change       -0.1095388E-03 Eh
 * total energy  :  -100.7462713 Eh     change       -0.1042778E-03 Eh
 * total energy  :  -100.7463851 Eh     change       -0.1137879E-03 Eh
 * total energy  :  -100.7464521 Eh     change       -0.6695907E-04 Eh
 * total energy  :  -100.7465058 Eh     change       -0.5367964E-04 Eh
 * total energy  :  -100.7465477 Eh     change       -0.4197696E-04 Eh
   *** GEOMETRY OPTIMIZATION CONVERGED AFTER 61 ITERATIONS ***

 final structure:
================
72
 xtb: 6.6.1 (8d0f1dd)
N           -1.82072211818115        2.84804281858605        2.17956125934481
C           -1.76709417796436        2.22214562864304        1.10635669490395
C           -2.89016271589582        2.00630627156130        0.13841661376243
C           -3.31750540827794        0.54665915793591        0.18736427851741
C           -4.23311374684172        0.06035675956352       -0.74700298012231
C           -4.66218389059442       -1.25632417178205       -0.72320830584619
O           -5.55290656123277       -1.80135013229986       -1.57691076571266
C           -6.18944893828254       -0.97957650469787       -2.52700198170909
C           -4.15143545663948       -2.14110911116081        0.26482065815498
O           -4.62209821104691       -3.40381588855360        0.21367633606265
C           -4.25000407209637       -4.31379576914974        1.22235743649954
C           -3.23774861848860       -1.65360852623710        1.18523666680215
C           -2.83040854993331       -0.32597839696178        1.14771600107064
C           -2.28981063026493        2.32673827361744       -1.25553585198746
C           -1.24947661495944        1.29560776604146       -1.72450781258087
C           -0.01204648865379        1.34450399139672       -0.88425341974110
N            0.86127710711174        0.16786910705639       -0.75558556080084
C            1.40849563721323        0.07344052576973        0.72089924316973
C            2.54338061020183       -0.84991306748974        0.80009493968553
C            3.84476330230303       -0.51210038426556        0.42297894578987
C            4.20613733020467        0.76349984921508       -0.07688058103576
C            5.50902220086161        1.06364357550923       -0.40240506846814
C            6.52115403070175        0.11539995128653       -0.26667411879778
O            7.81953599639634        0.30985632554464       -0.54426413058097
C            8.25404620859641        1.57684222745973       -0.98338322344653
C            6.18395716342269       -1.18886176459995        0.21242311331981
O            7.22446387012722       -2.04131645381204        0.29814002576571
C            6.99813654182468       -3.35349100363984        0.75972047257625
C            4.88134155182540       -1.47683943512028        0.54150969549902
C            0.23026879788019       -1.12238276278297       -1.08400006099764
C           -4.13047736412895        2.90499612526863        0.42004032274150
C           -4.79092284829249        2.53902209799069        1.74623940921198
C           -3.80412015599683        4.39532431029442        0.39940690177079
H           -4.62772762876131        0.72706238275240       -1.49540436358414
H           -6.73859287412498       -0.16358908204039       -2.04741938796165
H           -6.89102039671248       -1.62720143245833       -3.04912067091043
H           -5.47495515241215       -0.56786828213309       -3.24718406464105
H           -4.52899355791461       -3.94755929617826        2.21486823565834
H           -4.79897410778497       -5.22866282526144        1.00800224465719
H           -3.17562920191198       -4.52341425842161        1.19841740737881
H           -2.84489536572012       -2.29776251488777        1.95529354653977
H           -2.14646821314809        0.02487062257141        1.90529701822564
H           -3.09339720505032        2.36650212115023       -1.98956199537312
H           -1.82127519609055        3.31041384892875       -1.22059376803479
H           -1.71332778345431        0.31151349448054       -1.69670891350288
H           -1.01700765671706        1.52590353064967       -2.77441901843436
H           -0.81977969798718        1.77843281083946        0.64082390250095
H            0.59367332248040        2.23317110246886       -1.02248780956736
H            0.56569586782729       -0.23995953548896        1.33523806825686
H            1.68769688174241        1.09622613131764        0.97784564169951
H            1.49079351382369        0.26209302950856       -1.17733612155912
H            2.35710083785015       -1.85023058800115        1.15563102916596
H            3.46243232996149        1.53728645875537       -0.19014245929676
H            5.74257732034623        2.05189526360180       -0.76601235221285
H            8.03275913290645        2.35384322363733       -0.24492228441698
H            7.80207044830145        1.84468660190266       -1.94394441989484
H            9.33217109667951        1.49160851919869       -1.10452894509106
H            7.97182820849299       -3.83926486915764        0.74470719892694
H            6.60633138585751       -3.35559780654686        1.78116864999523
H            6.31081115581110       -3.89499976919499        0.10171646962913
H            4.61584828128735       -2.45165813870096        0.91710357806570
H           -0.01556013620297       -1.16671911103851       -2.14404055857026
H           -0.67291919663938       -1.26310514380032       -0.49130237124274
H            0.93910823454803       -1.91776778822485       -0.85465605532791
H           -4.84720709293179        2.70457339649947       -0.38405978721398
H           -4.11354199269461        2.74327274050326        2.56934969603584
H           -5.06849869029101        1.48797918213012        1.77062171398361
H           -5.68984346127296        3.13420721122695        1.88266071003083
H           -3.07046620073825        4.63429710480994        1.16369672505288
H           -3.42889627579999        4.71478325310526       -0.56897186356287
H           -4.70751445065119        4.96176208977803        0.60914392245570
H           -0.98218466681271        2.96332445402085        2.73715114190701

          :  Hamiltonian                  GFN2-xTB          :
         :: total energy            -100.746547742125 Eh    ::
         :: gradient norm              0.002951838724 Eh/a0 ::
         :: HOMO-LUMO gap              0.317683796567 eV    ::
         :: SCC energy              -100.711802600695 Eh    ::
         :: -> dispersion             -0.076728976501 Eh    ::
         :: repulsion energy           1.489493877513 Eh    ::

    * Orbital Energies and Occupations

         #    Occupation            Energy/Eh            Energy/eV
      -------------------------------------------------------------
         1        2.0000           -0.8249644             -22.4484
       ...           ...                  ...                  ...
        78        1.9985           -0.5302820             -14.4297
        79        1.9983           -0.5285429             -14.3824
        80        1.9976           -0.5229911             -14.2313
        81        1.9973           -0.5210595             -14.1788
        82        1.9962           -0.5157571             -14.0345
        83        1.9962           -0.5154446             -14.0260
        84        1.9944           -0.5096002             -13.8669
        85        1.9902           -0.5006628             -13.6237
        86        1.9813           -0.4903006             -13.3418
        87        1.9755           -0.4859852             -13.2243
        88        1.9333           -0.4697705             -12.7831
        89        1.8740           -0.4592143             -12.4959
        90        1.3041           -0.4264077             -11.6031 (HOMO)
        91        0.9454           -0.4147331             -11.2855 (LUMO)
        92        0.0161           -0.3402633              -9.2590
        93        0.0035           -0.3161437              -8.6027
        94        0.0029           -0.3132600              -8.5242
        95        0.0024           -0.3102649              -8.4427
        96        0.0010           -0.2960048              -8.0547
        97        0.0000           -0.2051015              -5.5811
        98        0.0000           -0.1904525              -5.1825
        99        0.0000           -0.1706388              -4.6433
       100                         -0.1250977              -3.4041
       101                         -0.0901992              -2.4544
       ...                                ...                  ...
       171                          0.7196707              19.5832
      -------------------------------------------------------------
                  HL-Gap            0.0116747 Eh            0.3177 eV

     #   Z          covCN         q      C6AA      α(0)
     1   7 N        1.773    -0.248    27.276     7.734
     2   6 C        2.822     0.089    26.006     8.356
     3   6 C        3.908     0.008    20.387     6.418
     4   6 C        2.975     0.006    27.893     8.663
     5   6 C        2.921    -0.078    29.956     8.975
     6   6 C        2.862     0.130    25.156     8.221
     7   8 O        1.706    -0.230    17.811     5.698
     8   6 C        3.644     0.027    20.449     6.500
     9   6 C        2.864     0.128    25.192     8.227
    10   8 O        1.706    -0.230    17.806     5.697
    11   6 C        3.645     0.027    20.452     6.500
    12   6 C        2.914    -0.076    29.894     8.966
    13   6 C        2.922    -0.055    29.362     8.886
    14   6 C        3.816    -0.066    21.744     6.637
    15   6 C        3.800    -0.063    21.717     6.635
    16   6 C        2.826    -0.107    30.686     9.077
    17   7 N        3.566     0.018    20.926     6.794
    18   6 C        3.732    -0.029    21.177     6.568
    19   6 C        2.902    -0.104    30.633     9.075
    20   6 C        2.962     0.009    27.817     8.651
    21   6 C        2.919    -0.058    29.430     8.896
    22   6 C        2.908    -0.065    29.620     8.924
    23   6 C        2.864     0.134    25.060     8.206
    24   8 O        1.706    -0.213    17.532     5.653
    25   6 C        3.645     0.025    20.495     6.507
    26   6 C        2.858     0.136    25.030     8.200
    27   8 O        1.706    -0.229    17.805     5.697
    28   6 C        3.645     0.027    20.462     6.501
    29   6 C        2.921    -0.084    30.114     8.999
    30   6 C        3.692    -0.081    22.235     6.747
    31   6 C        3.852    -0.007    20.672     6.467
    32   6 C        3.756    -0.118    22.823     6.812
    33   6 C        3.755    -0.117    22.803     6.809
    34   1 H        0.926     0.053     2.282     2.362
    35   1 H        0.924     0.054     2.272     2.357
    36   1 H        0.925     0.081     1.969     2.194
    37   1 H        0.924     0.048     2.345     2.395
    38   1 H        0.924     0.055     2.262     2.352
    39   1 H        0.925     0.081     1.970     2.195
    40   1 H        0.924     0.047     2.353     2.399
    41   1 H        0.926     0.050     2.315     2.379
    42   1 H        0.926     0.036     2.508     2.476
    43   1 H        0.925     0.055     2.263     2.353
    44   1 H        0.925     0.051     2.302     2.373
    45   1 H        0.925     0.049     2.332     2.388
    46   1 H        0.923     0.047     2.355     2.400
    47   1 H        0.917     0.054     2.266     2.354
    48   1 H        0.925     0.031     2.579     2.511
    49   1 H        0.925     0.075     2.033     2.230
    50   1 H        0.924     0.076     2.019     2.222
    51   1 H        0.863     0.227     0.980     1.550
    52   1 H        0.926     0.037     2.492     2.469
    53   1 H        0.926     0.029     2.599     2.521
    54   1 H        0.926     0.052     2.292     2.368
    55   1 H        0.924     0.057     2.232     2.337
    56   1 H        0.924     0.056     2.251     2.346
    57   1 H        0.925     0.084     1.939     2.178
    58   1 H        0.925     0.081     1.965     2.192
    59   1 H        0.924     0.053     2.278     2.360
    60   1 H        0.924     0.051     2.312     2.378
    61   1 H        0.926     0.050     2.322     2.383
    62   1 H        0.925     0.084     1.935     2.175
    63   1 H        0.925     0.093     1.852     2.128
    64   1 H        0.925     0.091     1.867     2.137
    65   1 H        0.924     0.040     2.451     2.449
    66   1 H        0.925     0.067     2.119     2.276
    67   1 H        0.925     0.036     2.501     2.473
    68   1 H        0.925     0.051     2.302     2.373
    69   1 H        0.925     0.056     2.244     2.343
    70   1 H        0.925     0.037     2.495     2.470
    71   1 H        0.925     0.054     2.265     2.354
    72   1 H        0.860     0.164     1.309     1.792

Wiberg/Mayer (AO) data.
largest (>0.10) Wiberg bond orders for each atom

     #   Z sym  total        # sym  WBO       # sym  WBO       # sym  WBO
 ---------------------------------------------------------------------------
     1   7 N    3.050 --     2 C    1.967    72 H    0.935
     2   6 C    3.824 --     1 N    1.967     3 C    0.994    47 H    0.779
     3   6 C    3.965 --     2 C    0.994     4 C    0.967    14 C    0.955
                            31 C    0.936
     4   6 C    3.950 --    13 C    1.415     5 C    1.370     3 C    0.967
     5   6 C    3.962 --     6 C    1.401     4 C    1.370    34 H    0.957
     6   6 C    3.906 --     5 C    1.401     9 C    1.223     7 O    1.100
     7   8 O    2.255 --     6 C    1.100     8 C    0.978
     8   6 C    3.932 --     7 O    0.978    36 H    0.977    35 H    0.974
                            37 H    0.973
     9   6 C    3.902 --    12 C    1.392     6 C    1.223    10 O    1.100
    10   8 O    2.252 --     9 C    1.100    11 C    0.978
    11   6 C    3.932 --    10 O    0.978    39 H    0.977    40 H    0.974
                            38 H    0.974
    12   6 C    3.963 --    13 C    1.405     9 C    1.392    41 H    0.964
    13   6 C    3.954 --     4 C    1.415    12 C    1.405    42 H    0.962
    14   6 C    3.974 --    15 C    0.990    44 H    0.972    43 H    0.970
                             3 C    0.955
    15   6 C    3.981 --    16 C    1.041    14 C    0.990    45 H    0.964
                            46 H    0.943
    16   6 C    3.225 --    15 C    1.041    48 H    0.967    17 N    0.937
                            47 H    0.157
    17   7 N    3.702 --    30 C    0.972    16 C    0.937    51 H    0.923
                            18 C    0.815
    18   6 C    3.905 --    19 C    1.088    49 H    0.973    50 H    0.960
                            17 N    0.815
    19   6 C    3.546 --    20 C    1.383    18 C    1.088    52 H    0.968
    20   6 C    3.968 --    19 C    1.383    21 C    1.244    29 C    1.229
    21   6 C    3.823 --    22 C    1.488    20 C    1.244    53 H    0.966
    22   6 C    3.960 --    21 C    1.488    23 C    1.337    54 H    0.963
    23   6 C    3.783 --    22 C    1.337    26 C    1.182    24 O    1.125
    24   8 O    2.243 --    23 C    1.125    25 C    0.975
    25   6 C    3.927 --    57 H    0.977    24 O    0.975    55 H    0.972
                            56 H    0.972
    26   6 C    3.911 --    29 C    1.465    23 C    1.182    27 O    1.101
    27   8 O    2.256 --    26 C    1.101    28 C    0.977
    28   6 C    3.931 --    27 O    0.977    58 H    0.977    60 H    0.974
                            59 H    0.973
    29   6 C    3.872 --    26 C    1.465    20 C    1.229    61 H    0.962
    30   6 C    3.936 --    62 H    0.976    63 H    0.976    17 N    0.972
                            64 H    0.971
    31   6 C    3.964 --    33 C    1.010    32 C    1.009    65 H    0.958
                             3 C    0.936
    32   6 C    3.979 --    31 C    1.009    67 H    0.982    68 H    0.981
                            66 H    0.974
    33   6 C    3.984 --    31 C    1.010    70 H    0.983    71 H    0.980
                            69 H    0.978
    34   1 H    0.996 --     5 C    0.957
    35   1 H    0.993 --     8 C    0.974
    36   1 H    0.993 --     8 C    0.977
    37   1 H    0.994 --     8 C    0.973
    38   1 H    0.993 --    11 C    0.974
    39   1 H    0.993 --    11 C    0.977
    40   1 H    0.993 --    11 C    0.974
    41   1 H    0.996 --    12 C    0.964
    42   1 H    0.998 --    13 C    0.962
    43   1 H    0.996 --    14 C    0.970
    44   1 H    0.996 --    14 C    0.972
    45   1 H    0.996 --    15 C    0.964
    46   1 H    0.961 --    15 C    0.943
    47   1 H    0.975 --     2 C    0.779    16 C    0.157
    48   1 H    0.993 --    16 C    0.967
    49   1 H    0.992 --    18 C    0.973
    50   1 H    0.987 --    18 C    0.960
    51   1 H    0.943 --    17 N    0.923
    52   1 H    0.997 --    19 C    0.968
    53   1 H    0.999 --    21 C    0.966
    54   1 H    0.996 --    22 C    0.963
    55   1 H    0.990 --    25 C    0.972
    56   1 H    0.990 --    25 C    0.972
    57   1 H    0.992 --    25 C    0.977
    58   1 H    0.993 --    28 C    0.977
    59   1 H    0.993 --    28 C    0.973
    60   1 H    0.993 --    28 C    0.974
    61   1 H    0.996 --    29 C    0.962
    62   1 H    0.992 --    30 C    0.976
    63   1 H    0.990 --    30 C    0.976
    64   1 H    0.991 --    30 C    0.971
    65   1 H    0.991 --    31 C    0.958
    66   1 H    0.991 --    32 C    0.974
    67   1 H    0.997 --    32 C    0.982
    68   1 H    0.993 --    32 C    0.981
    69   1 H    0.994 --    33 C    0.978
    70   1 H    0.997 --    33 C    0.983
    71   1 H    0.994 --    33 C    0.980
    72   1 H    0.963 --     1 N    0.935
 ---------------------------------------------------------------------------

molecular dipole:
                 x           y           z       tot (Debye)
 q only:        0.763      -0.072      -0.764
   full:        1.190      -0.047      -1.080       4.086

           -------------------------------------------------
          | TOTAL ENERGY             -100.746547742125 Eh   |
          | GRADIENT NORM               0.002951838724 Eh/α |
          | HOMO-LUMO GAP               0.317683796567 eV   |
           -------------------------------------------------

 * finished run on 2024/04/06 at 11:13:42.262
