   * xtb version 6.6.1 (8d0f1dd) compiled by 'conda@1efc2f54142f' on 2023-08-01
          program call               : xtb xtbopt.xyz --opt crude --input .xc2 --gfn2

   ID    Z sym.   atoms
    1    7 N      1, 17
    2    6 C      2-6, 8, 9, 11-16, 18-23, 25, 26, 28-33
    3    8 O      7, 10, 24, 27
    4    1 H      34-72
########################################################################
[WARNING] Please study the warnings concerning your input carefully
-1- readin_getIntValue: could not parse ''
########################################################################

          :  Hamiltonian                  GFN2-xTB          :
 * total energy  :   -99.2208999 Eh     change       -0.2728484E-11 Eh
 * total energy  :   -99.3158030 Eh     change       -0.9490317E-01 Eh
 * total energy  :   -99.3169240 Eh     change       -0.1120971E-02 Eh
 * total energy  :   -99.3171389 Eh     change       -0.2149231E-03 Eh
   *** GEOMETRY OPTIMIZATION CONVERGED AFTER 4 ITERATIONS ***

 final structure:
================
72
 xtb: 6.6.1 (8d0f1dd)
N           -1.82008527612573        2.84698018000282        2.18007886667892
C           -1.76866782171872        2.22542054275433        1.10444324567150
C           -2.89313614069482        2.00823124356014        0.13867422453613
C           -3.31933927260167        0.54810500415787        0.18745648722691
C           -4.23435646510826        0.06124538295341       -0.74718493686650
C           -4.66166844324245       -1.25589752185634       -0.72371472307252
O           -5.55090275519702       -1.80202349179090       -1.57843133174681
C           -6.18785844756664       -0.98048008230106       -2.52843425249106
C           -4.15104251788461       -2.14014360088343        0.26465434166066
O           -4.62166847400858       -3.40286342252854        0.21350404017944
C           -4.24919690970070       -4.31360342740590        1.22127810103504
C           -3.23752336090971       -1.65219842719087        1.18502455085741
C           -2.83121697258856       -0.32432507129946        1.14750469192548
C           -2.29330847538561        2.32834502788041       -1.25560977078491
C           -1.25174072555595        1.29712877849072       -1.72321396872360
C           -0.01384683461035        1.34258966901538       -0.88161427287943
N            0.83429648641401        0.16133097644670       -0.72419204365615
C            1.39915239375951        0.07427676831978        0.72903236945527
C            2.53855295646314       -0.84808545996649        0.80279116840386
C            3.83819873833407       -0.51045160518692        0.42319387183333
C            4.20056850709764        0.76417276330947       -0.07863651895052
C            5.50376492993264        1.06186334346531       -0.40545542452781
C            6.51633727090691        0.11456676542035       -0.26865889798344
O            7.81483044774040        0.30778222950528       -0.54639393849410
C            8.25145446825614        1.57348106516129       -0.98518993362436
C            6.17761886491066       -1.18923528473311        0.21060344333366
O            7.21795142994111       -2.04169509857045        0.29691289624579
C            6.99549860323444       -3.35202341148044        0.76243321158612
C            4.87520216090202       -1.47534050429208        0.54022271036208
C            0.22531778890942       -1.12666631375892       -1.07478656198676
C           -4.13398800323185        2.90566278214549        0.42216990950525
C           -4.79228175308924        2.53767659003425        1.74898029821586
C           -3.80862696390378        4.39609406059599        0.40264471180738
H           -4.62904829063311        0.72782374157270       -1.49565377630619
H           -6.73711220168524       -0.16464333449197       -2.04890597470730
H           -6.88929016476736       -1.62826659710082       -3.05045870294525
H           -5.47349113929314       -0.56871567365820       -3.24870538915409
H           -4.52925835173240       -3.94900488669080        2.21399013164612
H           -4.79719810381625       -5.22854515974494        1.00523283976490
H           -3.17467044282359       -4.52230263105124        1.19792089364441
H           -2.84466044693643       -2.29639277780344        1.95511076410051
H           -2.14666443880526        0.02745419559642        1.90423088623264
H           -3.09702089204014        2.36745807417246       -1.98948679118411
H           -1.82557855574545        3.31254268537781       -1.22107332366610
H           -1.71579288777774        0.31264660552191       -1.69712121315852
H           -1.01806252778025        1.52813229497517       -2.77289921361845
H           -0.82106368149039        1.78263575857074        0.63321565724421
H            0.59246842287938        2.23045470167475       -1.01516871316102
H            0.56741402459872       -0.24308965985945        1.35690130343811
H            1.67895211108124        1.09685173690761        0.98505135457447
H            1.67451811342648        0.27840791778883       -1.29158933306118
H            2.35591857024430       -1.84753648249475        1.16205393079147
H            3.45893378804198        1.54127564466193       -0.18740454374843
H            5.73854716223065        2.04952841298731       -0.76921658321436
H            8.03359476605822        2.35036597862891       -0.24628367218090
H            7.79908476789356        1.84305862840059       -1.94443144639880
H            9.32914570238091        1.48471228618367       -1.10784053839414
H            7.96958509890343       -3.83676979080151        0.74637048605821
H            6.60608161904256       -3.35330144368946        1.78492290060294
H            6.30815318494202       -3.89704877183228        0.10797150975143
H            4.61021378604161       -2.45033889671082        0.91581410957557
H           -0.01900282090180       -1.16205458632491       -2.13428254439798
H           -0.67940996884460       -1.28448931301880       -0.48680853471783
H            0.93953866188655       -1.91815884757350       -0.85064282881716
H           -4.85136501678829        2.70556870583194       -0.38131235713378
H           -4.11329078997584        2.74112319977477        2.57124224064425
H           -5.06916359897210        1.48649935080964        1.77232560080776
H           -5.69131343025223        3.13238890144302        1.88785305856425
H           -3.07387448229491        4.63502318402083        1.16583097215940
H           -3.43533765955728        4.71710567324472       -0.56606080279236
H           -4.71198488423732        4.96194033552958        0.61459862666605
H           -0.98026883918834        2.96187991168686        2.73588729434720

          :  Hamiltonian                  GFN2-xTB          :
         :: total energy             -99.317138915928 Eh    ::
         :: gradient norm              0.009311650807 Eh/a0 ::
         :: HOMO-LUMO gap              0.275375594826 eV    ::
         :: SCC energy              -100.685171937599 Eh    ::
         :: -> dispersion             -0.076764035194 Eh    ::
         :: repulsion energy           1.366626389284 Eh    ::

    * Orbital Energies and Occupations

         #    Occupation            Energy/Eh            Energy/eV
      -------------------------------------------------------------
         1        2.0000           -0.8150939             -22.1798
       ...           ...                  ...                  ...
        78        1.9985           -0.5302247             -14.4281
        79        1.9984           -0.5283913             -14.3783
        80        1.9977           -0.5228166             -14.2266
        81        1.9974           -0.5209968             -14.1770
        82        1.9963           -0.5157136             -14.0333
        83        1.9963           -0.5153392             -14.0231
        84        1.9946           -0.5094880             -13.8639
        85        1.9905           -0.5005866             -13.6217
        86        1.9817           -0.4900737             -13.3356
        87        1.9763           -0.4859659             -13.2238
        88        1.9348           -0.4695756             -12.7778
        89        1.8763           -0.4589581             -12.4889
        90        1.2774           -0.4249164             -11.5626 (HOMO)
        91        0.9653           -0.4147965             -11.2872 (LUMO)
        92        0.0166           -0.3401287              -9.2554
        93        0.0036           -0.3158872              -8.5957
        94        0.0030           -0.3129728              -8.5164
        95        0.0025           -0.3102483              -8.4423
        96        0.0010           -0.2950848              -8.0297
        97        0.0000           -0.2014053              -5.4805
        98        0.0000           -0.1901562              -5.1744
        99        0.0000           -0.1698279              -4.6213
       100                         -0.1178486              -3.2068
       101                         -0.0824144              -2.2426
       ...                                ...                  ...
       171                          0.5876643              15.9912
      -------------------------------------------------------------
                  HL-Gap            0.0101199 Eh            0.2754 eV

     #   Z          covCN         q      C6AA      α(0)
     1   7 N        1.773    -0.248    27.278     7.734
     2   6 C        2.822     0.089    26.009     8.356
     3   6 C        3.908     0.008    20.384     6.417
     4   6 C        2.975     0.005    27.896     8.664
     5   6 C        2.921    -0.078    29.957     8.975
     6   6 C        2.862     0.130    25.158     8.222
     7   8 O        1.706    -0.230    17.816     5.699
     8   6 C        3.644     0.028    20.447     6.499
     9   6 C        2.864     0.128    25.194     8.228
    10   8 O        1.706    -0.230    17.811     5.698
    11   6 C        3.645     0.027    20.449     6.499
    12   6 C        2.914    -0.076    29.895     8.966
    13   6 C        2.922    -0.055    29.357     8.885
    14   6 C        3.816    -0.065    21.742     6.636
    15   6 C        3.800    -0.063    21.715     6.635
    16   6 C        2.826    -0.102    30.553     9.057
    17   7 N        3.568     0.037    20.589     6.739
    18   6 C        3.736    -0.026    21.117     6.558
    19   6 C        2.902    -0.105    30.660     9.079
    20   6 C        2.962     0.008    27.830     8.653
    21   6 C        2.918    -0.059    29.463     8.901
    22   6 C        2.908    -0.065    29.625     8.925
    23   6 C        2.864     0.134    25.069     8.207
    24   8 O        1.706    -0.213    17.536     5.654
    25   6 C        3.645     0.025    20.492     6.506
    26   6 C        2.858     0.136    25.031     8.200
    27   8 O        1.706    -0.229    17.805     5.697
    28   6 C        3.645     0.027    20.458     6.501
    29   6 C        2.922    -0.085    30.123     9.000
    30   6 C        3.692    -0.078    22.186     6.740
    31   6 C        3.852    -0.007    20.671     6.467
    32   6 C        3.756    -0.118    22.821     6.811
    33   6 C        3.755    -0.117    22.800     6.808
    34   1 H        0.926     0.053     2.284     2.363
    35   1 H        0.924     0.054     2.274     2.358
    36   1 H        0.925     0.081     1.970     2.195
    37   1 H        0.924     0.048     2.348     2.396
    38   1 H        0.924     0.055     2.264     2.353
    39   1 H        0.925     0.081     1.971     2.195
    40   1 H        0.924     0.047     2.356     2.400
    41   1 H        0.926     0.050     2.319     2.382
    42   1 H        0.926     0.035     2.514     2.480
    43   1 H        0.925     0.055     2.262     2.352
    44   1 H        0.924     0.051     2.304     2.374
    45   1 H        0.925     0.049     2.335     2.390
    46   1 H        0.923     0.047     2.358     2.402
    47   1 H        0.917     0.054     2.266     2.354
    48   1 H        0.925     0.031     2.575     2.509
    49   1 H        0.925     0.075     2.034     2.230
    50   1 H        0.924     0.076     2.024     2.225
    51   1 H        0.860     0.209     1.062     1.614
    52   1 H        0.926     0.037     2.490     2.467
    53   1 H        0.926     0.028     2.611     2.527
    54   1 H        0.926     0.052     2.297     2.370
    55   1 H        0.924     0.057     2.234     2.337
    56   1 H        0.924     0.055     2.254     2.348
    57   1 H        0.925     0.084     1.940     2.178
    58   1 H        0.925     0.081     1.967     2.193
    59   1 H        0.924     0.053     2.281     2.362
    60   1 H        0.924     0.050     2.316     2.380
    61   1 H        0.926     0.050     2.325     2.385
    62   1 H        0.925     0.084     1.940     2.178
    63   1 H        0.924     0.092     1.855     2.130
    64   1 H        0.925     0.091     1.872     2.140
    65   1 H        0.924     0.040     2.452     2.449
    66   1 H        0.925     0.067     2.121     2.277
    67   1 H        0.925     0.036     2.501     2.473
    68   1 H        0.925     0.051     2.303     2.373
    69   1 H        0.925     0.056     2.247     2.344
    70   1 H        0.925     0.036     2.497     2.471
    71   1 H        0.925     0.054     2.266     2.354
    72   1 H        0.860     0.164     1.309     1.792

Wiberg/Mayer (AO) data.
largest (>0.10) Wiberg bond orders for each atom

     #   Z sym  total        # sym  WBO       # sym  WBO       # sym  WBO
 ---------------------------------------------------------------------------
     1   7 N    3.050 --     2 C    1.967    72 H    0.935
     2   6 C    3.821 --     1 N    1.967     3 C    0.994    47 H    0.776
     3   6 C    3.965 --     2 C    0.994     4 C    0.966    14 C    0.956
                            31 C    0.936
     4   6 C    3.951 --    13 C    1.415     5 C    1.370     3 C    0.966
     5   6 C    3.963 --     6 C    1.401     4 C    1.370    34 H    0.958
     6   6 C    3.907 --     5 C    1.401     9 C    1.223     7 O    1.099
     7   8 O    2.255 --     6 C    1.099     8 C    0.978
     8   6 C    3.932 --     7 O    0.978    36 H    0.977    35 H    0.974
                            37 H    0.973
     9   6 C    3.902 --    12 C    1.392     6 C    1.223    10 O    1.100
    10   8 O    2.252 --     9 C    1.100    11 C    0.978
    11   6 C    3.932 --    10 O    0.978    39 H    0.977    40 H    0.974
                            38 H    0.974
    12   6 C    3.963 --    13 C    1.405     9 C    1.392    41 H    0.964
    13   6 C    3.954 --     4 C    1.415    12 C    1.405    42 H    0.962
    14   6 C    3.974 --    15 C    0.990    44 H    0.972    43 H    0.969
                             3 C    0.956
    15   6 C    3.982 --    16 C    1.040    14 C    0.990    45 H    0.964
                            46 H    0.943
    16   6 C    3.231 --    15 C    1.040    48 H    0.968    17 N    0.945
                            47 H    0.160
    17   7 N    3.722 --    30 C    0.976    16 C    0.945    51 H    0.914
                            18 C    0.836
    18   6 C    3.908 --    19 C    1.078    49 H    0.971    50 H    0.960
                            17 N    0.836
    19   6 C    3.540 --    20 C    1.388    18 C    1.078    52 H    0.969
    20   6 C    3.970 --    19 C    1.388    21 C    1.242    29 C    1.227
    21   6 C    3.820 --    22 C    1.488    20 C    1.242    53 H    0.965
    22   6 C    3.960 --    21 C    1.488    23 C    1.337    54 H    0.963
    23   6 C    3.782 --    22 C    1.337    26 C    1.181    24 O    1.124
    24   8 O    2.243 --    23 C    1.124    25 C    0.975
    25   6 C    3.928 --    57 H    0.977    24 O    0.975    55 H    0.972
                            56 H    0.972
    26   6 C    3.912 --    29 C    1.467    23 C    1.181    27 O    1.101
    27   8 O    2.257 --    26 C    1.101    28 C    0.978
    28   6 C    3.931 --    27 O    0.978    58 H    0.977    60 H    0.974
                            59 H    0.973
    29   6 C    3.871 --    26 C    1.467    20 C    1.227    61 H    0.962
    30   6 C    3.936 --    62 H    0.977    17 N    0.976    63 H    0.973
                            64 H    0.971
    31   6 C    3.964 --    33 C    1.010    32 C    1.009    65 H    0.958
                             3 C    0.936
    32   6 C    3.979 --    31 C    1.009    67 H    0.982    68 H    0.981
                            66 H    0.975
    33   6 C    3.985 --    31 C    1.010    70 H    0.983    71 H    0.980
                            69 H    0.978
    34   1 H    0.996 --     5 C    0.958
    35   1 H    0.993 --     8 C    0.974
    36   1 H    0.993 --     8 C    0.977
    37   1 H    0.994 --     8 C    0.973
    38   1 H    0.993 --    11 C    0.974
    39   1 H    0.993 --    11 C    0.977
    40   1 H    0.994 --    11 C    0.974
    41   1 H    0.996 --    12 C    0.964
    42   1 H    0.998 --    13 C    0.962
    43   1 H    0.996 --    14 C    0.969
    44   1 H    0.996 --    14 C    0.972
    45   1 H    0.996 --    15 C    0.964
    46   1 H    0.961 --    15 C    0.943
    47   1 H    0.975 --     2 C    0.776    16 C    0.160
    48   1 H    0.994 --    16 C    0.968
    49   1 H    0.992 --    18 C    0.971
    50   1 H    0.987 --    18 C    0.960
    51   1 H    0.941 --    17 N    0.914
    52   1 H    0.998 --    19 C    0.969
    53   1 H    0.999 --    21 C    0.965
    54   1 H    0.996 --    22 C    0.963
    55   1 H    0.990 --    25 C    0.972
    56   1 H    0.990 --    25 C    0.972
    57   1 H    0.992 --    25 C    0.977
    58   1 H    0.993 --    28 C    0.977
    59   1 H    0.993 --    28 C    0.973
    60   1 H    0.994 --    28 C    0.974
    61   1 H    0.996 --    29 C    0.962
    62   1 H    0.992 --    30 C    0.977
    63   1 H    0.991 --    30 C    0.973
    64   1 H    0.991 --    30 C    0.971
    65   1 H    0.991 --    31 C    0.958
    66   1 H    0.992 --    32 C    0.975
    67   1 H    0.997 --    32 C    0.982
    68   1 H    0.993 --    32 C    0.981
    69   1 H    0.994 --    33 C    0.978
    70   1 H    0.997 --    33 C    0.983
    71   1 H    0.994 --    33 C    0.980
    72   1 H    0.963 --     1 N    0.935
 ---------------------------------------------------------------------------

molecular dipole:
                 x           y           z       tot (Debye)
 q only:        0.786      -0.058      -0.799
   full:        1.207      -0.034      -1.106       4.163

           -------------------------------------------------
          | TOTAL ENERGY              -99.317138915928 Eh   |
          | GRADIENT NORM               0.009311650807 Eh/α |
          | HOMO-LUMO GAP               0.275375594826 eV   |
           -------------------------------------------------

 * finished run on 2024/04/06 at 11:13:43.233
