   * xtb version 6.6.1 (8d0f1dd) compiled by 'conda@1efc2f54142f' on 2023-08-01
          program call               : xtb struc.xyz --opt loose --input .xc1 --gfn2

   ID    Z sym.   atoms
    1    6 C      1, 3, 5-7, 10, 11, 14
    2    7 N      2, 4, 9, 13
    3    8 O      8, 12
    4    1 H      15-25
constraining bond 3 6 to    5.0000000 Å, actual value:    2.1783507 Å

          :  Hamiltonian                  GFN2-xTB          :
 * total energy  :   -28.0319788 Eh     change       -0.6650680E-10 Eh
 * total energy  :   -32.7665200 Eh     change       -0.4734541E+01 Eh
 * total energy  :   -36.0578718 Eh     change       -0.3291352E+01 Eh
 * total energy  :   -38.3760167 Eh     change       -0.2318145E+01 Eh
 * total energy  :   -40.2701500 Eh     change       -0.1894133E+01 Eh
 * total energy  :   -41.1918101 Eh     change       -0.9216601E+00 Eh
 * total energy  :   -41.4146868 Eh     change       -0.2228767E+00 Eh
 * total energy  :   -41.4962197 Eh     change       -0.8153291E-01 Eh
 * total energy  :   -41.5440749 Eh     change       -0.4785512E-01 Eh
 * total energy  :   -41.5930366 Eh     change       -0.4896173E-01 Eh
 * total energy  :   -42.1660536 Eh     change       -0.1676512E-03 Eh
 * total energy  :   -42.1661462 Eh     change       -0.9268817E-04 Eh
 * total energy  :   -42.1662636 Eh     change       -0.1173947E-03 Eh
 * total energy  :   -42.1663664 Eh     change       -0.1027199E-03 Eh
 * total energy  :   -42.1664982 Eh     change       -0.1318092E-03 Eh
 * total energy  :   -42.1665412 Eh     change       -0.4300883E-04 Eh
 * total energy  :   -42.1665629 Eh     change       -0.2177238E-04 Eh
 * total energy  :   -42.1666192 Eh     change       -0.5629993E-04 Eh
 * total energy  :   -42.1666371 Eh     change       -0.1784429E-04 Eh
   *** GEOMETRY OPTIMIZATION CONVERGED AFTER 135 ITERATIONS ***

 final structure:
================
25
 xtb: 6.6.1 (8d0f1dd)
C            3.12629943806602        0.19104578945983       -0.17334954194040
N            1.67569021061662        0.10878746828506        0.04713674383311
C            4.16360816961415       -0.81948673677036        0.41664258600029
N            0.95756706599179       -0.99815958433240       -0.02827897567877
C           -0.32341751618961       -0.64384472849260       -0.04658015859927
C           -0.54011254583774        0.76980405540703       -0.01926371194455
C            0.83267146081345        1.30714640967575        0.05483700221911
O            1.27216061499397        2.42367669252131        0.11086361545797
N           -1.85318579406444        1.00049261710236       -0.03234493968060
C           -2.56111848395927        2.24367332155441       -0.01063155129011
C           -2.51459264293083       -0.26182348835342       -0.08063545520080
O           -3.69723812544333       -0.41919990188207       -0.11003011654328
N           -1.52700401633498       -1.25602459128128       -0.08584819679773
C           -1.81320153687296       -2.66279101216785       -0.12480472854392
H            4.18105168725525       -0.75893081505397        1.50363527417447
H            3.26004632353736        0.15819285433569       -1.26673698250313
H            3.39051884510020        1.20363624996077        0.15638076950107
H            5.13416538636880       -0.53995181319858        0.02015975012046
H           -1.85506413526416        3.06644967849334        0.07959124264451
H           -3.14885967542405        2.35218142458921       -0.92618680720296
H           -3.26230277573481        2.25156499340615        0.82766513413192
H           -1.38626082304532       -3.15713619983342        0.74932560757267
H           -1.38016256509251       -3.11020899650792       -1.02131238083155
H           -2.89485993121469       -2.79069902706701       -0.13309599036917
H            3.92403287911832       -1.84015611820500        0.12403342938610

          :  Hamiltonian                  GFN2-xTB          :
         :: total energy             -42.166637091005 Eh    ::
         :: gradient norm              0.002486568669 Eh/a0 ::
         :: HOMO-LUMO gap              0.606240524890 eV    ::
         :: SCC energy               -42.655050371138 Eh    ::
         :: -> dispersion             -0.020743280460 Eh    ::
         :: repulsion energy           0.487944355318 Eh    ::

    * Orbital Energies and Occupations

         #    Occupation            Energy/Eh            Energy/eV
      -------------------------------------------------------------
         1        2.0000           -0.9093162             -24.7438
       ...           ...                  ...                  ...
        25        1.9997           -0.6777683             -18.4430
        26        1.9991           -0.6581927             -17.9103
        27        1.9977           -0.6440891             -17.5266
        28        1.9969           -0.6389639             -17.3871
        29        1.9958           -0.6342552             -17.2590
        30        1.9950           -0.6313501             -17.1799
        31        1.9933           -0.6269231             -17.0594
        32        1.9810           -0.6102306             -16.6052
        33        1.9756           -0.6062393             -16.4966
        34        1.9714           -0.6036888             -16.4272
        35        1.9445           -0.5929419             -16.1348
        36        1.8616           -0.5777934             -15.7226
        37        1.4743           -0.5529674             -15.0470 (HOMO)
        38        0.8142           -0.5306884             -14.4408 (LUMO)
        39        0.0004           -0.4032644             -10.9734
        40        0.0000           -0.3648800              -9.9289
        41        0.0000           -0.3411273              -9.2825
        42                         -0.2533453              -6.8939
        43                         -0.1986323              -5.4051
        44                         -0.1966968              -5.3524
        45                         -0.1144156              -3.1134
        46                         -0.0861789              -2.3450
        47                         -0.0654212              -1.7802
        48                         -0.0468774              -1.2756
       ...                                ...                  ...
        67                          0.5538445              15.0709
      -------------------------------------------------------------
                  HL-Gap            0.0222789 Eh            0.6062 eV

     #   Z          covCN         q      C6AA      α(0)
     1   6 C        3.727    -0.015    20.947     6.535
     2   7 N        2.949     0.057    20.245     6.683
     3   6 C        3.745    -0.118    22.842     6.818
     4   7 N        1.934    -0.131    24.613     7.356
     5   6 C        3.174     0.118    25.040     8.173
     6   6 C        3.066     0.009    27.760     8.640
     7   6 C        2.838     0.254    22.745     7.816
     8   8 O        0.856    -0.278    19.398     5.905
     9   7 N        2.789     0.014    21.004     6.807
    10   6 C        3.689    -0.070    22.036     6.719
    11   6 C        2.906     0.310    21.745     7.646
    12   8 O        0.857    -0.300    19.787     5.964
    13   7 N        2.785    -0.023    21.688     6.917
    14   6 C        3.689    -0.070    22.031     6.718
    15   1 H        0.925     0.097     1.808     2.103
    16   1 H        0.923     0.116     1.643     2.004
    17   1 H        0.924     0.118     1.627     1.995
    18   1 H        0.925     0.102     1.765     2.077
    19   1 H        0.925     0.115     1.654     2.011
    20   1 H        0.924     0.125     1.576     1.963
    21   1 H        0.924     0.125     1.574     1.962
    22   1 H        0.924     0.113     1.673     2.023
    23   1 H        0.924     0.113     1.674     2.023
    24   1 H        0.925     0.122     1.599     1.978
    25   1 H        0.925     0.098     1.807     2.102

Wiberg/Mayer (AO) data.
largest (>0.10) Wiberg bond orders for each atom

     #   Z sym  total        # sym  WBO       # sym  WBO       # sym  WBO
 ---------------------------------------------------------------------------
     1   6 C    3.878 --     3 C    0.997     2 N    0.975    17 H    0.944
                            16 H    0.908
     2   7 N    3.421 --     4 N    1.251     7 C    0.980     1 C    0.975
     3   6 C    3.894 --     1 C    0.997    18 H    0.961    25 H    0.960
                            15 H    0.953
     4   7 N    2.774 --     5 C    1.343     2 N    1.251
     5   6 C    3.860 --     4 N    1.343    13 N    1.200     6 C    1.159
     6   6 C    3.711 --     9 N    1.292     5 C    1.159     7 C    1.050
     7   6 C    3.854 --     8 O    1.740     6 C    1.050     2 N    0.980
     8   8 O    1.924 --     7 C    1.740
     9   7 N    3.497 --     6 C    1.292    11 C    1.014    10 C    1.001
    10   6 C    3.898 --     9 N    1.001    19 H    0.970    21 H    0.939
                            20 H    0.936
    11   6 C    3.919 --    12 O    1.731    13 N    1.079     9 N    1.014
    12   8 O    1.985 --    11 C    1.731    13 N    0.113
    13   7 N    3.494 --     5 C    1.200    11 C    1.079    14 C    0.988
                            12 O    0.113
    14   6 C    3.893 --    13 N    0.988    24 H    0.966    22 H    0.949
                            23 H    0.948
    15   1 H    0.961 --     3 C    0.953
    16   1 H    0.933 --     1 C    0.908
    17   1 H    0.970 --     1 C    0.944
    18   1 H    0.976 --     3 C    0.961
    19   1 H    0.984 --    10 C    0.970
    20   1 H    0.960 --    10 C    0.936
    21   1 H    0.963 --    10 C    0.939
    22   1 H    0.966 --    14 C    0.949
    23   1 H    0.965 --    14 C    0.948
    24   1 H    0.981 --    14 C    0.966
    25   1 H    0.968 --     3 C    0.960
 ---------------------------------------------------------------------------

molecular dipole:
                 x           y           z       tot (Debye)
 q only:        0.575      -0.628      -0.117
   full:        0.510      -0.474      -0.153       1.812

           -------------------------------------------------
          | TOTAL ENERGY              -42.166637091005 Eh   |
          | GRADIENT NORM               0.002486568669 Eh/α |
          | HOMO-LUMO GAP               0.606240524890 eV   |
           -------------------------------------------------

 * finished run on 2024/06/05 at 19:57:56.293
