   * xtb version 6.6.1 (8d0f1dd) compiled by 'conda@1efc2f54142f' on 2023-08-01
          program call               : xtb xtbopt.xyz --opt crude --input .xc2 --gfn2

   ID    Z sym.   atoms
    1    6 C      1, 3, 5-7, 10, 11, 14
    2    7 N      2, 4, 9, 13
    3    8 O      8, 12
    4    1 H      15-25

          :  Hamiltonian                  GFN2-xTB          :
 * total energy  :   -42.1937352 Eh     change       -0.2131628E-13 Eh
   *** GEOMETRY OPTIMIZATION CONVERGED AFTER 1 ITERATIONS ***

 final structure:
================
25
 xtb: 6.6.1 (8d0f1dd)
C            3.38031346606177        1.82678047407045        0.07647023455761
N            3.37136210610927        0.82382510287710       -0.66756588666005
C            1.52019655504692       -1.15680744392045        0.34066129443649
N            0.91293525545980       -2.37522600805215        0.20411671931873
C           -0.41828896845196       -2.23690381447135        0.03182925954854
C            0.52189980912304       -0.21785888240646        0.24367922898343
C            0.19238758411602        1.19845145781122        0.25066057846359
O            0.89639628779257        2.18034797094550        0.36528931841763
N           -1.19569196006143        1.22265186447166        0.07349561280800
C           -1.96827191017157        2.43873199576471        0.02339199223172
C           -1.76290004153290       -0.02513555101146       -0.04712833220413
O           -2.91091158383396       -0.33050052209880       -0.20443981753572
N           -0.66365544013956       -0.91399914992691        0.05848939480990
C           -1.41488376636172       -3.30321204821380       -0.13215680807559
H            3.33279112925963        1.68023541163326        1.14857590674594
H            3.43971653753523        0.94412442449933       -1.67339725215938
H            3.45640282982002        2.86472550199177       -0.25483428158370
H            2.57680329708753       -1.03086479330163        0.46042428794614
H           -1.27765227282784        3.27742376329750        0.09655270095851
H           -2.52517135426154        2.49008114831479       -0.91335528215383
H           -2.67852533888141        2.46883882855692        0.85146880350302
H           -1.34750936093332       -4.02586012865268        0.68196086106469
H           -1.25837625342128       -3.84668924492946       -1.06605632540099
H           -2.41380577167290       -2.87122101290550       -0.14605539721384
H            1.39487067924547       -3.26370080271396        0.22909480709336

          :  Hamiltonian                  GFN2-xTB          :
         :: total energy             -42.193735211349 Eh    ::
         :: gradient norm              0.004227729100 Eh/a0 ::
         :: HOMO-LUMO gap              1.981529639242 eV    ::
         :: SCC energy               -42.739125093438 Eh    ::
         :: -> dispersion             -0.021547868700 Eh    ::
         :: repulsion energy           0.545285613611 Eh    ::

    * Orbital Energies and Occupations

         #    Occupation            Energy/Eh            Energy/eV
      -------------------------------------------------------------
         1        2.0000           -0.8982176             -24.4417
       ...           ...                  ...                  ...
        25        1.9986           -0.6611312             -17.9903
        26        1.9979           -0.6513157             -17.7232
        27        1.9977           -0.6488374             -17.6558
        28        1.9954           -0.6329740             -17.2241
        29        1.9950           -0.6308784             -17.1671
        30        1.9940           -0.6263144             -17.0429
        31        1.9922           -0.6203116             -16.8795
        32        1.9896           -0.6132672             -16.6878
        33        1.9705           -0.5883773             -16.0106
        34        1.9621           -0.5822748             -15.8445
        35        1.9330           -0.5683993             -15.4669
        36        1.9253           -0.5657284             -15.3943
        37        1.7149           -0.5311655             -14.4537 (HOMO)
        38        0.4380           -0.4583457             -12.4722 (LUMO)
        39        0.0675           -0.4088672             -11.1258
        40        0.0288           -0.3881911             -10.5632
        41        0.0035           -0.3375450              -9.1851
        42        0.0012           -0.3114711              -8.4756
        43        0.0000           -0.1975544              -5.3757
        44        0.0000           -0.1418709              -3.8605
        45        0.0000           -0.1334118              -3.6303
        46                         -0.0881543              -2.3988
        47                         -0.0521882              -1.4201
        48                         -0.0374409              -1.0188
       ...                                ...                  ...
        67                          0.5911365              16.0856
      -------------------------------------------------------------
                  HL-Gap            0.0728199 Eh            1.9815 eV

     #   Z          covCN         q      C6AA      α(0)
     1   6 C        2.760     0.063    26.578     8.442
     2   7 N        1.770    -0.218    26.563     7.632
     3   6 C        2.981     0.009    27.804     8.649
     4   7 N        2.833    -0.042    22.047     6.974
     5   6 C        3.001     0.134    25.068     8.213
     6   6 C        3.147     0.007    27.600     8.594
     7   6 C        2.818     0.263    22.572     7.784
     8   8 O        0.857    -0.354    20.784     6.112
     9   7 N        2.815    -0.069    22.567     7.056
    10   6 C        3.691    -0.058    21.815     6.684
    11   6 C        2.770     0.316    21.642     7.619
    12   8 O        0.857    -0.334    20.402     6.056
    13   7 N        2.935    -0.023    21.685     6.916
    14   6 C        3.754    -0.144    23.328     6.887
    15   1 H        0.925     0.114     1.661     2.016
    16   1 H        0.860     0.194     1.139     1.672
    17   1 H        0.924     0.106     1.733     2.058
    18   1 H        0.926     0.132     1.519     1.927
    19   1 H        0.925     0.113     1.667     2.019
    20   1 H        0.924     0.104     1.752     2.070
    21   1 H        0.924     0.104     1.748     2.068
    22   1 H        0.924     0.114     1.666     2.018
    23   1 H        0.924     0.117     1.638     2.002
    24   1 H        0.925     0.124     1.578     1.964
    25   1 H        0.860     0.228     0.972     1.545

Wiberg/Mayer (AO) data.
largest (>0.10) Wiberg bond orders for each atom

     #   Z sym  total        # sym  WBO       # sym  WBO       # sym  WBO
 ---------------------------------------------------------------------------
     1   6 C    3.843 --     2 N    1.976    15 H    0.932    17 H    0.905
     2   7 N    2.932 --     1 C    1.976    16 H    0.917
     3   6 C    3.812 --     6 C    1.479     4 N    1.220    18 H    0.948
     4   7 N    3.593 --     5 C    1.287     3 C    1.220    25 H    0.920
     5   6 C    3.773 --     4 N    1.287    13 N    1.251    14 C    1.060
     6   6 C    3.834 --     3 C    1.479    13 N    1.105     7 C    1.055
     7   6 C    3.853 --     8 O    1.645     9 N    1.084     6 C    1.055
     8   8 O    1.925 --     7 C    1.645     9 N    0.114
     9   7 N    3.513 --    11 C    1.130     7 C    1.084    10 C    0.985
                            12 O    0.129     8 O    0.114
    10   6 C    3.893 --     9 N    0.985    19 H    0.963    20 H    0.954
                            21 H    0.952
    11   6 C    3.871 --    12 O    1.696     9 N    1.130    13 N    0.979
    12   8 O    1.977 --    11 C    1.696     9 N    0.129
    13   7 N    3.601 --     5 C    1.251     6 C    1.105    11 C    0.979
    14   6 C    3.952 --     5 C    1.060    24 H    0.961    22 H    0.941
                            23 H    0.933
    15   1 H    0.954 --     1 C    0.932
    16   1 H    0.938 --     2 N    0.917
    17   1 H    0.918 --     1 C    0.905
    18   1 H    0.981 --     3 C    0.948
    19   1 H    0.979 --    10 C    0.963
    20   1 H    0.971 --    10 C    0.954
    21   1 H    0.970 --    10 C    0.952
    22   1 H    0.974 --    14 C    0.941
    23   1 H    0.971 --    14 C    0.933
    24   1 H    0.981 --    14 C    0.961
    25   1 H    0.947 --     4 N    0.920
 ---------------------------------------------------------------------------

molecular dipole:
                 x           y           z       tot (Debye)
 q only:        1.414      -1.783      -0.028
   full:        1.590      -1.774      -0.120       6.063

           -------------------------------------------------
          | TOTAL ENERGY              -42.193735211349 Eh   |
          | GRADIENT NORM               0.004227729100 Eh/α |
          | HOMO-LUMO GAP               1.981529639242 eV   |
           -------------------------------------------------

 * finished run on 2024/06/05 at 19:58:42.633
