   * xtb version 6.6.1 (8d0f1dd) compiled by 'conda@1efc2f54142f' on 2023-08-01
          program call               : xtb xtbopt.xyz --opt crude --input .xc2 --gfn2

   ID    Z sym.   atoms
    1    6 C      1, 3, 5-7, 10, 11, 14
    2    7 N      2, 4, 9, 13
    3    8 O      8, 12
    4    1 H      15-25
########################################################################
[WARNING] Please study the warnings concerning your input carefully
-1- readin_getIntValue: could not parse ''
########################################################################

          :  Hamiltonian                  GFN2-xTB          :
 * total energy  :   -42.1582631 Eh     change       -0.7744916E-12 Eh
 * total energy  :   -42.1600601 Eh     change       -0.1796905E-02 Eh
 * total energy  :   -42.1607467 Eh     change       -0.6866566E-03 Eh
 * total energy  :   -42.1611506 Eh     change       -0.4039105E-03 Eh
   *** GEOMETRY OPTIMIZATION CONVERGED AFTER 4 ITERATIONS ***

 final structure:
================
25
 xtb: 6.6.1 (8d0f1dd)
C            3.39976205672614        0.87820927305699        0.30566162503868
N            2.38817945540612       -0.12484259822823        0.12166019176004
C            2.57422020725359       -1.43519267219336        0.00121581802522
N            1.37746062090913       -2.06312477602309       -0.12519979021958
C            0.40425438047820       -1.11639316339930       -0.07753203019400
C            1.03345211881563        0.12439383467085        0.07796475170849
C            0.30956743824201        1.32115030953228        0.18902106352668
O           -2.77052808136570        2.52083773813950       -0.66541866588055
N           -1.01234333534995        1.13605344151031        0.14782641423142
C           -1.86134950165960        2.33917835486319        0.34579990869272
C           -1.72232714097136       -0.06671787713153        0.00994166561861
O           -2.91391221035375       -0.13839564816333        0.02240708617425
N           -0.92859576564686       -1.23176919832443       -0.14285278914911
C           -1.59011268979742       -2.51237574722638       -0.29600137177146
H            3.83767043932224        0.79924111103122        1.30192107218274
H            4.19012587092337        0.76337767329230       -0.43519343111842
H            2.93278246292424        1.85525734903419        0.20014484379378
H            3.52306573773324       -1.93292616386470        0.00668110701658
H           -2.36308561063266        2.88110886301203       -1.46648983339618
H           -2.43753491043776        2.18966605961532        1.26980902695957
H           -1.15518096239907        3.16933528735060        0.47037126561780
H           -1.37607752085062       -3.15751346532255        0.55700309626162
H           -1.27226938225254       -2.99450500436319       -1.22078507534707
H           -2.66240990018499       -2.32486670645785       -0.33951696423440
H            1.25561773726061       -3.06094773281503       -0.22726736739643

          :  Hamiltonian                  GFN2-xTB          :
         :: total energy             -42.161150619143 Eh    ::
         :: gradient norm              0.006528051308 Eh/a0 ::
         :: HOMO-LUMO gap              1.750960857648 eV    ::
         :: SCC energy               -42.668591568997 Eh    ::
         :: -> dispersion             -0.022214821791 Eh    ::
         :: repulsion energy           0.507343536061 Eh    ::

    * Orbital Energies and Occupations

         #    Occupation            Energy/Eh            Energy/eV
      -------------------------------------------------------------
         1        2.0000           -0.9037226             -24.5915
       ...           ...                  ...                  ...
        25        2.0000           -0.6668580             -18.1461
        26        2.0000           -0.6589629             -17.9313
        27        2.0000           -0.6529488             -17.7676
        28        1.9999           -0.6329535             -17.2235
        29        1.9999           -0.6280179             -17.0892
        30        1.9998           -0.6216306             -16.9154
        31        1.9998           -0.6172493             -16.7962
        32        1.9993           -0.6006725             -16.3451
        33        1.9976           -0.5808469             -15.8056
        34        1.9969           -0.5768079             -15.6957
        35        1.9872           -0.5542762             -15.0826
        36        1.9855           -0.5523354             -15.0298
        37        1.7725           -0.5069236             -13.7941 (HOMO)
        38        0.2361           -0.4425770             -12.0431 (LUMO)
        39        0.0229           -0.4038510             -10.9893
        40        0.0027           -0.3695438             -10.0558
        41        0.0000           -0.2838528              -7.7240
        42                         -0.2003587              -5.4520
        43                         -0.1906871              -5.1889
        44                         -0.1348835              -3.6704
        45                         -0.1221179              -3.3230
        46                         -0.0722933              -1.9672
        47                         -0.0453603              -1.2343
        48                         -0.0385034              -1.0477
       ...                                ...                  ...
        67                          0.5538516              15.0711
      -------------------------------------------------------------
                  HL-Gap            0.0643466 Eh            1.7510 eV

     #   Z          covCN         q      C6AA      α(0)
     1   6 C        3.692    -0.090    22.405     6.773
     2   7 N        2.828     0.067    20.068     6.653
     3   6 C        3.050     0.050    26.837     8.496
     4   7 N        2.783    -0.064    22.473     7.041
     5   6 C        3.046     0.115    25.420     8.269
     6   6 C        3.120     0.021    27.361     8.567
     7   6 C        1.921    -0.122    34.523     9.489
     8   8 O        1.657    -0.380    20.461     6.106
     9   7 N        2.759    -0.039    21.996     6.966
    10   6 C        3.631     0.132    18.799     6.242
    11   6 C        2.720     0.318    21.602     7.609
    12   8 O        0.859    -0.337    20.455     6.064
    13   7 N        2.738    -0.051    22.233     7.003
    14   6 C        3.696    -0.070    22.012     6.711
    15   1 H        0.924     0.106     1.730     2.057
    16   1 H        0.925     0.103     1.753     2.071
    17   1 H        0.925     0.122     1.601     1.979
    18   1 H        0.926     0.117     1.638     2.001
    19   1 H        0.804     0.316     0.674     1.290
    20   1 H        0.923     0.099     1.798     2.097
    21   1 H        0.924     0.076     2.019     2.222
    22   1 H        0.924     0.081     1.972     2.196
    23   1 H        0.924     0.081     1.972     2.196
    24   1 H        0.925     0.125     1.575     1.962
    25   1 H        0.860     0.224     0.994     1.561

Wiberg/Mayer (AO) data.
largest (>0.10) Wiberg bond orders for each atom

     #   Z sym  total        # sym  WBO       # sym  WBO       # sym  WBO
 ---------------------------------------------------------------------------
     1   6 C    3.925 --     2 N    0.989    17 H    0.969    16 H    0.965
                            15 H    0.957
     2   7 N    3.644 --     3 C    1.387     6 C    1.133     1 C    0.989
     3   6 C    3.806 --     2 N    1.387     4 N    1.254    18 H    0.955
     4   7 N    3.584 --     3 C    1.254     5 C    1.202    25 H    0.920
     5   6 C    3.907 --     6 C    1.278    13 N    1.236     4 N    1.202
     6   6 C    3.896 --     5 C    1.278     7 C    1.240     2 N    1.133
     7   6 C    2.784 --     9 N    1.358     6 C    1.240
     8   8 O    2.025 --    10 C    1.059    19 H    0.884
     9   7 N    3.591 --     7 C    1.358    11 C    1.065    10 C    0.916
                            12 O    0.116
    10   6 C    3.918 --     8 O    1.059    21 H    0.957    20 H    0.948
                             9 N    0.916
    11   6 C    3.938 --    12 O    1.743     9 N    1.065    13 N    1.033
    12   8 O    2.079 --    11 C    1.743    13 N    0.133     9 N    0.116
    13   7 N    3.557 --     5 C    1.236    11 C    1.033    14 C    0.975
                            12 O    0.133
    14   6 C    3.927 --    13 N    0.975    23 H    0.971    22 H    0.970
                            24 H    0.965
    15   1 H    0.984 --     1 C    0.957
    16   1 H    0.986 --     1 C    0.965
    17   1 H    0.985 --     1 C    0.969
    18   1 H    0.985 --     3 C    0.955
    19   1 H    0.899 --     8 O    0.884
    20   1 H    0.985 --    10 C    0.948
    21   1 H    0.990 --    10 C    0.957
    22   1 H    0.991 --    14 C    0.970
    23   1 H    0.991 --    14 C    0.971
    24   1 H    0.984 --    14 C    0.965
    25   1 H    0.949 --     4 N    0.920
 ---------------------------------------------------------------------------

molecular dipole:
                 x           y           z       tot (Debye)
 q only:        3.086      -1.289      -0.106
   full:        3.421      -2.025      -0.234      10.123

           -------------------------------------------------
          | TOTAL ENERGY              -42.161150619143 Eh   |
          | GRADIENT NORM               0.006528051308 Eh/α |
          | HOMO-LUMO GAP               1.750960857648 eV   |
           -------------------------------------------------

 * finished run on 2024/06/05 at 20:00:15.036
