   * xtb version 6.6.1 (8d0f1dd) compiled by 'conda@1efc2f54142f' on 2023-08-01
          program call               : xtb xtbopt.xyz --opt crude --input .xc2 --gfn2

   ID    Z sym.   atoms
    1    7 N      1, 17
    2    6 C      2-6, 8, 9, 11-16, 18-23, 25, 26, 28-33
    3    8 O      7, 10, 24, 27
    4    1 H      34-72

          :  Hamiltonian                  GFN2-xTB          :
 * total energy  :   -99.2618461 Eh     change       -0.1353442E-09 Eh
   *** GEOMETRY OPTIMIZATION CONVERGED AFTER 1 ITERATIONS ***

 final structure:
================
72
 xtb: 6.6.1 (8d0f1dd)
N           -1.93391577189496        3.17557272456919        1.97980386577326
C           -1.77248543238807        2.37066284984479        1.03691601387301
C           -2.87368140824399        2.08728466141057        0.03493313886748
C           -3.39725509147759        0.67001520077385        0.20060505770335
C           -4.40929579032376        0.22493541770826       -0.65272911368087
C           -4.93995212993466       -1.04791458677077       -0.53710052728559
O           -5.92852299878301       -1.55785242705309       -1.30178850732813
C           -6.55554054978935       -0.73148182991596       -2.25402614038308
C           -4.43557284743339       -1.92649585583885        0.45940242697150
O           -5.00418496223192       -3.15045138799581        0.49051276468699
C           -4.58697406499846       -4.07172248519765        1.47126650336956
C           -3.43562284674018       -1.47512511544905        1.30424433447168
C           -2.92575893884999       -0.18751922582196        1.17834507325001
C           -2.24598254347603        2.27153551992764       -1.38544533368943
C           -1.32211378759269        1.12572856701924       -1.82864458642238
C           -0.01604006167604        1.10157052411741       -1.13374734636318
N            0.57845506823094        0.01518757566871       -0.64580929250071
C            1.95593278140984        0.07329043701258       -0.21789352362277
C            2.91869352122096       -0.39530670767420       -1.32723656440443
C            4.34273579195292       -0.18630297169504       -0.89480952508416
C            4.97679112474028        1.02323029617444       -1.12525972098040
C            6.28141371631666        1.23313521639543       -0.70553690315315
C            6.97736488118931        0.23512078533631       -0.03985447939033
O            8.24345126884772        0.32595905632527        0.41103783714944
C            8.96139747982576        1.52038624806859        0.20463237259044
C            6.33415173480045       -1.00915478123560        0.20421515796568
O            7.08460968070415       -1.92313819154035        0.85305160222583
C            6.54700948272989       -3.19779352342435        1.11106619908272
C            5.02942191033172       -1.19539936316628       -0.22335179473131
C           -0.05586622748540       -1.28062418679593       -0.66997017608122
C           -3.99465602292361        3.05554998958101        0.19346325141708
C           -5.74762149499766        0.84659380641929        2.83983141484767
C           -3.83463179827266        4.50596027794708        0.02275431750990
H           -4.78965693415696        0.89814482353897       -1.40387634152959
H           -6.99467858996182        0.15549664809848       -1.78736478572053
H           -7.34697052400816       -1.33752461249649       -2.69046512804317
H           -5.85989217611804       -0.42546346739358       -3.04176707314603
H           -4.77134796560348       -3.69343199839550        2.48134802010453
H           -5.18516107464071       -4.96562861671155        1.30678561402957
H           -3.52682195939528       -4.32081319880203        1.36036139039146
H           -3.05268124375537       -2.11261715473594        2.08415786767099
H           -2.17002821744978        0.14041229283861        1.87521586192430
H           -3.05999719210145        2.34306014903908       -2.10644689596464
H           -1.70135378941969        3.21609680883457       -1.40620008743941
H           -1.84896373131859        0.17823228782155       -1.72974654744717
H           -1.12253375432592        1.28525979170604       -2.89677882615928
H           -0.83778663671108        1.82828343144597        0.81637272733842
H            0.56254892535653        2.01287622855076       -1.12175045191652
H            2.08431345546331       -0.55552273412064        0.66651540730975
H            2.20655236664809        1.10074823031772        0.05429919466285
H            2.71688592989084        0.18443539088345       -2.22997966556168
H            2.74018367292525       -1.44884755944869       -1.54570561280152
H            4.46008146137510        1.81312972304635       -1.64932542631324
H            6.75094473688015        2.18160198479265       -0.90847931874529
H            8.47673427113130        2.36957289952886        0.69604410865722
H            9.08364984960150        1.73550800130121       -0.86121652011143
H            9.93888420050679        1.35420531971485        0.65326296928933
H            7.33600451728694       -3.75012988526027        1.61779555244967
H            5.67049799926461       -3.13959937410517        1.76454553096456
H            6.28026994962411       -3.71617114919434        0.18472975593273
H            4.53506845567108       -2.13845951259556       -0.04974893772542
H           -0.16063461932895       -1.65389542691133       -1.69167097116324
H           -1.04679673746111       -1.22768009063656       -0.21236530705919
H            0.54907346102457       -1.98476518651558       -0.10442798599744
H           -4.97584873338182        2.66663692547536        0.41260890465572
H           -4.88922041848100        0.84136912498628        3.47476364870993
H           -6.08719828892888       -0.05762761981680        2.38609282491542
H           -6.29635085180893        1.75196820436658        2.70587596218027
H           -2.79726640782385        4.81429595144150        0.13406615927610
H           -4.18074541386341        4.82316360585551       -0.97138633619997
H           -4.45021996924955        5.04070837270116        0.74754463333427
H           -1.14877609914530        3.33167439862311        2.60470313118164

          :  Hamiltonian                  GFN2-xTB          :
         :: total energy             -99.261846126145 Eh    ::
         :: gradient norm              0.003638811900 Eh/a0 ::
         :: HOMO-LUMO gap              0.116302480792 eV    ::
         :: SCC energy              -100.645758364553 Eh    ::
         :: -> dispersion             -0.073975006052 Eh    ::
         :: repulsion energy           1.382615472266 Eh    ::

    * Orbital Energies and Occupations

         #    Occupation            Energy/Eh            Energy/eV
      -------------------------------------------------------------
         1        2.0000           -0.8059604             -21.9313
       ...           ...                  ...                  ...
        78        1.9993           -0.5355159             -14.5721
        79        1.9990           -0.5298881             -14.4190
        80        1.9989           -0.5276933             -14.3593
        81        1.9987           -0.5252494             -14.2928
        82        1.9985           -0.5238746             -14.2554
        83        1.9980           -0.5191580             -14.1270
        84        1.9975           -0.5153251             -14.0227
        85        1.9870           -0.4891290             -13.3099
        86        1.9815           -0.4834550             -13.1555
        87        1.9692           -0.4753366             -12.9346
        88        1.9104           -0.4579320             -12.4610
        89        1.8647           -0.4510227             -12.2730
        90        0.9735           -0.4086475             -11.1199 (HOMO)
        91        0.8399           -0.4043734             -11.0036 (LUMO)
        92        0.4510           -0.3899489             -10.6111
        93        0.0229           -0.3388966              -9.2218
        94        0.0050           -0.3147209              -8.5640
        95        0.0041           -0.3116577              -8.4806
        96        0.0031           -0.3072439              -8.3605
        97        0.0027           -0.3049095              -8.2970
        98        0.0000           -0.1887128              -5.1351
        99        0.0000           -0.1822450              -4.9591
       100                         -0.1303171              -3.5461
       101                         -0.0619588              -1.6860
       ...                                ...                  ...
       171                          0.5820744              15.8391
      -------------------------------------------------------------
                  HL-Gap            0.0042740 Eh            0.1163 eV

     #   Z          covCN         q      C6AA      α(0)
     1   7 N        1.775    -0.280    28.085     7.848
     2   6 C        2.825     0.097    25.842     8.330
     3   6 C        3.911     0.015    20.261     6.398
     4   6 C        2.976    -0.003    28.106     8.696
     5   6 C        2.921    -0.081    30.022     8.985
     6   6 C        2.863     0.130    25.161     8.222
     7   8 O        1.706    -0.232    17.854     5.705
     8   6 C        3.645     0.028    20.438     6.498
     9   6 C        2.864     0.128    25.196     8.228
    10   8 O        1.706    -0.232    17.853     5.705
    11   6 C        3.645     0.028    20.442     6.498
    12   6 C        2.914    -0.075    29.865     8.961
    13   6 C        2.921    -0.053    29.323     8.880
    14   6 C        3.810    -0.062    21.681     6.628
    15   6 C        3.802    -0.067    21.782     6.645
    16   6 C        2.843    -0.001    28.045     8.679
    17   7 N        2.729     0.007    21.131     6.827
    18   6 C        3.756    -0.016    20.912     6.520
    19   6 C        3.808    -0.070    21.833     6.652
    20   6 C        2.969    -0.001    28.060     8.689
    21   6 C        2.922    -0.050    29.239     8.867
    22   6 C        2.914    -0.068    29.700     8.937
    23   6 C        2.865     0.132    25.103     8.213
    24   8 O        1.706    -0.225    17.732     5.685
    25   6 C        3.645     0.026    20.470     6.502
    26   6 C        2.863     0.132    25.107     8.213
    27   8 O        1.706    -0.227    17.772     5.692
    28   6 C        3.645     0.028    20.438     6.498
    29   6 C        2.919    -0.080    29.996     8.981
    30   6 C        3.699    -0.070    22.012     6.710
    31   6 C        2.900    -0.027    28.685     8.782
    32   6 C        2.780    -0.144    31.680     9.219
    33   6 C        3.752    -0.110    22.663     6.789
    34   1 H        0.926     0.050     2.325     2.384
    35   1 H        0.924     0.051     2.305     2.374
    36   1 H        0.925     0.080     1.975     2.198
    37   1 H        0.924     0.047     2.362     2.404
    38   1 H        0.924     0.053     2.279     2.361
    39   1 H        0.925     0.080     1.979     2.200
    40   1 H        0.924     0.046     2.365     2.405
    41   1 H        0.926     0.051     2.304     2.374
    42   1 H        0.926     0.036     2.508     2.477
    43   1 H        0.925     0.059     2.213     2.327
    44   1 H        0.924     0.055     2.263     2.352
    45   1 H        0.925     0.066     2.125     2.280
    46   1 H        0.923     0.079     1.992     2.207
    47   1 H        0.923     0.008     2.916     2.671
    48   1 H        0.926     0.065     2.141     2.288
    49   1 H        0.924     0.066     2.128     2.281
    50   1 H        0.924     0.066     2.128     2.281
    51   1 H        0.924     0.053     2.279     2.361
    52   1 H        0.924     0.054     2.267     2.354
    53   1 H        0.926     0.043     2.414     2.430
    54   1 H        0.926     0.057     2.240     2.340
    55   1 H        0.924     0.052     2.290     2.366
    56   1 H        0.924     0.054     2.266     2.354
    57   1 H        0.925     0.081     1.970     2.195
    58   1 H        0.925     0.080     1.974     2.197
    59   1 H        0.924     0.047     2.353     2.399
    60   1 H        0.924     0.051     2.304     2.374
    61   1 H        0.926     0.046     2.369     2.407
    62   1 H        0.924     0.074     2.045     2.236
    63   1 H        0.924     0.079     1.986     2.204
    64   1 H        0.925     0.078     1.998     2.211
    65   1 H        0.926     0.057     2.234     2.337
    66   1 H        0.927     0.058     2.222     2.331
    67   1 H        0.927     0.054     2.266     2.354
    68   1 H        0.927     0.061     2.182     2.310
    69   1 H        0.925     0.064     2.147     2.292
    70   1 H        0.923     0.079     1.986     2.204
    71   1 H        0.924     0.082     1.955     2.187
    72   1 H        0.860     0.159     1.343     1.816

Wiberg/Mayer (AO) data.
largest (>0.10) Wiberg bond orders for each atom

     #   Z sym  total        # sym  WBO       # sym  WBO       # sym  WBO
 ---------------------------------------------------------------------------
     1   7 N    3.018 --     2 C    1.960    72 H    0.943
     2   6 C    3.898 --     1 N    1.960     3 C    0.961    47 H    0.912
     3   6 C    3.984 --    31 C    1.032     4 C    0.968     2 C    0.961
                            14 C    0.921
     4   6 C    3.957 --    13 C    1.426     5 C    1.366     3 C    0.968
     5   6 C    3.966 --     6 C    1.406     4 C    1.366    34 H    0.960
     6   6 C    3.914 --     5 C    1.406     9 C    1.225     7 O    1.097
     7   8 O    2.258 --     6 C    1.097     8 C    0.979
     8   6 C    3.934 --     7 O    0.979    36 H    0.977    35 H    0.974
                            37 H    0.974
     9   6 C    3.912 --    12 C    1.399     6 C    1.225    10 O    1.097
    10   8 O    2.256 --     9 C    1.097    11 C    0.978
    11   6 C    3.933 --    10 O    0.978    39 H    0.977    40 H    0.975
                            38 H    0.974
    12   6 C    3.967 --     9 C    1.399    13 C    1.395    41 H    0.964
    13   6 C    3.963 --     4 C    1.426    12 C    1.395    42 H    0.963
    14   6 C    3.937 --    15 C    0.983    44 H    0.974    43 H    0.972
                             3 C    0.921
    15   6 C    3.985 --    16 C    1.059    14 C    0.983    45 H    0.962
                            46 H    0.927
    16   6 C    3.549 --    17 N    1.385    15 C    1.059    48 H    0.959
    17   7 N    3.454 --    16 C    1.385    30 C    0.999    18 C    0.989
    18   6 C    3.956 --    17 N    0.989    50 H    0.968    19 C    0.965
                            49 H    0.965
    19   6 C    3.975 --    20 C    1.008    52 H    0.972    51 H    0.972
                            18 C    0.965
    20   6 C    3.949 --    21 C    1.412    29 C    1.378    19 C    1.008
    21   6 C    3.954 --    22 C    1.415    20 C    1.412    53 H    0.968
    22   6 C    3.962 --    21 C    1.415    23 C    1.386    54 H    0.963
    23   6 C    3.900 --    22 C    1.386    26 C    1.223    24 O    1.106
    24   8 O    2.255 --    23 C    1.106    25 C    0.977
    25   6 C    3.930 --    57 H    0.977    24 O    0.977    55 H    0.973
                            56 H    0.973
    26   6 C    3.903 --    29 C    1.398    23 C    1.223    27 O    1.100
    27   8 O    2.254 --    26 C    1.100    28 C    0.979
    28   6 C    3.934 --    27 O    0.979    58 H    0.977    59 H    0.974
                            60 H    0.974
    29   6 C    3.961 --    26 C    1.398    20 C    1.378    61 H    0.963
    30   6 C    3.958 --    17 N    0.999    64 H    0.978    62 H    0.966
                            63 H    0.960
    31   6 C    3.191 --    33 C    1.108     3 C    1.032    65 H    0.969
    32   6 C    2.986 --    66 H    0.994    67 H    0.994    68 H    0.994
    33   6 C    3.974 --    31 C    1.108    69 H    0.972    71 H    0.951
                            70 H    0.919
    34   1 H    0.996 --     5 C    0.960
    35   1 H    0.995 --     8 C    0.974
    36   1 H    0.993 --     8 C    0.977
    37   1 H    0.995 --     8 C    0.974
    38   1 H    0.994 --    11 C    0.974
    39   1 H    0.993 --    11 C    0.977
    40   1 H    0.995 --    11 C    0.975
    41   1 H    0.996 --    12 C    0.964
    42   1 H    0.998 --    13 C    0.963
    43   1 H    0.995 --    14 C    0.972
    44   1 H    0.996 --    14 C    0.974
    45   1 H    0.995 --    15 C    0.962
    46   1 H    0.966 --    15 C    0.927
    47   1 H    0.989 --     2 C    0.912
    48   1 H    0.995 --    16 C    0.959
    49   1 H    0.991 --    18 C    0.965
    50   1 H    0.994 --    18 C    0.968
    51   1 H    0.996 --    19 C    0.972
    52   1 H    0.996 --    19 C    0.972
    53   1 H    0.998 --    21 C    0.968
    54   1 H    0.995 --    22 C    0.963
    55   1 H    0.993 --    25 C    0.973
    56   1 H    0.992 --    25 C    0.973
    57   1 H    0.993 --    25 C    0.977
    58   1 H    0.993 --    28 C    0.977
    59   1 H    0.994 --    28 C    0.974
    60   1 H    0.993 --    28 C    0.974
    61   1 H    0.997 --    29 C    0.963
    62   1 H    0.984 --    30 C    0.966
    63   1 H    0.987 --    30 C    0.960
    64   1 H    0.994 --    30 C    0.978
    65   1 H    0.996 --    31 C    0.969
    66   1 H    0.996 --    32 C    0.994
    67   1 H    0.997 --    32 C    0.994
    68   1 H    0.996 --    32 C    0.994
    69   1 H    0.989 --    33 C    0.972
    70   1 H    0.938 --    33 C    0.919
    71   1 H    0.968 --    33 C    0.951
    72   1 H    0.971 --     1 N    0.943
 ---------------------------------------------------------------------------

molecular dipole:
                 x           y           z       tot (Debye)
 q only:        0.037       0.652      -0.892
   full:        0.315       0.627      -0.977       3.057

           -------------------------------------------------
          | TOTAL ENERGY              -99.261846126145 Eh   |
          | GRADIENT NORM               0.003638811900 Eh/α |
          | HOMO-LUMO GAP               0.116302480792 eV   |
           -------------------------------------------------

 * finished run on 2024/04/06 at 11:14:55.487
