   * xtb version 6.6.1 (8d0f1dd) compiled by 'conda@1efc2f54142f' on 2023-08-01
          program call               : xtb struc.xyz --opt loose --input .xc1 --gfn2

   ID    Z sym.   atoms
    1    7 N      1, 17
    2    6 C      2-6, 8, 9, 11-16, 18-23, 25, 26, 28-33
    3    8 O      7, 10, 24, 27
    4    1 H      34-72
constraining bond 5 45 to    5.7133300 Å, actual value:    2.7000212 Å

          :  Hamiltonian                  GFN2-xTB          :
 * total energy  :  -101.0253994 Eh     change       -0.4035485E-08 Eh
 * total energy  :  -101.8377538 Eh     change       -0.8123543E+00 Eh
 * total energy  :  -102.7619474 Eh     change       -0.9241937E+00 Eh
 * total energy  :  -103.2696923 Eh     change       -0.5077449E+00 Eh
 * total energy  :  -103.2795993 Eh     change       -0.9906969E-02 Eh
 * total energy  :  -103.4304889 Eh     change       -0.1508896E+00 Eh
 * total energy  :  -103.3907319 Eh     change        0.3975708E-01 Eh
 * total energy  :  -103.5118153 Eh     change       -0.1210834E+00 Eh
 * total energy  :  -103.5301961 Eh     change       -0.1838084E-01 Eh
 * total energy  :  -103.5511299 Eh     change       -0.2093377E-01 Eh
 * total energy  :  -103.6334727 Eh     change       -0.7652671E-04 Eh
 * total energy  :  -103.6335744 Eh     change       -0.1017745E-03 Eh
 * total energy  :  -103.6336569 Eh     change       -0.8251870E-04 Eh
 * total energy  :  -103.6337361 Eh     change       -0.7920152E-04 Eh
 * total energy  :  -103.6337795 Eh     change       -0.4335011E-04 Eh
 * total energy  :  -103.6338086 Eh     change       -0.2914222E-04 Eh
 * total energy  :  -103.6338424 Eh     change       -0.3377535E-04 Eh
 * total energy  :  -103.6338655 Eh     change       -0.2312352E-04 Eh
 * total energy  :  -103.6339108 Eh     change       -0.4525098E-04 Eh
   *** GEOMETRY OPTIMIZATION CONVERGED AFTER 48 ITERATIONS ***

 final structure:
================
72
 xtb: 6.6.1 (8d0f1dd)
N           -2.36016228815486        2.96829743380189        2.51823672581230
C           -2.16615234294209        2.14184589219357        1.59976963953612
C           -3.11909106885694        1.93015014604353        0.45135409972560
C           -3.71620399532539        0.54376402479183        0.54417918606855
C           -4.63205623094570        0.13714125084552       -0.59329141302601
C           -4.99665048865618       -1.32701449418499       -0.55089364095530
O           -5.69585980944140       -1.87551304604269       -1.55111648909813
C           -6.12307864516731       -1.07875382347288       -2.63359738630939
C           -4.68401718914292       -2.15203075878457        0.53178322943794
O           -5.12286097236573       -3.42893091179577        0.43739921296257
C           -4.86544063988941       -4.31712357867875        1.50140345940865
C           -3.95241407689543       -1.62952365799614        1.59767269735171
C           -3.46923100002649       -0.30978478758038        1.57005037343679
C           -2.23307508577189        1.99936984244888       -0.84162532865072
C           -1.35735702967618        0.80018271881771       -0.98821612022691
C           -0.05018146211936        0.81727337119590       -0.67368833896872
N            0.79440481920321       -0.24387375727455       -0.67084689901164
C            2.18463771876825       -0.09039776147996       -0.34000238781349
C            3.11750739550274       -0.17778248623567       -1.56622486774598
C            4.54011386802963       -0.00351811349456       -1.12065264246120
C            5.19531714870891        1.20971705875498       -1.26411547419944
C            6.49214099292723        1.37639901582705       -0.80330653777404
C            7.15934499851476        0.33409642131935       -0.17450590442801
O            8.41017710458930        0.38501773063961        0.31917194324282
C            9.14577180019748        1.58181830505522        0.21038519641944
C            6.49439376571614       -0.91450354848411       -0.01784595469992
O            7.20829307951158       -1.87060317065728        0.60899593262674
C            6.63247483220945       -3.13872503438107        0.81227255751207
C            5.20178056271921       -1.05907234246846       -0.49611583755024
C            0.32653443072827       -1.54876202759354       -1.06035475651320
C           -4.25057138014760        2.99519283404842        0.38199739057800
C           -5.18178116898803        2.89075116680270        1.58925157441061
C           -3.72436455907993        4.42275732744285        0.26464872817342
H           -5.59999564131429        0.65399571872116       -0.36113065374384
H           -6.77874133380629       -0.26854580474932       -2.30068388575888
H           -6.68284137051211       -1.74554177506680       -3.28627489437961
H           -5.27801587080896       -0.65955407734115       -3.18856009874332
H           -5.32173265404395       -3.97022745963643        2.43258124939479
H           -5.31963943023832       -5.26084400583613        1.20784058885761
H           -3.79161723434901       -4.46441132250949        1.65121309451648
H           -3.72397515069970       -2.24232759559695        2.45207343875889
H           -2.86836818459297        0.01229908956855        2.40645315648257
H           -2.89198201778900        2.09489515021101       -1.70705057437098
H           -1.61998828082136        2.89844124229035       -0.78304536593373
H           -4.38981344300430        0.34434636391924       -1.22816378521170
H           -1.83263839496723       -0.11185665279993       -1.31109189605720
H           -1.27012591387216        1.50836100244825        1.52155020600247
H            0.40788763377924        1.74939983293816       -0.36968237635510
H            2.46920222021237       -0.86942499391104        0.37653242729815
H            2.33164725243242        0.87853517841714        0.14175831555238
H            2.84436693920623        0.60113011413242       -2.27853397816147
H            2.99027163504568       -1.14775776343072       -2.04949278864929
H            4.69832175420225        2.03703163063803       -1.74733040431338
H            6.97791002957359        2.32898940079396       -0.93781332978470
H            8.65069816628724        2.40525945184448        0.73440030653881
H            9.30746929219936        1.85867739220030       -0.83604111255590
H           10.10536690912542        1.37850925346928        0.68250988186131
H            7.38990806763292       -3.72451852825463        1.32951831768170
H            5.73550237977783       -3.07606812005835        1.43697200840209
H            6.38511281313287       -3.62448190312726       -0.13672878958740
H            4.69435363382577       -2.00565975884706       -0.39381953990829
H            0.05529912700280       -1.57528181465637       -2.11967812198834
H           -0.55176786925837       -1.82603214040957       -0.47176535029855
H            1.10764018762925       -2.28310280691128       -0.88257864299289
H           -4.82908061197133        2.78636341349625       -0.52622855370076
H           -4.64660871494339        3.18058816594306        2.48770667235472
H           -5.55569538376526        1.87803600254832        1.72511937511882
H           -6.03029791106492        3.55859171141037        1.45938410590101
H           -3.11527006960489        4.67306516881323        1.12756726379787
H           -3.14053010072878        4.56492751658345       -0.64089600705403
H           -4.56591437717276        5.11020370772697        0.23097941684950
H           -1.64214556845880        3.05026829807890        3.23152319948772

          :  Hamiltonian                  GFN2-xTB          :
         :: total energy            -103.633910789536 Eh    ::
         :: gradient norm              0.002030045356 Eh/a0 ::
         :: HOMO-LUMO gap              1.134926805685 eV    ::
         :: SCC energy              -100.781987429305 Eh    ::
         :: -> dispersion             -0.072733338660 Eh    ::
         :: repulsion energy           1.616071703917 Eh    ::

    * Orbital Energies and Occupations

         #    Occupation            Energy/Eh            Energy/eV
      -------------------------------------------------------------
         1        2.0000           -0.8344931             -22.7077
       ...           ...                  ...                  ...
        78        1.9985           -0.5313313             -14.4583
        79        1.9982           -0.5287475             -14.3880
        80        1.9980           -0.5268351             -14.3359
        81        1.9977           -0.5245054             -14.2725
        82        1.9963           -0.5171007             -14.0710
        83        1.9960           -0.5156120             -14.0305
        84        1.9959           -0.5152699             -14.0212
        85        1.9954           -0.5136584             -13.9774
        86        1.9709           -0.4841568             -13.1746
        87        1.9451           -0.4739128             -12.8958
        88        1.9211           -0.4679770             -12.7343
        89        1.8244           -0.4544987             -12.3675
        90        1.7274           -0.4466670             -12.1544 (HOMO)
        91        0.6253           -0.4049592             -11.0195 (LUMO)
        92        0.0111           -0.3352181              -9.1217
        93        0.0041           -0.3193928              -8.6911
        94        0.0021           -0.3086156              -8.3979
        95        0.0017           -0.3055732              -8.3151
        96        0.0006           -0.2876703              -7.8279
        97        0.0000           -0.2325160              -6.3271
        98        0.0000           -0.1829792              -4.9791
        99                         -0.1046086              -2.8465
       100                         -0.0921730              -2.5082
       101                         -0.0782315              -2.1288
       ...                                ...                  ...
       171                          1.7248296              46.9350
      -------------------------------------------------------------
                  HL-Gap            0.0417078 Eh            1.1349 eV

     #   Z          covCN         q      C6AA      α(0)
     1   7 N        1.774    -0.270    27.820     7.811
     2   6 C        2.827     0.100    25.768     8.318
     3   6 C        3.907     0.008    20.384     6.417
     4   6 C        2.961     0.000    28.022     8.683
     5   6 C        3.809    -0.110    22.584     6.765
     6   6 C        2.852     0.122    25.309     8.245
     7   8 O        1.706    -0.197    17.286     5.613
     8   6 C        3.644     0.019    20.604     6.525
     9   6 C        2.849     0.127    25.210     8.229
    10   8 O        1.706    -0.239    17.953     5.721
    11   6 C        3.645     0.026    20.468     6.503
    12   6 C        2.913    -0.070    29.739     8.942
    13   6 C        2.903    -0.044    29.101     8.845
    14   6 C        3.815    -0.061    21.655     6.623
    15   6 C        2.891    -0.078    29.956     8.973
    16   6 C        2.843     0.009    27.807     8.642
    17   7 N        2.732    -0.045    22.113     6.984
    18   6 C        3.751    -0.007    20.755     6.497
    19   6 C        3.807    -0.071    21.862     6.656
    20   6 C        2.969     0.006    27.892     8.663
    21   6 C        2.921    -0.046    29.131     8.851
    22   6 C        2.913    -0.066    29.649     8.929
    23   6 C        2.864     0.134    25.071     8.207
    24   8 O        1.706    -0.220    17.648     5.672
    25   6 C        3.645     0.025    20.494     6.506
    26   6 C        2.862     0.134    25.074     8.208
    27   8 O        1.706    -0.223    17.701     5.680
    28   6 C        3.645     0.027    20.453     6.500
    29   6 C        2.920    -0.078    29.954     8.975
    30   6 C        3.699    -0.056    21.754     6.671
    31   6 C        3.851    -0.008    20.688     6.469
    32   6 C        3.756    -0.120    22.861     6.817
    33   6 C        3.755    -0.118    22.823     6.812
    34   1 H        0.919     0.097     1.811     2.105
    35   1 H        0.924     0.064     2.156     2.296
    36   1 H        0.925     0.092     1.863     2.134
    37   1 H        0.924     0.060     2.199     2.319
    38   1 H        0.924     0.055     2.253     2.347
    39   1 H        0.925     0.082     1.957     2.187
    40   1 H        0.924     0.050     2.317     2.380
    41   1 H        0.926     0.062     2.170     2.304
    42   1 H        0.926     0.052     2.293     2.368
    43   1 H        0.924     0.050     2.319     2.382
    44   1 H        0.925     0.052     2.295     2.369
    45   1 H        0.931     0.136     1.488     1.908
    46   1 H        0.926     0.034     2.531     2.488
    47   1 H        0.923     0.014     2.826     2.629
    48   1 H        0.925     0.048     2.346     2.395
    49   1 H        0.924     0.053     2.281     2.362
    50   1 H        0.924     0.058     2.225     2.333
    51   1 H        0.924     0.055     2.263     2.352
    52   1 H        0.924     0.055     2.261     2.352
    53   1 H        0.926     0.051     2.313     2.378
    54   1 H        0.926     0.059     2.208     2.323
    55   1 H        0.924     0.055     2.255     2.348
    56   1 H        0.924     0.057     2.233     2.337
    57   1 H        0.925     0.082     1.953     2.186
    58   1 H        0.925     0.082     1.961     2.190
    59   1 H        0.924     0.049     2.328     2.386
    60   1 H        0.924     0.054     2.276     2.359
    61   1 H        0.926     0.048     2.343     2.394
    62   1 H        0.924     0.061     2.188     2.313
    63   1 H        0.924     0.058     2.217     2.329
    64   1 H        0.925     0.066     2.132     2.283
    65   1 H        0.924     0.032     2.563     2.503
    66   1 H        0.925     0.074     2.045     2.236
    67   1 H        0.925     0.030     2.589     2.516
    68   1 H        0.925     0.050     2.323     2.383
    69   1 H        0.925     0.063     2.164     2.300
    70   1 H        0.925     0.037     2.488     2.467
    71   1 H        0.925     0.054     2.276     2.359
    72   1 H        0.860     0.159     1.343     1.815

Wiberg/Mayer (AO) data.
largest (>0.10) Wiberg bond orders for each atom

     #   Z sym  total        # sym  WBO       # sym  WBO       # sym  WBO
 ---------------------------------------------------------------------------
     1   7 N    3.012 --     2 C    1.956    72 H    0.941
     2   6 C    3.940 --     1 N    1.956     3 C    0.991    47 H    0.929
     3   6 C    3.960 --     2 C    0.991     4 C    0.990    31 C    0.944
                            14 C    0.914
     4   6 C    3.790 --    13 C    1.602     5 C    1.017     3 C    0.990
     5   6 C    3.965 --     6 C    1.022     4 C    1.017    45 H    0.944
                            34 H    0.882
     6   6 C    3.677 --     9 C    1.323     7 O    1.155     5 C    1.022
     7   8 O    2.278 --     6 C    1.155     8 C    0.971
     8   6 C    3.921 --    36 H    0.976     7 O    0.971    37 H    0.971
                            35 H    0.969
     9   6 C    3.911 --    12 C    1.337     6 C    1.323    10 O    1.086
    10   8 O    2.241 --     9 C    1.086    11 C    0.976
    11   6 C    3.930 --    39 H    0.976    10 O    0.976    40 H    0.974
                            38 H    0.974
    12   6 C    3.745 --     9 C    1.337    13 C    1.296    41 H    0.965
    13   6 C    3.978 --     4 C    1.602    12 C    1.296    42 H    0.958
    14   6 C    3.977 --    15 C    1.038    44 H    0.969    43 H    0.962
                             3 C    0.914
    15   6 C    3.819 --    16 C    1.670    14 C    1.038    46 H    0.963
    16   6 C    3.937 --    15 C    1.670    17 N    1.217    48 H    0.954
    17   7 N    3.381 --    16 C    1.217    30 C    1.007    18 C    1.005
    18   6 C    3.963 --    17 N    1.005    50 H    0.969    19 C    0.965
                            49 H    0.963
    19   6 C    3.976 --    20 C    1.013    51 H    0.974    52 H    0.968
                            18 C    0.965
    20   6 C    3.933 --    21 C    1.402    29 C    1.378    19 C    1.013
    21   6 C    3.937 --    22 C    1.419    20 C    1.402    53 H    0.967
    22   6 C    3.953 --    21 C    1.419    23 C    1.380    54 H    0.963
    23   6 C    3.882 --    22 C    1.380    26 C    1.214    24 O    1.111
    24   8 O    2.248 --    23 C    1.111    25 C    0.976
    25   6 C    3.927 --    57 H    0.977    24 O    0.976    55 H    0.972
                            56 H    0.972
    26   6 C    3.888 --    29 C    1.395    23 C    1.214    27 O    1.105
    27   8 O    2.249 --    26 C    1.105    28 C    0.979
    28   6 C    3.931 --    27 O    0.979    58 H    0.977    59 H    0.973
                            60 H    0.973
    29   6 C    3.955 --    26 C    1.395    20 C    1.378    61 H    0.962
    30   6 C    3.969 --    17 N    1.007    64 H    0.980    63 H    0.971
                            62 H    0.970
    31   6 C    3.971 --    33 C    1.010    32 C    1.007    65 H    0.960
                             3 C    0.944
    32   6 C    3.979 --    31 C    1.007    68 H    0.982    67 H    0.982
                            66 H    0.973
    33   6 C    3.982 --    31 C    1.010    70 H    0.982    71 H    0.980
                            69 H    0.976
    34   1 H    0.940 --     5 C    0.882
    35   1 H    0.990 --     8 C    0.969
    36   1 H    0.991 --     8 C    0.976
    37   1 H    0.990 --     8 C    0.971
    38   1 H    0.994 --    11 C    0.974
    39   1 H    0.992 --    11 C    0.976
    40   1 H    0.994 --    11 C    0.974
    41   1 H    0.995 --    12 C    0.965
    42   1 H    0.997 --    13 C    0.958
    43   1 H    0.991 --    14 C    0.962
    44   1 H    0.995 --    14 C    0.969
    45   1 H    0.973 --     5 C    0.944
    46   1 H    0.998 --    15 C    0.963
    47   1 H    0.982 --     2 C    0.929
    48   1 H    0.997 --    16 C    0.954
    49   1 H    0.990 --    18 C    0.963
    50   1 H    0.996 --    18 C    0.969
    51   1 H    0.996 --    19 C    0.974
    52   1 H    0.994 --    19 C    0.968
    53   1 H    0.997 --    21 C    0.967
    54   1 H    0.995 --    22 C    0.963
    55   1 H    0.991 --    25 C    0.972
    56   1 H    0.990 --    25 C    0.972
    57   1 H    0.992 --    25 C    0.977
    58   1 H    0.993 --    28 C    0.977
    59   1 H    0.992 --    28 C    0.973
    60   1 H    0.992 --    28 C    0.973
    61   1 H    0.996 --    29 C    0.962
    62   1 H    0.986 --    30 C    0.970
    63   1 H    0.989 --    30 C    0.971
    64   1 H    0.995 --    30 C    0.980
    65   1 H    0.993 --    31 C    0.960
    66   1 H    0.991 --    32 C    0.973
    67   1 H    0.998 --    32 C    0.982
    68   1 H    0.995 --    32 C    0.982
    69   1 H    0.993 --    33 C    0.976
    70   1 H    0.997 --    33 C    0.982
    71   1 H    0.993 --    33 C    0.980
    72   1 H    0.968 --     1 N    0.941
 ---------------------------------------------------------------------------

molecular dipole:
                 x           y           z       tot (Debye)
 q only:       -0.555      -0.331      -0.593
   full:       -0.296      -0.458      -0.611       2.081

           -------------------------------------------------
          | TOTAL ENERGY             -103.633910789536 Eh   |
          | GRADIENT NORM               0.002030045356 Eh/α |
          | HOMO-LUMO GAP               1.134926805685 eV   |
           -------------------------------------------------

 * finished run on 2024/04/06 at 11:15:57.913
