   * xtb version 6.6.1 (8d0f1dd) compiled by 'conda@1efc2f54142f' on 2023-08-01
          program call               : xtb xtbopt.xyz --opt crude --input .xc2 --gfn2

   ID    Z sym.   atoms
    1    7 N      1, 17
    2    6 C      2-6, 8, 9, 11-16, 18-23, 25, 26, 28-33
    3    8 O      7, 10, 24, 27
    4    1 H      34-72
########################################################################
[WARNING] Please study the warnings concerning your input carefully
-1- readin_getIntValue: could not parse ''
########################################################################

          :  Hamiltonian                  GFN2-xTB          :
 * total energy  :   -99.1648605 Eh     change       -0.6394885E-12 Eh
 * total energy  :   -99.3781152 Eh     change       -0.2132547E+00 Eh
 * total energy  :   -99.3803268 Eh     change       -0.2211605E-02 Eh
 * total energy  :   -99.3811839 Eh     change       -0.8571137E-03 Eh
 * total energy  :   -99.3814672 Eh     change       -0.2832690E-03 Eh
 * total energy  :   -99.3816242 Eh     change       -0.1570068E-03 Eh
   *** GEOMETRY OPTIMIZATION CONVERGED AFTER 6 ITERATIONS ***

 final structure:
================
72
 xtb: 6.6.1 (8d0f1dd)
N           -2.37228004924432        2.97165780161623        2.53006895601079
C           -2.17831402649262        2.14189123182287        1.61463809387767
C           -3.12709519970818        1.92993864093268        0.46212603808880
C           -3.72866636584474        0.54411207281997        0.55084232146967
C           -4.65031255257413        0.11802084958335       -0.55075454006029
C           -5.01802269911850       -1.32559373639051       -0.53738812746785
O           -5.71297188121824       -1.87863771515703       -1.53793382394288
C           -6.14049371131777       -1.09474347807903       -2.62729942344754
C           -4.69550190690764       -2.15441988953776        0.54227531486281
O           -5.13114114049176       -3.43253796634884        0.44684618266419
C           -4.87011672768386       -4.32344925730868        1.50804159543098
C           -3.95836537299368       -1.63205661292364        1.60371481416653
C           -3.47287888451764       -0.31297559786053        1.57344997507142
C           -2.22514837635799        2.00337903363031       -0.82048015614841
C           -1.35509926107635        0.80001668676966       -0.96779200839914
C           -0.04672318939690        0.81366967386407       -0.65619034995269
N            0.79568985858259       -0.24882599519470       -0.65445462137715
C            2.18662125772480       -0.09425182908989       -0.32724198733352
C            3.11460255041634       -0.17684599485214       -1.55721372176255
C            4.53886603371107       -0.00341531495578       -1.11701606046974
C            5.19245150234492        1.21045397156410       -1.26092085268630
C            6.49055964538128        1.37797617691635       -0.80402772464013
C            7.16046744105004        0.33509942184162       -0.17951309465854
O            8.41192993822089        0.38659861596901        0.31241042505823
C            9.14688465352416        1.58345350326749        0.20121557369618
C            6.49809143475312       -0.91526712451393       -0.02508410262396
O            7.21771291124931       -1.87249507890049        0.59330471224570
C            6.64459963562572       -3.14154190045997        0.79823461610749
C            5.20372567452321       -1.06017440893819       -0.49788285182740
C            0.32914624963890       -1.55287452924412       -1.04863465438145
C           -4.25451243107578        2.99827906500033        0.38723447927123
C           -5.18871327900567        2.89934282382871        1.59213916650385
C           -3.72531659882633        4.42455065825792        0.26580935153774
H           -5.58749580264539        0.69575973863490       -0.45325512984666
H           -6.78652946577690       -0.27349726465479       -2.30416426603664
H           -6.70608799730977       -1.76766365474345       -3.26887853637538
H           -5.29450819221984       -0.68921019351395       -3.19133151628281
H           -5.32723501179680       -3.98232707384207        2.44133165134623
H           -5.32179636000641       -5.26760881698956        1.21022553095484
H           -3.79544013188965       -4.46760237310965        1.65687926807570
H           -3.72554093878560       -2.24584006404864        2.45673904729379
H           -2.86638524944140        0.00602824864197        2.40670360791319
H           -2.87423154603058        2.11275480668587       -1.69162536677778
H           -1.60754725543141        2.89871117865452       -0.74876233722543
H           -4.24551660402619        0.40209082369788       -1.52907940403772
H           -1.83549790447386       -0.11304915851542       -1.28053930609555
H           -1.28179859050545        1.50901625740096        1.53982820207086
H            0.41474269218571        1.74620865068286       -0.35713747413611
H            2.47487242053775       -0.87442274825070        0.38605313084970
H            2.33337583079434        0.87369269331242        0.15655705111010
H            2.83816168984071        0.60485012550173       -2.26561863417760
H            2.98555115207718       -1.14494190383026       -2.04384333372809
H            4.69290340735480        2.03781591184689       -1.74117509123672
H            6.97452951465727        2.33147878176370       -0.93825349072163
H            8.65488005320977        2.40600676060142        0.72915983272936
H            9.30251189427347        1.86177851151057       -0.84533668147610
H           10.10886205457872        1.37947544728198        0.66751428306088
H            7.40557371365782       -3.72667752761809        1.31096350291381
H            5.75076904189799       -3.08078102347568        1.42755203996023
H            6.39309572796878       -3.62675065903275       -0.14992351108430
H            4.69734956273330       -2.00735511536732       -0.39606424394140
H            0.06127136268860       -1.57592945670887       -2.10871459787096
H           -0.55087747359893       -1.83253475819765       -0.46390016861465
H            1.11040170497733       -2.28720293356912       -0.87047372195819
H           -4.83177760620524        2.78671931023309       -0.52085720863576
H           -4.65595645987235        3.19102210034775        2.49131461593630
H           -5.56454759039264        1.88762239307025        1.72771737402049
H           -6.03507142044079        3.56812009394835        1.45766926949528
H           -3.11403490405899        4.67610971690419        1.12654374575418
H           -3.14357289144272        4.56366188771344       -0.64144550499645
H           -4.56534500588269        5.11371031916771        0.23219150353631
H           -1.65521695708600        3.05656669241073        3.24417719592926

          :  Hamiltonian                  GFN2-xTB          :
         :: total energy             -99.381624165856 Eh    ::
         :: gradient norm              0.003486041808 Eh/a0 ::
         :: HOMO-LUMO gap              1.137425836099 eV    ::
         :: SCC energy              -100.756603469359 Eh    ::
         :: -> dispersion             -0.072693191762 Eh    ::
         :: repulsion energy           1.373928175916 Eh    ::

    * Orbital Energies and Occupations

         #    Occupation            Energy/Eh            Energy/eV
      -------------------------------------------------------------
         1        2.0000           -0.8338182             -22.6893
       ...           ...                  ...                  ...
        78        1.9985           -0.5309318             -14.4474
        79        1.9982           -0.5285203             -14.3818
        80        1.9980           -0.5265772             -14.3289
        81        1.9977           -0.5243369             -14.2679
        82        1.9963           -0.5166695             -14.0593
        83        1.9959           -0.5151854             -14.0189
        84        1.9959           -0.5150167             -14.0143
        85        1.9954           -0.5132811             -13.9671
        86        1.9710           -0.4840020             -13.1704
        87        1.9434           -0.4731913             -12.8762
        88        1.9207           -0.4676464             -12.7253
        89        1.8252           -0.4543326             -12.3630
        90        1.7288           -0.4465153             -12.1503 (HOMO)
        91        0.6254           -0.4047156             -11.0129 (LUMO)
        92        0.0110           -0.3348210              -9.1109
        93        0.0040           -0.3188107              -8.6753
        94        0.0021           -0.3084213              -8.3926
        95        0.0017           -0.3053863              -8.3100
        96        0.0006           -0.2876442              -7.8272
        97        0.0000           -0.2329895              -6.3400
        98        0.0000           -0.1827537              -4.9730
        99                         -0.1043840              -2.8404
       100                         -0.0877772              -2.3885
       101                         -0.0747110              -2.0330
       ...                                ...                  ...
       171                          0.5807770              15.8037
      -------------------------------------------------------------
                  HL-Gap            0.0417996 Eh            1.1374 eV

     #   Z          covCN         q      C6AA      α(0)
     1   7 N        1.774    -0.270    27.818     7.810
     2   6 C        2.828     0.101    25.761     8.317
     3   6 C        3.906     0.008    20.388     6.418
     4   6 C        2.961     0.006    27.894     8.663
     5   6 C        3.811    -0.076    21.942     6.668
     6   6 C        2.852     0.128    25.194     8.227
     7   8 O        1.706    -0.195    17.256     5.609
     8   6 C        3.643     0.019    20.594     6.524
     9   6 C        2.850     0.128    25.195     8.227
    10   8 O        1.706    -0.238    17.950     5.720
    11   6 C        3.644     0.026    20.469     6.503
    12   6 C        2.913    -0.069    29.726     8.940
    13   6 C        2.905    -0.043    29.079     8.842
    14   6 C        3.816    -0.060    21.634     6.620
    15   6 C        2.891    -0.079    29.967     8.975
    16   6 C        2.843     0.009    27.806     8.642
    17   7 N        2.732    -0.045    22.109     6.984
    18   6 C        3.751    -0.007    20.757     6.497
    19   6 C        3.807    -0.071    21.862     6.656
    20   6 C        2.969     0.006    27.894     8.663
    21   6 C        2.922    -0.046    29.133     8.851
    22   6 C        2.913    -0.066    29.650     8.929
    23   6 C        2.864     0.134    25.072     8.208
    24   8 O        1.706    -0.220    17.649     5.672
    25   6 C        3.645     0.025    20.493     6.506
    26   6 C        2.862     0.134    25.074     8.208
    27   8 O        1.706    -0.223    17.702     5.681
    28   6 C        3.645     0.027    20.453     6.500
    29   6 C        2.920    -0.078    29.954     8.975
    30   6 C        3.699    -0.056    21.754     6.671
    31   6 C        3.851    -0.008    20.683     6.469
    32   6 C        3.756    -0.120    22.856     6.817
    33   6 C        3.755    -0.118    22.821     6.812
    34   1 H        0.922     0.098     1.803     2.100
    35   1 H        0.924     0.064     2.158     2.297
    36   1 H        0.925     0.093     1.851     2.128
    37   1 H        0.924     0.060     2.202     2.321
    38   1 H        0.924     0.055     2.253     2.347
    39   1 H        0.925     0.082     1.956     2.187
    40   1 H        0.924     0.050     2.318     2.381
    41   1 H        0.926     0.062     2.173     2.305
    42   1 H        0.926     0.052     2.291     2.367
    43   1 H        0.924     0.049     2.327     2.386
    44   1 H        0.925     0.052     2.293     2.368
    45   1 H        0.924     0.085     1.925     2.170
    46   1 H        0.926     0.033     2.542     2.493
    47   1 H        0.923     0.014     2.824     2.628
    48   1 H        0.925     0.048     2.345     2.394
    49   1 H        0.924     0.053     2.279     2.361
    50   1 H        0.924     0.058     2.224     2.332
    51   1 H        0.924     0.054     2.265     2.354
    52   1 H        0.924     0.055     2.262     2.352
    53   1 H        0.926     0.050     2.314     2.379
    54   1 H        0.926     0.059     2.208     2.324
    55   1 H        0.924     0.055     2.255     2.349
    56   1 H        0.924     0.057     2.233     2.337
    57   1 H        0.925     0.082     1.954     2.186
    58   1 H        0.925     0.082     1.962     2.190
    59   1 H        0.924     0.049     2.328     2.386
    60   1 H        0.924     0.054     2.277     2.360
    61   1 H        0.926     0.048     2.344     2.394
    62   1 H        0.924     0.061     2.190     2.314
    63   1 H        0.924     0.059     2.216     2.328
    64   1 H        0.925     0.066     2.130     2.282
    65   1 H        0.924     0.031     2.571     2.508
    66   1 H        0.925     0.074     2.045     2.236
    67   1 H        0.925     0.030     2.582     2.513
    68   1 H        0.925     0.050     2.324     2.384
    69   1 H        0.925     0.063     2.165     2.301
    70   1 H        0.925     0.037     2.489     2.467
    71   1 H        0.925     0.054     2.274     2.358
    72   1 H        0.860     0.159     1.342     1.815

Wiberg/Mayer (AO) data.
largest (>0.10) Wiberg bond orders for each atom

     #   Z sym  total        # sym  WBO       # sym  WBO       # sym  WBO
 ---------------------------------------------------------------------------
     1   7 N    3.011 --     2 C    1.956    72 H    0.941
     2   6 C    3.940 --     1 N    1.956     3 C    0.990    47 H    0.929
     3   6 C    3.960 --     2 C    0.990     4 C    0.989    31 C    0.945
                            14 C    0.913
     4   6 C    3.792 --    13 C    1.596     5 C    1.028     3 C    0.989
     5   6 C    3.982 --     6 C    1.036     4 C    1.028    45 H    0.923
                            34 H    0.894
     6   6 C    3.682 --     9 C    1.316     7 O    1.155     5 C    1.036
     7   8 O    2.278 --     6 C    1.155     8 C    0.973
     8   6 C    3.921 --    36 H    0.975     7 O    0.973    35 H    0.969
                            37 H    0.967
     9   6 C    3.910 --    12 C    1.340     6 C    1.316    10 O    1.087
    10   8 O    2.240 --     9 C    1.087    11 C    0.976
    11   6 C    3.930 --    39 H    0.976    10 O    0.976    40 H    0.974
                            38 H    0.974
    12   6 C    3.749 --     9 C    1.340    13 C    1.297    41 H    0.965
    13   6 C    3.977 --     4 C    1.596    12 C    1.297    42 H    0.958
    14   6 C    3.976 --    15 C    1.039    44 H    0.969    43 H    0.958
                             3 C    0.913
    15   6 C    3.820 --    16 C    1.670    14 C    1.039    46 H    0.963
    16   6 C    3.938 --    15 C    1.670    17 N    1.218    48 H    0.954
    17   7 N    3.382 --    16 C    1.218    30 C    1.007    18 C    1.005
    18   6 C    3.963 --    17 N    1.005    50 H    0.969    19 C    0.965
                            49 H    0.963
    19   6 C    3.976 --    20 C    1.013    51 H    0.974    52 H    0.967
                            18 C    0.965
    20   6 C    3.934 --    21 C    1.403    29 C    1.378    19 C    1.013
    21   6 C    3.938 --    22 C    1.418    20 C    1.403    53 H    0.967
    22   6 C    3.953 --    21 C    1.418    23 C    1.380    54 H    0.963
    23   6 C    3.882 --    22 C    1.380    26 C    1.214    24 O    1.111
    24   8 O    2.248 --    23 C    1.111    25 C    0.976
    25   6 C    3.927 --    57 H    0.977    24 O    0.976    55 H    0.972
                            56 H    0.972
    26   6 C    3.888 --    29 C    1.395    23 C    1.214    27 O    1.105
    27   8 O    2.249 --    26 C    1.105    28 C    0.979
    28   6 C    3.931 --    27 O    0.979    58 H    0.977    59 H    0.973
                            60 H    0.973
    29   6 C    3.955 --    26 C    1.395    20 C    1.378    61 H    0.962
    30   6 C    3.969 --    17 N    1.007    64 H    0.980    63 H    0.971
                            62 H    0.970
    31   6 C    3.971 --    33 C    1.010    32 C    1.007    65 H    0.960
                             3 C    0.945
    32   6 C    3.978 --    31 C    1.007    68 H    0.982    67 H    0.982
                            66 H    0.973
    33   6 C    3.982 --    31 C    1.010    70 H    0.983    71 H    0.980
                            69 H    0.976
    34   1 H    0.945 --     5 C    0.894
    35   1 H    0.990 --     8 C    0.969
    36   1 H    0.991 --     8 C    0.975
    37   1 H    0.990 --     8 C    0.967
    38   1 H    0.994 --    11 C    0.974
    39   1 H    0.993 --    11 C    0.976
    40   1 H    0.994 --    11 C    0.974
    41   1 H    0.995 --    12 C    0.965
    42   1 H    0.997 --    13 C    0.958
    43   1 H    0.991 --    14 C    0.958
    44   1 H    0.995 --    14 C    0.969
    45   1 H    0.967 --     5 C    0.923
    46   1 H    0.998 --    15 C    0.963
    47   1 H    0.982 --     2 C    0.929
    48   1 H    0.997 --    16 C    0.954
    49   1 H    0.990 --    18 C    0.963
    50   1 H    0.996 --    18 C    0.969
    51   1 H    0.996 --    19 C    0.974
    52   1 H    0.994 --    19 C    0.967
    53   1 H    0.997 --    21 C    0.967
    54   1 H    0.995 --    22 C    0.963
    55   1 H    0.991 --    25 C    0.972
    56   1 H    0.990 --    25 C    0.972
    57   1 H    0.992 --    25 C    0.977
    58   1 H    0.993 --    28 C    0.977
    59   1 H    0.992 --    28 C    0.973
    60   1 H    0.992 --    28 C    0.973
    61   1 H    0.996 --    29 C    0.962
    62   1 H    0.986 --    30 C    0.970
    63   1 H    0.989 --    30 C    0.971
    64   1 H    0.995 --    30 C    0.980
    65   1 H    0.993 --    31 C    0.960
    66   1 H    0.991 --    32 C    0.973
    67   1 H    0.998 --    32 C    0.982
    68   1 H    0.995 --    32 C    0.982
    69   1 H    0.993 --    33 C    0.976
    70   1 H    0.997 --    33 C    0.983
    71   1 H    0.993 --    33 C    0.980
    72   1 H    0.968 --     1 N    0.941
 ---------------------------------------------------------------------------

molecular dipole:
                 x           y           z       tot (Debye)
 q only:       -0.571      -0.362      -0.579
   full:       -0.315      -0.474      -0.635       2.167

           -------------------------------------------------
          | TOTAL ENERGY              -99.381624165856 Eh   |
          | GRADIENT NORM               0.003486041808 Eh/α |
          | HOMO-LUMO GAP               1.137425836099 eV   |
           -------------------------------------------------

 * finished run on 2024/04/06 at 11:15:59.164
