   * xtb version 6.6.1 (8d0f1dd) compiled by 'conda@1efc2f54142f' on 2023-08-01
          program call               : xtb struc.xyz --opt loose --input .xc1 --gfn2

   ID    Z sym.   atoms
    1    7 N      1, 17
    2    6 C      2-6, 8, 9, 11-16, 18-23, 25, 26, 28-33
    3    8 O      7, 10, 24, 27
    4    1 H      34-72
constraining bond 2 44 to    3.7133300 Å, actual value:    2.5801936 Å

          :  Hamiltonian                  GFN2-xTB          :
 * total energy  :   -99.6333929 Eh     change       -0.4035485E-08 Eh
 * total energy  :   -99.9485387 Eh     change       -0.3151458E+00 Eh
 * total energy  :  -100.3590034 Eh     change       -0.4104647E+00 Eh
 * total energy  :  -100.2096020 Eh     change        0.1494014E+00 Eh
 * total energy  :  -100.5716457 Eh     change       -0.3620437E+00 Eh
 * total energy  :  -100.6238002 Eh     change       -0.5215450E-01 Eh
 * total energy  :  -100.6848000 Eh     change       -0.6099986E-01 Eh
 * total energy  :  -100.7012927 Eh     change       -0.1649261E-01 Eh
 * total energy  :  -100.7146222 Eh     change       -0.1332955E-01 Eh
 * total energy  :  -100.7246342 Eh     change       -0.1001199E-01 Eh
 * total energy  :  -100.7844261 Eh     change       -0.6721839E-04 Eh
 * total energy  :  -100.7845209 Eh     change       -0.9471282E-04 Eh
 * total energy  :  -100.7845797 Eh     change       -0.5881988E-04 Eh
 * total energy  :  -100.7846605 Eh     change       -0.8085754E-04 Eh
 * total energy  :  -100.7847846 Eh     change       -0.1240355E-03 Eh
 * total energy  :  -100.7848962 Eh     change       -0.1116381E-03 Eh
 * total energy  :  -100.7849834 Eh     change       -0.8723638E-04 Eh
 * total energy  :  -100.7850777 Eh     change       -0.9430305E-04 Eh
 * total energy  :  -100.7851255 Eh     change       -0.4770836E-04 Eh
   *** GEOMETRY OPTIMIZATION CONVERGED AFTER 44 ITERATIONS ***

 final structure:
================
72
 xtb: 6.6.1 (8d0f1dd)
N           -2.37646648287594        2.33829899897223        2.56977136450176
C           -2.19150354598833        2.67088549180899        1.36188844919218
C           -3.11851568460893        2.07345807759275        0.28130995704099
C           -3.51942183578147        0.61684511462108        0.47651899507038
C           -4.30520588385893        0.04314976442729       -0.52756104685342
C           -4.71810089001965       -1.27654789272459       -0.45951618306597
O           -5.49591740255352       -1.89981288757010       -1.36723750979965
C           -6.06776405124451       -1.15415007115681       -2.41681164514722
C           -4.31112719055682       -2.08120219141937        0.64169543665905
O           -4.74795143269836       -3.35288719791653        0.61640756772656
C           -4.43536703142516       -4.21343750632388        1.68819531288296
C           -3.52681377949356       -1.50449826133987        1.62947011787419
C           -3.14265750601131       -0.17342938584794        1.55003377746496
C           -2.42008668335013        2.20148714311372       -1.02640603931652
C           -1.45443356519706        1.19976675557047       -1.51044778503867
C           -0.33669672088004        0.90294314761608       -0.47718118300719
N            0.56956733536092       -0.10366731931994       -0.95773310787463
C            1.93245349167597       -0.04308280740942       -0.48426646494838
C            2.93189845482680       -0.40294947648445       -1.60120655990714
C            4.33762556568571       -0.19742054508828       -1.11916617017116
C            4.98976839440589        1.01099121529687       -1.32460549979944
C            6.27167398971722        1.22029054809100       -0.84332446426386
C            6.93520560518907        0.22284538314955       -0.13996424583427
O            8.17027884765531        0.31820715199044        0.38046530263555
C            8.90563649338102        1.50733690640677        0.20048906362542
C            6.27951457771438       -1.02487744324788        0.06812920646511
O            6.99910060558102       -1.94284112304147        0.73984864866181
C            6.44756749798954       -3.21626831865006        0.97925380548139
C            4.99329597979967       -1.20653472649248       -0.41876311215910
C           -0.00150692874991       -1.42455227503019       -1.04712333564223
C           -4.40910821770067        2.97165238948575        0.31591684858084
C           -5.28711481267199        2.59968133160299        1.50526548044329
C           -4.08217786547059        4.46399975612608        0.35992704750215
H           -4.59911734411424        0.64827409430770       -1.37057199867250
H           -6.66139132479189       -0.31820932977712       -2.03509774828617
H           -6.71871380464157       -1.84790447943714       -2.94537814074998
H           -5.30554157297778       -0.77776887974537       -3.10643549282129
H           -4.82451279018027       -3.83035471731198        2.63588637400847
H           -4.92103205692953       -5.15857600002888        1.45317018941426
H           -3.35586733154433       -4.37132837052328        1.77280167360498
H           -3.21436384247519       -2.08470875319724        2.48267377020736
H           -2.56662270383068        0.25248557878215        2.35478995874598
H           -2.58318070363311        3.08852797813731       -1.61441648503139
H           -1.66888237655480        3.18820002986882        1.08816245593349
H           -1.96692744097164        0.25017323507941       -1.69977841456626
H           -0.99516952377115        1.52939671983023       -2.44241093630856
H           -0.81332479285940        0.59498774459835        0.46773555084995
H            0.22421832343431        1.82292473712943       -0.30371910089985
H            2.09091354669369       -0.71574735489249        0.37153140165695
H            2.14866011942638        0.97377197936584       -0.15113367402204
H            2.73084623693793        0.23778994575240       -2.45976028259180
H            2.78770469581644       -1.43966194373705       -1.90580139976410
H            4.49841981130861        1.79981460165615       -1.87311484777303
H            6.75182847465889        2.16828869129935       -1.02320807183565
H            8.40361763966773        2.36193807185543        0.66395177052545
H            9.07662380937312        1.71416251662918       -0.85998083385582
H            9.86043967630528        1.33823679551202        0.69459737688535
H            7.21805407531186       -3.77306842220065        1.50914528985573
H            5.55153896933878       -3.15321165832775        1.60447108555866
H            6.20698483436065       -3.73125825345382        0.04423549994284
H            4.48885775207754       -2.14755664872670       -0.26504413290363
H           -0.64375884033703       -1.49913780493668       -1.92648002065172
H           -0.60239563808155       -1.66953337958126       -0.16092845634308
H            0.78734303450252       -2.16512075888878       -1.14833943008161
H           -4.95766543147664        2.76993428754163       -0.60918604103020
H           -4.69767363465622        2.59500932598825        2.41963849804226
H           -5.72705097897565        1.61454326834383        1.37838725873455
H           -6.08951504580128        3.32513777479756        1.61205306713776
H           -3.70260480262261        4.75034414464718        1.33829468606271
H           -3.35199932883960        4.74788100306386       -0.39423378276430
H           -4.98858091339467        5.03578722473598        0.17624772301651
H           -1.77929250656868        2.79599678151899        3.25523847439409

          :  Hamiltonian                  GFN2-xTB          :
         :: total energy            -100.785125457642 Eh    ::
         :: gradient norm              0.002849876781 Eh/a0 ::
         :: HOMO-LUMO gap              0.967364736856 eV    ::
         :: SCC energy              -100.751486160000 Eh    ::
         :: -> dispersion             -0.074167500285 Eh    ::
         :: repulsion energy           1.496506355908 Eh    ::

    * Orbital Energies and Occupations

         #    Occupation            Energy/Eh            Energy/eV
      -------------------------------------------------------------
         1        2.0000           -0.8128155             -22.1178
       ...           ...                  ...                  ...
        78        1.9975           -0.5325042             -14.4902
        79        1.9968           -0.5284103             -14.3788
        80        1.9963           -0.5260057             -14.3133
        81        1.9955           -0.5230868             -14.2339
        82        1.9949           -0.5208262             -14.1724
        83        1.9946           -0.5200117             -14.1502
        84        1.9923           -0.5144665             -13.9993
        85        1.9673           -0.4913029             -13.3690
        86        1.9639           -0.4896934             -13.3252
        87        1.9202           -0.4767884             -12.9741
        88        1.8533           -0.4665924             -12.6966
        89        1.7852           -0.4599658             -12.5163
        90        1.7291           -0.4557806             -12.4024 (HOMO)
        91        0.8066           -0.4202306             -11.4351 (LUMO)
        92        0.0156           -0.3496772              -9.5152
        93        0.0021           -0.3176708              -8.6443
        94        0.0016           -0.3134335              -8.5290
        95        0.0015           -0.3129193              -8.5150
        96        0.0014           -0.3112661              -8.4700
        97        0.0000           -0.1915831              -5.2132
        98        0.0000           -0.1889133              -5.1406
        99                         -0.1026400              -2.7930
       100                         -0.0678721              -1.8469
       101                         -0.0632257              -1.7205
       ...                                ...                  ...
       171                          1.1798668              32.1058
      -------------------------------------------------------------
                  HL-Gap            0.0355500 Eh            0.9674 eV

     #   Z          covCN         q      C6AA      α(0)
     1   7 N        1.775    -0.287    28.251     7.871
     2   6 C        2.830     0.083    26.151     8.380
     3   6 C        3.909     0.009    20.362     6.414
     4   6 C        2.973     0.016    27.649     8.625
     5   6 C        2.922    -0.077    29.916     8.969
     6   6 C        2.862     0.132    25.119     8.215
     7   8 O        1.706    -0.225    17.727     5.685
     8   6 C        3.644     0.026    20.477     6.504
     9   6 C        2.863     0.133    25.089     8.210
    10   8 O        1.706    -0.220    17.655     5.673
    11   6 C        3.645     0.024    20.502     6.508
    12   6 C        2.914    -0.069    29.710     8.938
    13   6 C        2.920    -0.046    29.148     8.853
    14   6 C        2.906    -0.050    29.245     8.867
    15   6 C        3.802    -0.066    21.767     6.642
    16   6 C        3.751     0.002    20.601     6.473
    17   7 N        2.728    -0.109    23.388     7.183
    18   6 C        3.750     0.001    20.619     6.476
    19   6 C        3.808    -0.073    21.887     6.660
    20   6 C        2.968     0.010    27.785     8.646
    21   6 C        2.922    -0.044    29.091     8.845
    22   6 C        2.913    -0.065    29.626     8.925
    23   6 C        2.864     0.135    25.038     8.202
    24   8 O        1.706    -0.215    17.564     5.658
    25   6 C        3.645     0.023    20.520     6.510
    26   6 C        2.862     0.136    25.036     8.202
    27   8 O        1.706    -0.218    17.616     5.667
    28   6 C        3.645     0.025    20.489     6.506
    29   6 C        2.919    -0.076    29.893     8.966
    30   6 C        3.703    -0.050    21.621     6.648
    31   6 C        3.855    -0.006    20.656     6.464
    32   6 C        3.756    -0.119    22.827     6.812
    33   6 C        3.754    -0.112    22.706     6.795
    34   1 H        0.926     0.051     2.308     2.376
    35   1 H        0.924     0.055     2.254     2.348
    36   1 H        0.925     0.083     1.944     2.180
    37   1 H        0.924     0.051     2.308     2.376
    38   1 H        0.924     0.059     2.212     2.326
    39   1 H        0.925     0.083     1.944     2.180
    40   1 H        0.924     0.053     2.283     2.363
    41   1 H        0.926     0.058     2.222     2.331
    42   1 H        0.926     0.076     2.024     2.225
    43   1 H        0.926     0.056     2.247     2.344
    44   1 H        0.930     0.078     2.004     2.214
    45   1 H        0.924     0.076     2.016     2.221
    46   1 H        0.925     0.064     2.151     2.294
    47   1 H        0.923     0.038     2.479     2.462
    48   1 H        0.924     0.048     2.347     2.396
    49   1 H        0.923     0.039     2.457     2.451
    50   1 H        0.924     0.049     2.333     2.389
    51   1 H        0.925     0.063     2.166     2.302
    52   1 H        0.925     0.055     2.253     2.347
    53   1 H        0.926     0.054     2.274     2.358
    54   1 H        0.926     0.061     2.185     2.312
    55   1 H        0.924     0.058     2.228     2.334
    56   1 H        0.924     0.060     2.204     2.322
    57   1 H        0.925     0.085     1.931     2.173
    58   1 H        0.925     0.084     1.938     2.177
    59   1 H        0.924     0.053     2.280     2.361
    60   1 H        0.924     0.056     2.241     2.341
    61   1 H        0.926     0.053     2.283     2.363
    62   1 H        0.924     0.058     2.224     2.332
    63   1 H        0.923     0.039     2.461     2.453
    64   1 H        0.925     0.062     2.172     2.305
    65   1 H        0.924     0.045     2.379     2.412
    66   1 H        0.925     0.065     2.142     2.289
    67   1 H        0.925     0.043     2.403     2.424
    68   1 H        0.925     0.057     2.238     2.340
    69   1 H        0.925     0.045     2.388     2.416
    70   1 H        0.925     0.039     2.457     2.451
    71   1 H        0.925     0.055     2.254     2.348
    72   1 H        0.860     0.161     1.327     1.804

Wiberg/Mayer (AO) data.
largest (>0.10) Wiberg bond orders for each atom

     #   Z sym  total        # sym  WBO       # sym  WBO       # sym  WBO
 ---------------------------------------------------------------------------
     1   7 N    2.980 --     2 C    1.924    72 H    0.934
     2   6 C    3.904 --     1 N    1.924    44 H    0.973     3 C    0.930
     3   6 C    3.966 --    14 C    1.052     4 C    0.966     2 C    0.930
                            31 C    0.903
     4   6 C    3.914 --    13 C    1.408     5 C    1.365     3 C    0.966
     5   6 C    3.949 --     6 C    1.400     4 C    1.365    34 H    0.958
     6   6 C    3.888 --     5 C    1.400     9 C    1.210     7 O    1.104
     7   8 O    2.245 --     6 C    1.104     8 C    0.977
     8   6 C    3.929 --     7 O    0.977    36 H    0.976    35 H    0.973
                            37 H    0.972
     9   6 C    3.881 --    12 C    1.383     6 C    1.210    10 O    1.112
    10   8 O    2.249 --     9 C    1.112    11 C    0.975
    11   6 C    3.927 --    39 H    0.977    10 O    0.975    40 H    0.972
                            38 H    0.972
    12   6 C    3.951 --    13 C    1.410     9 C    1.383    41 H    0.963
    13   6 C    3.927 --    12 C    1.410     4 C    1.408    42 H    0.948
    14   6 C    3.234 --    15 C    1.093     3 C    1.052    43 H    0.966
    15   6 C    3.974 --    14 C    1.093    46 H    0.972    16 C    0.946
                            45 H    0.920
    16   6 C    3.936 --    17 N    1.018    48 H    0.970    47 H    0.948
                            15 C    0.946
    17   7 N    3.121 --    16 C    1.018    30 C    1.017    18 C    1.005
    18   6 C    3.961 --    17 N    1.005    19 C    0.970    50 H    0.970
                            49 H    0.958
    19   6 C    3.977 --    20 C    1.015    51 H    0.970    18 C    0.970
                            52 H    0.967
    20   6 C    3.924 --    21 C    1.390    29 C    1.385    19 C    1.015
    21   6 C    3.926 --    22 C    1.426    20 C    1.390    53 H    0.967
    22   6 C    3.948 --    21 C    1.426    23 C    1.372    54 H    0.962
    23   6 C    3.871 --    22 C    1.372    26 C    1.208    24 O    1.118
    24   8 O    2.247 --    23 C    1.118    25 C    0.975
    25   6 C    3.924 --    57 H    0.976    24 O    0.975    55 H    0.971
                            56 H    0.971
    26   6 C    3.878 --    29 C    1.387    23 C    1.208    27 O    1.112
    27   8 O    2.248 --    26 C    1.112    28 C    0.977
    28   6 C    3.927 --    27 O    0.977    58 H    0.976    59 H    0.972
                            60 H    0.972
    29   6 C    3.950 --    26 C    1.387    20 C    1.385    61 H    0.961
    30   6 C    3.969 --    17 N    1.017    64 H    0.978    62 H    0.970
                            63 H    0.966
    31   6 C    3.964 --    32 C    1.012    33 C    1.009    65 H    0.959
                             3 C    0.903
    32   6 C    3.980 --    31 C    1.012    67 H    0.982    68 H    0.978
                            66 H    0.972
    33   6 C    3.987 --    31 C    1.009    69 H    0.982    71 H    0.981
                            70 H    0.980
    34   1 H    0.996 --     5 C    0.958
    35   1 H    0.992 --     8 C    0.973
    36   1 H    0.992 --     8 C    0.976
    37   1 H    0.991 --     8 C    0.972
    38   1 H    0.990 --    11 C    0.972
    39   1 H    0.992 --    11 C    0.977
    40   1 H    0.991 --    11 C    0.972
    41   1 H    0.994 --    12 C    0.963
    42   1 H    0.991 --    13 C    0.948
    43   1 H    0.995 --    14 C    0.966
    44   1 H    0.985 --     2 C    0.973
    45   1 H    0.952 --    15 C    0.920
    46   1 H    0.994 --    15 C    0.972
    47   1 H    0.980 --    16 C    0.948
    48   1 H    0.996 --    16 C    0.970
    49   1 H    0.979 --    18 C    0.958
    50   1 H    0.997 --    18 C    0.970
    51   1 H    0.993 --    19 C    0.970
    52   1 H    0.994 --    19 C    0.967
    53   1 H    0.996 --    21 C    0.967
    54   1 H    0.994 --    22 C    0.962
    55   1 H    0.989 --    25 C    0.971
    56   1 H    0.989 --    25 C    0.971
    57   1 H    0.992 --    25 C    0.976
    58   1 H    0.992 --    28 C    0.976
    59   1 H    0.990 --    28 C    0.972
    60   1 H    0.990 --    28 C    0.972
    61   1 H    0.995 --    29 C    0.961
    62   1 H    0.987 --    30 C    0.970
    63   1 H    0.982 --    30 C    0.966
    64   1 H    0.995 --    30 C    0.978
    65   1 H    0.993 --    31 C    0.959
    66   1 H    0.993 --    32 C    0.972
    67   1 H    0.996 --    32 C    0.982
    68   1 H    0.994 --    32 C    0.978
    69   1 H    0.996 --    33 C    0.982
    70   1 H    0.997 --    33 C    0.980
    71   1 H    0.994 --    33 C    0.981
    72   1 H    0.961 --     1 N    0.934
 ---------------------------------------------------------------------------

molecular dipole:
                 x           y           z       tot (Debye)
 q only:        0.487       0.253      -0.289
   full:        0.670       0.615      -0.255       2.401

           -------------------------------------------------
          | TOTAL ENERGY             -100.785125457642 Eh   |
          | GRADIENT NORM               0.002849876781 Eh/α |
          | HOMO-LUMO GAP               0.967364736856 eV   |
           -------------------------------------------------

 * finished run on 2024/04/06 at 11:15:30.379
