   * xtb version 6.6.1 (8d0f1dd) compiled by 'conda@1efc2f54142f' on 2023-08-01
          program call               : xtb xtbopt.xyz --opt crude --input .xc2 --gfn2

   ID    Z sym.   atoms
    1    7 N      1, 17
    2    6 C      2-6, 8, 9, 11-16, 18-23, 25, 26, 28-33
    3    8 O      7, 10, 24, 27
    4    1 H      34-72
########################################################################
[WARNING] Please study the warnings concerning your input carefully
-1- readin_getIntValue: could not parse ''
########################################################################

          :  Hamiltonian                  GFN2-xTB          :
 * total energy  :   -99.2536433 Eh     change       -0.8625989E-11 Eh
 * total energy  :   -99.3630777 Eh     change       -0.1094344E+00 Eh
 * total energy  :   -99.3646830 Eh     change       -0.1605287E-02 Eh
 * total energy  :   -99.3655776 Eh     change       -0.8946107E-03 Eh
 * total energy  :   -99.3657006 Eh     change       -0.1230456E-03 Eh
   *** GEOMETRY OPTIMIZATION CONVERGED AFTER 5 ITERATIONS ***

 final structure:
================
72
 xtb: 6.6.1 (8d0f1dd)
N           -2.35140434774266        2.33883686409066        2.58950673392606
C           -2.22335835039875        2.64021302759339        1.38039335130128
C           -3.12257048320688        2.06977129636066        0.29723748477144
C           -3.52979741375565        0.61082608446938        0.48126206831368
C           -4.31422426432470        0.03962077774879       -0.52521250427277
C           -4.72624279791170       -1.28137388229083       -0.46347604748469
O           -5.50097312589791       -1.90112666028686       -1.37570188247033
C           -6.06118889816399       -1.15392329658666       -2.42996850084551
C           -4.31994207698159       -2.08858032790421        0.63618091759049
O           -4.75039780573424       -3.36306373911482        0.61034167316417
C           -4.43925638697655       -4.21622853342690        1.68770388170540
C           -3.53822283941355       -1.51359164702367        1.62711321423664
C           -3.15375717114498       -0.18221761320495        1.55322999517073
C           -2.41927297083109        2.20017885840205       -1.01174976561832
C           -1.45559709265567        1.19923333190990       -1.49840661756168
C           -0.33510930321829        0.89959540442436       -0.46948612892106
N            0.57025476002495       -0.10498296647158       -0.95561499777840
C            1.93456640734324       -0.04279397210406       -0.48501305585012
C            2.93188043941517       -0.40379438633368       -1.60284240206611
C            4.33741542365153       -0.19839322638378       -1.12095026623769
C            4.98675244680763        1.01269242683130       -1.32080760579322
C            6.26953519039153        1.22171891688160       -0.84199893269054
C            6.93510781433710        0.22177052176225       -0.14412188121795
O            8.17384361476764        0.31304496786870        0.36873180554894
C            8.90781100557126        1.50364828358594        0.19647836322676
C            6.27950494002270       -1.02580516960152        0.06573329586628
O            6.99677571121434       -1.94073714359337        0.74276267196083
C            6.44769558967516       -3.21572499696541        0.97878351358859
C            4.99412787062595       -1.20855072563601       -0.42326086853384
C            0.00192905575830       -1.42871599051745       -1.04012264925279
C           -4.41659617084728        2.96558845604520        0.32175526554031
C           -5.30278506439472        2.59748985002632        1.50695010190101
C           -4.09402969302993        4.45856663729990        0.36160975498894
H           -4.60820421347632        0.64748904879948       -1.36634679832081
H           -6.65889731634198       -0.31830263373480       -2.05387612513347
H           -6.70676668648452       -1.84580911187176       -2.96752066424231
H           -5.29139945635508       -0.77638574795618       -3.11061375184585
H           -4.83479995468031       -3.82990459613628        2.63154565475677
H           -4.91831575471518       -5.16570702134974        1.45688438078110
H           -3.35921574056944       -4.36815906886433        1.77904757138721
H           -3.22691989464710       -2.09635373798934        2.47883171795315
H           -2.57682868631687        0.23867942564622        2.35977376406008
H           -2.58849406584514        3.08492340353444       -1.60113659438176
H           -1.50575440459697        3.37389588894621        0.99848543010337
H           -1.96895666640841        0.24972325923382       -1.68860749025815
H           -0.99914366650427        1.53038808127270       -2.43131724958641
H           -0.80814039084446        0.59258397843769        0.47698226972321
H            0.22616200457721        1.81967975903945       -0.29659998174624
H            2.09444708779468       -0.71326086250202        0.37211583563065
H            2.15067956637709        0.97498635082366       -0.15465436625781
H            2.73039900818412        0.23680389814927       -2.46146651732586
H            2.78739343255585       -1.44046188075321       -1.90746782756689
H            4.49187234879766        1.80303480488961       -1.86398080278996
H            6.74867193567000        2.17068829206473       -1.01934583901089
H            8.40562466622558        2.35496174503253        0.66589350519659
H            9.07852352733023        1.71829189617727       -0.86256190456240
H            9.86297422352670        1.33168599997864        0.68894432684196
H            7.21656666346731       -3.77057593437245        1.51299946787948
H            5.54785585634234       -3.15562493383538        1.59900275937720
H            6.21373449585375       -3.73088402387357        0.04222594420315
H            4.49051142030949       -2.15054188187414       -0.27262641575460
H           -0.65766464891815       -1.49902043664407       -1.90612309847452
H           -0.58001233819626       -1.67937283692894       -0.14289035979867
H            0.79193333068264       -2.16421771019325       -1.16118786209607
H           -4.95899005946374        2.75769716567266       -0.60589107698703
H           -4.72445024435295        2.61005184781488        2.42829726329911
H           -5.73235438049647        1.60639747540711        1.38728833055193
H           -6.11365185435152        3.31595181104851        1.59591113589765
H           -3.71082530534573        4.74549474471464        1.33790471058041
H           -3.36562141862681        4.74084210416583       -0.39455631949317
H           -5.00175548981629        5.02829752218248        0.17785057501254
H           -1.74614534628732        2.81298201047726        3.25301125879523

          :  Hamiltonian                  GFN2-xTB          :
         :: total energy             -99.365700607597 Eh    ::
         :: gradient norm              0.003272906243 Eh/a0 ::
         :: HOMO-LUMO gap              0.950398404662 eV    ::
         :: SCC energy              -100.728934024195 Eh    ::
         :: -> dispersion             -0.074123066494 Eh    ::
         :: repulsion energy           1.361897452069 Eh    ::

    * Orbital Energies and Occupations

         #    Occupation            Energy/Eh            Energy/eV
      -------------------------------------------------------------
         1        2.0000           -0.8133453             -22.1323
       ...           ...                  ...                  ...
        78        1.9975           -0.5329317             -14.5018
        79        1.9968           -0.5287824             -14.3889
        80        1.9962           -0.5262374             -14.3196
        81        1.9953           -0.5230633             -14.2333
        82        1.9947           -0.5209875             -14.1768
        83        1.9945           -0.5204197             -14.1613
        84        1.9918           -0.5141494             -13.9907
        85        1.9671           -0.4918421             -13.3837
        86        1.9634           -0.4901647             -13.3381
        87        1.9205           -0.4775184             -12.9939
        88        1.8515           -0.4670377             -12.7087
        89        1.7840           -0.4605184             -12.5313
        90        1.7264           -0.4562599             -12.4155 (HOMO)
        91        0.8202           -0.4213334             -11.4651 (LUMO)
        92        0.0097           -0.3427920              -9.3278
        93        0.0021           -0.3182176              -8.6591
        94        0.0016           -0.3138836              -8.5412
        95        0.0015           -0.3134457              -8.5293
        96        0.0014           -0.3117390              -8.4828
        97        0.0000           -0.1921118              -5.2276
        98        0.0000           -0.1893742              -5.1531
        99                         -0.1027534              -2.7961
       100                         -0.0678620              -1.8466
       101                         -0.0634455              -1.7264
       ...                                ...                  ...
       171                          0.5732167              15.5980
      -------------------------------------------------------------
                  HL-Gap            0.0349265 Eh            0.9504 eV

     #   Z          covCN         q      C6AA      α(0)
     1   7 N        1.774    -0.276    27.983     7.833
     2   6 C        2.828     0.106    25.652     8.299
     3   6 C        3.910     0.013    20.298     6.404
     4   6 C        2.973     0.016    27.650     8.625
     5   6 C        2.922    -0.077    29.920     8.970
     6   6 C        2.861     0.132    25.115     8.214
     7   8 O        1.706    -0.224    17.717     5.683
     8   6 C        3.644     0.026    20.474     6.504
     9   6 C        2.864     0.133    25.092     8.211
    10   8 O        1.706    -0.220    17.653     5.673
    11   6 C        3.645     0.025    20.496     6.506
    12   6 C        2.914    -0.069    29.712     8.938
    13   6 C        2.920    -0.046    29.144     8.853
    14   6 C        2.906    -0.047    29.159     8.854
    15   6 C        3.802    -0.066    21.758     6.641
    16   6 C        3.751     0.003    20.594     6.472
    17   7 N        2.727    -0.109    23.384     7.182
    18   6 C        3.750     0.001    20.621     6.476
    19   6 C        3.808    -0.073    21.885     6.659
    20   6 C        2.968     0.010    27.779     8.645
    21   6 C        2.922    -0.044    29.087     8.844
    22   6 C        2.913    -0.065    29.619     8.924
    23   6 C        2.864     0.136    25.037     8.202
    24   8 O        1.706    -0.214    17.558     5.657
    25   6 C        3.645     0.023    20.521     6.511
    26   6 C        2.862     0.136    25.031     8.201
    27   8 O        1.706    -0.217    17.604     5.665
    28   6 C        3.645     0.025    20.490     6.506
    29   6 C        2.919    -0.076    29.893     8.966
    30   6 C        3.702    -0.050    21.626     6.649
    31   6 C        3.856    -0.006    20.647     6.462
    32   6 C        3.756    -0.117    22.800     6.808
    33   6 C        3.754    -0.112    22.701     6.794
    34   1 H        0.926     0.051     2.309     2.376
    35   1 H        0.924     0.055     2.253     2.347
    36   1 H        0.925     0.084     1.943     2.180
    37   1 H        0.924     0.051     2.309     2.376
    38   1 H        0.924     0.059     2.212     2.326
    39   1 H        0.925     0.083     1.944     2.180
    40   1 H        0.924     0.053     2.284     2.363
    41   1 H        0.926     0.058     2.220     2.330
    42   1 H        0.926     0.075     2.030     2.228
    43   1 H        0.926     0.058     2.225     2.332
    44   1 H        0.924     0.021     2.720     2.579
    45   1 H        0.924     0.077     2.011     2.218
    46   1 H        0.925     0.065     2.141     2.288
    47   1 H        0.923     0.038     2.476     2.461
    48   1 H        0.924     0.049     2.328     2.386
    49   1 H        0.923     0.040     2.453     2.449
    50   1 H        0.924     0.049     2.327     2.385
    51   1 H        0.925     0.063     2.163     2.300
    52   1 H        0.925     0.056     2.252     2.347
    53   1 H        0.926     0.054     2.270     2.356
    54   1 H        0.926     0.061     2.181     2.310
    55   1 H        0.924     0.058     2.226     2.333
    56   1 H        0.924     0.060     2.203     2.321
    57   1 H        0.925     0.085     1.929     2.172
    58   1 H        0.925     0.084     1.936     2.176
    59   1 H        0.924     0.053     2.278     2.360
    60   1 H        0.924     0.057     2.238     2.340
    61   1 H        0.926     0.053     2.280     2.361
    62   1 H        0.924     0.058     2.222     2.331
    63   1 H        0.923     0.039     2.459     2.453
    64   1 H        0.925     0.063     2.166     2.301
    65   1 H        0.924     0.045     2.381     2.413
    66   1 H        0.925     0.063     2.168     2.302
    67   1 H        0.925     0.043     2.408     2.427
    68   1 H        0.925     0.057     2.238     2.340
    69   1 H        0.925     0.045     2.377     2.411
    70   1 H        0.925     0.040     2.445     2.445
    71   1 H        0.925     0.056     2.252     2.347
    72   1 H        0.860     0.164     1.310     1.793

Wiberg/Mayer (AO) data.
largest (>0.10) Wiberg bond orders for each atom

     #   Z sym  total        # sym  WBO       # sym  WBO       # sym  WBO
 ---------------------------------------------------------------------------
     1   7 N    3.009 --     2 C    1.938    72 H    0.935
     2   6 C    3.904 --     1 N    1.938     3 C    0.954    44 H    0.937
     3   6 C    3.971 --    14 C    1.039     4 C    0.963     2 C    0.954
                            31 C    0.900
     4   6 C    3.914 --    13 C    1.407     5 C    1.367     3 C    0.963
     5   6 C    3.949 --     6 C    1.398     4 C    1.367    34 H    0.958
     6   6 C    3.887 --     5 C    1.398     9 C    1.210     7 O    1.104
     7   8 O    2.246 --     6 C    1.104     8 C    0.977
     8   6 C    3.929 --     7 O    0.977    36 H    0.976    35 H    0.973
                            37 H    0.972
     9   6 C    3.881 --    12 C    1.383     6 C    1.210    10 O    1.111
    10   8 O    2.248 --     9 C    1.111    11 C    0.976
    11   6 C    3.927 --    39 H    0.976    10 O    0.976    40 H    0.972
                            38 H    0.972
    12   6 C    3.951 --    13 C    1.410     9 C    1.383    41 H    0.962
    13   6 C    3.927 --    12 C    1.410     4 C    1.407    42 H    0.949
    14   6 C    3.217 --    15 C    1.095     3 C    1.039    43 H    0.966
    15   6 C    3.973 --    14 C    1.095    46 H    0.972    16 C    0.945
                            45 H    0.918
    16   6 C    3.935 --    17 N    1.019    48 H    0.970    47 H    0.948
                            15 C    0.945
    17   7 N    3.120 --    16 C    1.019    30 C    1.016    18 C    1.004
    18   6 C    3.961 --    17 N    1.004    19 C    0.970    50 H    0.970
                            49 H    0.958
    19   6 C    3.977 --    20 C    1.015    18 C    0.970    51 H    0.970
                            52 H    0.967
    20   6 C    3.923 --    21 C    1.389    29 C    1.385    19 C    1.015
    21   6 C    3.925 --    22 C    1.426    20 C    1.389    53 H    0.967
    22   6 C    3.948 --    21 C    1.426    23 C    1.372    54 H    0.962
    23   6 C    3.870 --    22 C    1.372    26 C    1.208    24 O    1.118
    24   8 O    2.247 --    23 C    1.118    25 C    0.975
    25   6 C    3.924 --    57 H    0.976    24 O    0.975    55 H    0.971
                            56 H    0.971
    26   6 C    3.877 --    29 C    1.387    23 C    1.208    27 O    1.113
    27   8 O    2.249 --    26 C    1.113    28 C    0.977
    28   6 C    3.927 --    27 O    0.977    58 H    0.976    59 H    0.972
                            60 H    0.972
    29   6 C    3.949 --    26 C    1.387    20 C    1.385    61 H    0.961
    30   6 C    3.968 --    17 N    1.016    64 H    0.978    62 H    0.970
                            63 H    0.966
    31   6 C    3.965 --    32 C    1.011    33 C    1.009    65 H    0.959
                             3 C    0.900
    32   6 C    3.980 --    31 C    1.011    67 H    0.982    68 H    0.979
                            66 H    0.974
    33   6 C    3.987 --    31 C    1.009    69 H    0.982    71 H    0.981
                            70 H    0.980
    34   1 H    0.996 --     5 C    0.958
    35   1 H    0.991 --     8 C    0.973
    36   1 H    0.992 --     8 C    0.976
    37   1 H    0.991 --     8 C    0.972
    38   1 H    0.990 --    11 C    0.972
    39   1 H    0.992 --    11 C    0.976
    40   1 H    0.991 --    11 C    0.972
    41   1 H    0.994 --    12 C    0.962
    42   1 H    0.992 --    13 C    0.949
    43   1 H    0.995 --    14 C    0.966
    44   1 H    0.981 --     2 C    0.937
    45   1 H    0.951 --    15 C    0.918
    46   1 H    0.994 --    15 C    0.972
    47   1 H    0.979 --    16 C    0.948
    48   1 H    0.996 --    16 C    0.970
    49   1 H    0.979 --    18 C    0.958
    50   1 H    0.997 --    18 C    0.970
    51   1 H    0.993 --    19 C    0.970
    52   1 H    0.994 --    19 C    0.967
    53   1 H    0.996 --    21 C    0.967
    54   1 H    0.994 --    22 C    0.962
    55   1 H    0.989 --    25 C    0.971
    56   1 H    0.989 --    25 C    0.971
    57   1 H    0.992 --    25 C    0.976
    58   1 H    0.992 --    28 C    0.976
    59   1 H    0.990 --    28 C    0.972
    60   1 H    0.990 --    28 C    0.972
    61   1 H    0.995 --    29 C    0.961
    62   1 H    0.988 --    30 C    0.970
    63   1 H    0.981 --    30 C    0.966
    64   1 H    0.995 --    30 C    0.978
    65   1 H    0.993 --    31 C    0.959
    66   1 H    0.993 --    32 C    0.974
    67   1 H    0.996 --    32 C    0.982
    68   1 H    0.994 --    32 C    0.979
    69   1 H    0.996 --    33 C    0.982
    70   1 H    0.997 --    33 C    0.980
    71   1 H    0.994 --    33 C    0.981
    72   1 H    0.962 --     1 N    0.935
 ---------------------------------------------------------------------------

molecular dipole:
                 x           y           z       tot (Debye)
 q only:        0.492       0.153      -0.317
   full:        0.674       0.525      -0.288       2.292

           -------------------------------------------------
          | TOTAL ENERGY              -99.365700607597 Eh   |
          | GRADIENT NORM               0.003272906243 Eh/α |
          | HOMO-LUMO GAP               0.950398404662 eV   |
           -------------------------------------------------

 * finished run on 2024/04/06 at 11:15:31.501
