   * xtb version 6.6.1 (8d0f1dd) compiled by 'conda@1efc2f54142f' on 2023-08-01
          program call               : xtb struc.xyz --opt loose --input .xc1 --gfn2

   ID    Z sym.   atoms
    1    7 N      1, 17
    2    6 C      2-6, 8, 9, 11-16, 18-23, 25, 26, 28-33
    3    8 O      7, 10, 24, 27
    4    1 H      34-72
constraining bond 4 66 to    4.7133300 Å, actual value:    3.3342400 Å

          :  Hamiltonian                  GFN2-xTB          :
 * total energy  :   -99.7437193 Eh     change       -0.4035485E-08 Eh
 * total energy  :  -100.1168492 Eh     change       -0.3731298E+00 Eh
 * total energy  :  -100.5794544 Eh     change       -0.4626052E+00 Eh
 * total energy  :  -101.1346110 Eh     change       -0.5551566E+00 Eh
 * total energy  :  -101.6368816 Eh     change       -0.5022706E+00 Eh
 * total energy  :  -101.6858626 Eh     change       -0.4898098E-01 Eh
 * total energy  :  -101.8047198 Eh     change       -0.1188572E+00 Eh
 * total energy  :  -101.8330962 Eh     change       -0.2837631E-01 Eh
 * total energy  :  -101.8821309 Eh     change       -0.4903475E-01 Eh
 * total energy  :  -101.8926573 Eh     change       -0.1052642E-01 Eh
 * total energy  :  -102.0743046 Eh     change       -0.1245849E-03 Eh
 * total energy  :  -102.0744065 Eh     change       -0.1019092E-03 Eh
 * total energy  :  -102.0745172 Eh     change       -0.1106691E-03 Eh
 * total energy  :  -102.0745949 Eh     change       -0.7774931E-04 Eh
 * total energy  :  -102.0746839 Eh     change       -0.8894362E-04 Eh
 * total energy  :  -102.0747389 Eh     change       -0.5507765E-04 Eh
 * total energy  :  -102.0748018 Eh     change       -0.6283680E-04 Eh
 * total energy  :  -102.0748573 Eh     change       -0.5556674E-04 Eh
 * total energy  :  -102.0748988 Eh     change       -0.4142135E-04 Eh
   *** GEOMETRY OPTIMIZATION CONVERGED AFTER 90 ITERATIONS ***

 final structure:
================
72
 xtb: 6.6.1 (8d0f1dd)
N           -2.69552288108374        3.13775285010980        2.23515368895357
C           -2.27858338241840        2.24088284643761        1.28646312473573
C           -2.83313377654747        2.46434465477587        0.08427222112309
C           -4.70936864254729        0.11607973390831        1.72159389916008
C           -5.21649307461826       -0.06210960614180        0.42638814491090
C           -4.90736454066067       -1.16901258322443       -0.34561260240217
O           -5.35330360587711       -1.40462624505535       -1.60336312233263
C           -6.33459264068362       -0.55379909200739       -2.14809393107266
C           -4.05396047751271       -2.16762565185959        0.18783145828670
O           -3.78710225117010       -3.21095164994849       -0.63628870504060
C           -3.18179317134754       -4.36234524393955       -0.09674196108564
C           -3.55323741916040       -2.00994909035252        1.47113982877929
C           -3.87570220523303       -0.88359064381418        2.21563087253316
C           -2.59584774314558        1.76121570126569       -1.20852492268586
C           -1.82422172235629        0.45233609629538       -1.04763542590447
C           -0.41472260638350        0.67293254869603       -0.66438440378144
N            0.37725520339146       -0.29075184739620       -0.21091511079140
C            1.77593284597090       -0.05058184503029        0.05159524635428
C            2.67056753921745       -0.52352289692912       -1.11112030248850
C            4.11397629553009       -0.24618892600019       -0.79483510312190
C            4.66367041542689        0.99926220344293       -1.04839553939077
C            5.98593147454865        1.27005960591311       -0.73080974696003
C            6.78577982819864        0.29753856278429       -0.14947752429340
O            8.07824390854237        0.44816446072950        0.20131705356125
C            8.71115758986325        1.68542312112552       -0.02877252168027
C            6.23180714390042       -0.98492658205183        0.11184246661887
O            7.08185345890493       -1.87322337261695        0.66831810500203
C            6.63697526372536       -3.18274494957481        0.92726528414913
C            4.90654082599157       -1.23087944035006       -0.20910825939139
C           -0.10940763106293       -1.64155669177098       -0.08084858273652
C           -3.79272925754751        3.62850624693767        0.18902657831100
C           -3.78707097065004        3.93569048888322        1.70151276785564
C           -3.33518088884678        4.82525447896433       -0.64923521332588
H           -5.88123537805876        0.69358250525297        0.03690506148989
H           -7.22131667608498       -0.50248548127580       -1.50946253417468
H           -6.60543945499306       -0.99568653057058       -3.10557237397545
H           -5.94647126228953        0.45728053561400       -2.31489348221047
H           -3.72812116464962       -4.73103505090616        0.77613161025873
H           -3.21956220500372       -5.10976381666705       -0.88738223361483
H           -2.13626525742871       -4.18018172140838        0.17817070679423
H           -2.92576696213593       -2.77098701521861        1.90839556437416
H           -3.47717124433138       -0.78986599370688        3.21558765301334
H           -3.56450957518258        1.54536225954552       -1.66792213943303
H           -2.05870761183413        2.42003900480353       -1.89819358803764
H           -2.33422696068493       -0.17345044752782       -0.30910405178165
H           -1.86405907633853       -0.09994092764088       -1.99570399313543
H           -1.54699326471548        1.49905301491122        1.55328832151061
H            0.01252989397373        1.65687330499463       -0.76283371451285
H            2.06223981944007       -0.57700434976882        0.96604709767229
H            1.93310745769813        1.01800834396881        0.20889247664518
H            2.37743183891765        0.00958352459675       -2.01714475277373
H            2.52242859396821       -1.59136060217891       -1.27646139507439
H            4.06519002687326        1.77023788368646       -1.50957853035195
H            6.38715819360561        2.24653576375618       -0.94693315086754
H            8.22378775986569        2.49407970252624        0.52461189034535
H            8.73282098561170        1.93272379251405       -1.09445104928807
H            9.73008869413248        1.56372611379795        0.33375452396290
H            7.49549903797345       -3.70547007973229        1.34451323159102
H            5.81955222893812       -3.19338575044595        1.65565913615272
H            6.31747114020893       -3.68730262842027        0.00994336471331
H            4.47866665173695       -2.20266487300768       -0.01783356322626
H           -0.46703849240968       -2.02348486295515       -1.03968956416271
H           -0.94014405225287       -1.67633037727880        0.62885398013590
H            0.68948453934903       -2.28378825011078        0.28100542219915
H           -4.79270407352881        3.33914501316176       -0.15096844240544
H           -4.89070037601140        0.71226237167785        2.12470470398341
H           -4.73767711898645        3.66362632415948        2.17369823504290
H           -3.60081424001516        4.99424675853565        1.89924405730750
H           -2.32425871709016        5.11741309538131       -0.37243165896520
H           -3.35170301224426        4.57440739704959       -1.70788973135734
H           -3.99878071907264        5.67076383634254       -0.49015549258124
H           -2.70762727427729        2.89232049281937        3.21127548548863

          :  Hamiltonian                  GFN2-xTB          :
         :: total energy            -102.074898763437 Eh    ::
         :: gradient norm              0.003438117135 Eh/a0 ::
         :: HOMO-LUMO gap              1.486181782338 eV    ::
         :: SCC energy              -100.836700610240 Eh    ::
         :: -> dispersion             -0.072704048813 Eh    ::
         :: repulsion energy           1.576018723101 Eh    ::

    * Orbital Energies and Occupations

         #    Occupation            Energy/Eh            Energy/eV
      -------------------------------------------------------------
         1        2.0000           -0.8049578             -21.9040
       ...           ...                  ...                  ...
        78        1.9994           -0.5334582             -14.5161
        79        1.9992           -0.5299788             -14.4215
        80        1.9990           -0.5261863             -14.3183
        81        1.9989           -0.5248381             -14.2816
        82        1.9988           -0.5233099             -14.2400
        83        1.9986           -0.5215093             -14.1910
        84        1.9981           -0.5161464             -14.0451
        85        1.9977           -0.5130432             -13.9606
        86        1.9877           -0.4866949             -13.2436
        87        1.9826           -0.4811068             -13.0916
        88        1.9232           -0.4571414             -12.4394
        89        1.8729           -0.4487325             -12.2106
        90        1.7955           -0.4405432             -11.9878 (HOMO)
        91        0.4363           -0.3859271             -10.5016 (LUMO)
        92        0.0053           -0.3121482              -8.4940
        93        0.0039           -0.3075240              -8.3682
        94        0.0033           -0.3048910              -8.2965
        95        0.0029           -0.3025519              -8.2329
        96        0.0011           -0.2870281              -7.8104
        97        0.0000           -0.1841200              -5.0102
        98        0.0000           -0.1798806              -4.8948
        99                         -0.1281353              -3.4867
       100                         -0.0799034              -2.1743
       101                         -0.0632345              -1.7207
       ...                                ...                  ...
       171                          1.5264417              41.5366
      -------------------------------------------------------------
                  HL-Gap            0.0546162 Eh            1.4862 eV

     #   Z          covCN         q      C6AA      α(0)
     1   7 N        2.727    -0.153    24.305     7.322
     2   6 C        2.909     0.013    27.728     8.635
     3   6 C        3.001    -0.027    28.658     8.782
     4   6 C        2.911    -0.078    29.936     8.972
     5   6 C        2.921    -0.074    29.840     8.958
     6   6 C        2.859     0.125    25.246     8.236
     7   8 O        1.705    -0.243    18.030     5.733
     8   6 C        3.644     0.031    20.393     6.491
     9   6 C        2.866     0.123    25.290     8.243
    10   8 O        1.705    -0.247    18.085     5.742
    11   6 C        3.644     0.030    20.412     6.494
    12   6 C        2.910    -0.078    29.946     8.973
    13   6 C        2.923    -0.050    29.232     8.866
    14   6 C        3.806    -0.063    21.710     6.633
    15   6 C        3.805    -0.069    21.822     6.650
    16   6 C        2.847    -0.000    28.033     8.678
    17   7 N        2.730     0.014    21.020     6.809
    18   6 C        3.754    -0.019    20.965     6.529
    19   6 C        3.807    -0.070    21.838     6.652
    20   6 C        2.969    -0.002    28.070     8.690
    21   6 C        2.922    -0.050    29.246     8.868
    22   6 C        2.914    -0.068    29.703     8.937
    23   6 C        2.865     0.132    25.113     8.214
    24   8 O        1.706    -0.226    17.754     5.689
    25   6 C        3.645     0.026    20.465     6.502
    26   6 C        2.863     0.132    25.119     8.215
    27   8 O        1.706    -0.229    17.793     5.695
    28   6 C        3.645     0.028    20.431     6.497
    29   6 C        2.920    -0.080    30.003     8.982
    30   6 C        3.703    -0.070    22.003     6.707
    31   6 C        3.897    -0.019    20.854     6.491
    32   6 C        3.801    -0.006    20.683     6.475
    33   6 C        3.753    -0.112    22.702     6.794
    34   1 H        0.926     0.043     2.409     2.427
    35   1 H        0.924     0.052     2.289     2.366
    36   1 H        0.925     0.076     2.018     2.221
    37   1 H        0.924     0.041     2.438     2.442
    38   1 H        0.924     0.054     2.272     2.357
    39   1 H        0.925     0.076     2.019     2.222
    40   1 H        0.924     0.037     2.494     2.470
    41   1 H        0.926     0.041     2.436     2.441
    42   1 H        0.926     0.036     2.505     2.475
    43   1 H        0.924     0.057     2.234     2.337
    44   1 H        0.924     0.061     2.192     2.315
    45   1 H        0.924     0.073     2.054     2.241
    46   1 H        0.923     0.079     1.987     2.204
    47   1 H        0.926     0.033     2.545     2.495
    48   1 H        0.926     0.073     2.049     2.239
    49   1 H        0.924     0.068     2.107     2.270
    50   1 H        0.924     0.070     2.090     2.261
    51   1 H        0.924     0.055     2.255     2.348
    52   1 H        0.924     0.054     2.275     2.359
    53   1 H        0.926     0.043     2.411     2.428
    54   1 H        0.926     0.056     2.245     2.343
    55   1 H        0.924     0.052     2.297     2.370
    56   1 H        0.924     0.054     2.273     2.358
    57   1 H        0.925     0.080     1.977     2.199
    58   1 H        0.925     0.080     1.981     2.201
    59   1 H        0.924     0.047     2.361     2.403
    60   1 H        0.924     0.051     2.313     2.378
    61   1 H        0.926     0.045     2.383     2.414
    62   1 H        0.924     0.079     1.987     2.204
    63   1 H        0.924     0.077     2.015     2.220
    64   1 H        0.925     0.080     1.983     2.202
    65   1 H        0.924     0.045     2.390     2.418
    66   1 H        0.931     0.097     1.814     2.106
    67   1 H        0.924     0.044     2.399     2.422
    68   1 H        0.924     0.065     2.142     2.289
    69   1 H        0.925     0.047     2.357     2.401
    70   1 H        0.925     0.047     2.359     2.402
    71   1 H        0.925     0.051     2.302     2.373
    72   1 H        0.860     0.163     1.317     1.798

Wiberg/Mayer (AO) data.
largest (>0.10) Wiberg bond orders for each atom

     #   Z sym  total        # sym  WBO       # sym  WBO       # sym  WBO
 ---------------------------------------------------------------------------
     1   7 N    3.265 --     2 C    1.183    32 C    0.999    72 H    0.946
     2   6 C    3.928 --     3 C    1.682     1 N    1.183    47 H    0.961
     3   6 C    3.859 --     2 C    1.682    14 C    1.026    31 C    0.996
     4   6 C    3.967 --    13 C    1.444     5 C    1.397    66 H    0.976
     5   6 C    3.969 --     6 C    1.404     4 C    1.397    34 H    0.964
     6   6 C    3.914 --     5 C    1.404     9 C    1.240     7 O    1.084
     7   8 O    2.243 --     6 C    1.084     8 C    0.981
     8   6 C    3.936 --     7 O    0.981    36 H    0.977    35 H    0.975
                            37 H    0.974
     9   6 C    3.912 --    12 C    1.395     6 C    1.240    10 O    1.079
    10   8 O    2.239 --     9 C    1.079    11 C    0.981
    11   6 C    3.938 --    10 O    0.981    39 H    0.977    38 H    0.975
                            40 H    0.975
    12   6 C    3.971 --    13 C    1.410     9 C    1.395    41 H    0.964
    13   6 C    3.966 --     4 C    1.444    12 C    1.410    42 H    0.971
    14   6 C    3.990 --     3 C    1.026    15 C    0.999    43 H    0.960
                            44 H    0.953
    15   6 C    3.988 --    16 C    1.064    14 C    0.999    45 H    0.939
                            46 H    0.927
    16   6 C    3.548 --    17 N    1.406    15 C    1.064    48 H    0.959
    17   7 N    3.467 --    16 C    1.406    30 C    1.001    18 C    0.989
    18   6 C    3.956 --    17 N    0.989    50 H    0.968    19 C    0.967
                            49 H    0.964
    19   6 C    3.977 --    20 C    1.007    52 H    0.972    51 H    0.971
                            18 C    0.967
    20   6 C    3.950 --    21 C    1.413    29 C    1.379    19 C    1.007
    21   6 C    3.956 --    22 C    1.415    20 C    1.413    53 H    0.968
    22   6 C    3.964 --    21 C    1.415    23 C    1.387    54 H    0.963
    23   6 C    3.902 --    22 C    1.387    26 C    1.225    24 O    1.104
    24   8 O    2.255 --    23 C    1.104    25 C    0.977
    25   6 C    3.931 --    24 O    0.977    57 H    0.977    55 H    0.973
                            56 H    0.973
    26   6 C    3.905 --    29 C    1.398    23 C    1.225    27 O    1.098
    27   8 O    2.254 --    26 C    1.098    28 C    0.980
    28   6 C    3.934 --    27 O    0.980    58 H    0.977    59 H    0.974
                            60 H    0.974
    29   6 C    3.962 --    26 C    1.398    20 C    1.379    61 H    0.963
    30   6 C    3.959 --    17 N    1.001    64 H    0.979    62 H    0.966
                            63 H    0.960
    31   6 C    3.988 --     3 C    0.996    33 C    0.993    32 C    0.990
                            65 H    0.957
    32   6 C    3.965 --     1 N    0.999    31 C    0.990    67 H    0.966
                            68 H    0.965
    33   6 C    3.981 --    31 C    0.993    69 H    0.987    70 H    0.984
                            71 H    0.983
    34   1 H    0.997 --     5 C    0.964
    35   1 H    0.995 --     8 C    0.975
    36   1 H    0.994 --     8 C    0.977
    37   1 H    0.996 --     8 C    0.974
    38   1 H    0.995 --    11 C    0.975
    39   1 H    0.993 --    11 C    0.977
    40   1 H    0.996 --    11 C    0.975
    41   1 H    0.997 --    12 C    0.964
    42   1 H    0.998 --    13 C    0.971
    43   1 H    0.992 --    14 C    0.960
    44   1 H    0.988 --    14 C    0.953
    45   1 H    0.981 --    15 C    0.939
    46   1 H    0.968 --    15 C    0.927
    47   1 H    0.999 --     2 C    0.961
    48   1 H    0.994 --    16 C    0.959
    49   1 H    0.991 --    18 C    0.964
    50   1 H    0.994 --    18 C    0.968
    51   1 H    0.996 --    19 C    0.971
    52   1 H    0.996 --    19 C    0.972
    53   1 H    0.998 --    21 C    0.968
    54   1 H    0.995 --    22 C    0.963
    55   1 H    0.993 --    25 C    0.973
    56   1 H    0.993 --    25 C    0.973
    57   1 H    0.993 --    25 C    0.977
    58   1 H    0.993 --    28 C    0.977
    59   1 H    0.994 --    28 C    0.974
    60   1 H    0.994 --    28 C    0.974
    61   1 H    0.997 --    29 C    0.963
    62   1 H    0.985 --    30 C    0.966
    63   1 H    0.986 --    30 C    0.960
    64   1 H    0.994 --    30 C    0.979
    65   1 H    0.988 --    31 C    0.957
    66   1 H    0.990 --     4 C    0.976
    67   1 H    0.986 --    32 C    0.966
    68   1 H    0.987 --    32 C    0.965
    69   1 H    0.997 --    33 C    0.987
    70   1 H    0.997 --    33 C    0.984
    71   1 H    0.996 --    33 C    0.983
    72   1 H    0.971 --     1 N    0.946
 ---------------------------------------------------------------------------

molecular dipole:
                 x           y           z       tot (Debye)
 q only:       -0.183       0.750       0.206
   full:       -0.475       0.644       0.436       2.316

           -------------------------------------------------
          | TOTAL ENERGY             -102.074898763437 Eh   |
          | GRADIENT NORM               0.003438117135 Eh/α |
          | HOMO-LUMO GAP               1.486181782338 eV   |
           -------------------------------------------------

 * finished run on 2024/04/06 at 11:12:55.080
