   * xtb version 6.6.1 (8d0f1dd) compiled by 'conda@1efc2f54142f' on 2023-08-01
          program call               : xtb xtbopt.xyz --opt crude --input .xc2 --gfn2

   ID    Z sym.   atoms
    1    7 N      1, 17
    2    6 C      2-6, 8, 9, 11-16, 18-23, 25, 26, 28-33
    3    8 O      7, 10, 24, 27
    4    1 H      34-72

          :  Hamiltonian                  GFN2-xTB          :
 * total energy  :   -99.2590919 Eh     change       -0.7105427E-12 Eh
 * total energy  :   -99.4161017 Eh     change       -0.1570098E+00 Eh
 * total energy  :   -99.4182803 Eh     change       -0.2178680E-02 Eh
 * total energy  :   -99.4188542 Eh     change       -0.5738963E-03 Eh
 * total energy  :   -99.4190239 Eh     change       -0.1696421E-03 Eh
   *** GEOMETRY OPTIMIZATION CONVERGED AFTER 5 ITERATIONS ***

 final structure:
================
72
 xtb: 6.6.1 (8d0f1dd)
N           -2.70221788429963        3.13388954694104        2.23123934433794
C           -2.28322566203786        2.23682886305209        1.28432162769004
C           -2.83189801105253        2.46154355216778        0.08069702369952
C           -4.70588807632670        0.06888891053102        1.70481283408151
C           -5.22196398306025       -0.07114441629932        0.42117804687162
C           -4.90385853222690       -1.17922019107241       -0.35215215897417
O           -5.34264981730143       -1.41032074474095       -1.61268336679337
C           -6.32424624824640       -0.55851490200420       -2.15460421270715
C           -4.05089174203531       -2.17709865193825        0.18457422359893
O           -3.78616685146646       -3.22340599086024       -0.64032771721352
C           -3.17807439120913       -4.37345322358753       -0.10192201916653
C           -3.54795910249099       -2.02435251100057        1.46728823377890
C           -3.87117635844977       -0.90212203729872        2.22371169216183
C           -2.59218044959460        1.76181243695250       -1.21359717496821
C           -1.82171892440335        0.45177897957687       -1.05516745717316
C           -0.41273917725000        0.67070973151946       -0.66786659674110
N            0.37711431738497       -0.29243702206518       -0.20954416837665
C            1.77579898079711       -0.05299353862311        0.05231890729742
C            2.66925112972370       -0.52258041817075       -1.11268134035457
C            4.11248801356698       -0.24521954019317       -0.79631177552374
C            4.66167365129708        1.00083617997648       -1.04777062192924
C            5.98375007525103        1.27158273644546       -0.72950319800327
C            6.78371720874862        0.29862880966046       -0.14912430691056
O            8.07623373286855        0.44929085637308        0.20139082484166
C            8.70977799182569        1.68575173004308       -0.03145135132218
C            6.22980564309956       -0.98392776199938        0.11148919693484
O            7.07902307966707       -1.87246926177887        0.66904264839664
C            6.63322963928744       -3.18194533677137        0.92705300074554
C            4.90492539174828       -1.23007370867438       -0.21082831364869
C           -0.11001311203128       -1.64303550669771       -0.08014623611684
C           -3.79069112590467        3.62821068457848        0.18478456877877
C           -3.78754537700203        3.93589301476788        1.69788041209891
C           -3.33119121822798        4.82672317482797       -0.64822869029501
H           -5.88531633359601        0.68585595953143        0.03852562967681
H           -7.21284145216860       -0.51411516614847       -1.51839309973780
H           -6.59176182624517       -0.99176840910026       -3.11644610836348
H           -5.93823857692316        0.45453078058220       -2.31121051578486
H           -3.72524037410779       -4.74622615484591        0.76848811381374
H           -3.20976468980660       -5.11994964714498       -0.89324869063471
H           -2.13427496759096       -4.18920908527381        0.17634055323625
H           -2.91925098720908       -2.78941624370671        1.89701366228448
H           -3.47684411572684       -0.80675835846556        3.22261439919038
H           -3.55937847738315        1.54842726166544       -1.67641139918780
H           -2.05296204248012        2.42405966321630       -1.89885164515351
H           -2.33437856342683       -0.17496055633194       -0.31935595997657
H           -1.85895840098337       -0.09775027682793       -2.00543046447889
H           -1.55306862035752        1.49586855460913        1.55668278187014
H            0.01550483611140        1.65429308366786       -0.76585453277925
H            2.06341288127051       -0.58176854627385        0.96501981081377
H            1.93316647200487        1.01516505178124        0.21226393520780
H            2.37489947360792        0.01289043290948       -2.01690137797698
H            2.52140398607092       -1.59003794657066       -1.28071155918100
H            4.06298704980869        1.77228853231035       -1.50783723416241
H            6.38459986503045        2.24855143415211       -0.94407264174744
H            8.22453054655999        2.49541852290704        0.52229428471006
H            8.72907352909936        1.93191753400398       -1.09742766445238
H            9.72942032801109        1.56339258878571        0.32875691719673
H            7.49132298075270       -3.70551226889884        1.34411392193780
H            5.81572488840386       -3.19239768279508        1.65534441441622
H            6.31351928314673       -3.68564776325219        0.00939587326537
H            4.47719780839343       -2.20217140968527       -0.02087029846724
H           -0.46543245109053       -2.02557358458364       -1.03943692777433
H           -0.94227892034632       -1.67710945969305        0.62740150820238
H            0.68766203565047       -2.28517878867413        0.28398360069238
H           -4.79015703077437        3.33930779138067       -0.15533722159931
H           -4.97336760736128        0.92623001641976        2.28989338718953
H           -4.74116454645287        3.66943309885040        2.16716054499891
H           -3.59850777640096        4.99397126790477        1.89578118457805
H           -2.32379906777456        5.11972691180873       -0.36332872635927
H           -3.33951442528708        4.58127833317302       -1.70677690920880
H           -3.99794597506491        5.67023816772399       -0.48973367052605
H           -2.69395594898165        2.89879143973160        3.20995508777541

          :  Hamiltonian                  GFN2-xTB          :
         :: total energy             -99.419023889775 Eh    ::
         :: gradient norm              0.008719069027 Eh/a0 ::
         :: HOMO-LUMO gap              1.476518782840 eV    ::
         :: SCC energy              -100.809607027976 Eh    ::
         :: -> dispersion             -0.072646550996 Eh    ::
         :: repulsion energy           1.388996271150 Eh    ::

    * Orbital Energies and Occupations

         #    Occupation            Energy/Eh            Energy/eV
      -------------------------------------------------------------
         1        2.0000           -0.8049072             -21.9026
       ...           ...                  ...                  ...
        78        1.9994           -0.5334026             -14.5146
        79        1.9992           -0.5301357             -14.4257
        80        1.9990           -0.5261307             -14.3167
        81        1.9988           -0.5239035             -14.2561
        82        1.9988           -0.5232174             -14.2375
        83        1.9986           -0.5214366             -14.1890
        84        1.9983           -0.5175617             -14.0836
        85        1.9977           -0.5129827             -13.9590
        86        1.9881           -0.4869968             -13.2519
        87        1.9827           -0.4810418             -13.0898
        88        1.9240           -0.4571618             -12.4400
        89        1.8734           -0.4486695             -12.2089
        90        1.7923           -0.4401261             -11.9764 (HOMO)
        91        0.4379           -0.3858650             -10.4999 (LUMO)
        92        0.0051           -0.3113385              -8.4720
        93        0.0038           -0.3067252              -8.3464
        94        0.0033           -0.3048083              -8.2943
        95        0.0029           -0.3024636              -8.2305
        96        0.0010           -0.2863146              -7.7910
        97        0.0000           -0.1826556              -4.9703
        98        0.0000           -0.1797724              -4.8919
        99                         -0.1278306              -3.4784
       100                         -0.0804034              -2.1879
       101                         -0.0637499              -1.7347
       ...                                ...                  ...
       171                          0.5843200              15.9002
      -------------------------------------------------------------
                  HL-Gap            0.0542611 Eh            1.4765 eV

     #   Z          covCN         q      C6AA      α(0)
     1   7 N        2.728    -0.151    24.263     7.316
     2   6 C        2.909     0.013    27.717     8.633
     3   6 C        3.000    -0.027    28.665     8.783
     4   6 C        2.917    -0.042    29.031     8.836
     5   6 C        2.916    -0.070    29.735     8.942
     6   6 C        2.864     0.127    25.216     8.231
     7   8 O        1.705    -0.242    18.011     5.730
     8   6 C        3.645     0.031    20.390     6.490
     9   6 C        2.863     0.122    25.309     8.246
    10   8 O        1.705    -0.248    18.113     5.746
    11   6 C        3.644     0.030    20.406     6.493
    12   6 C        2.915    -0.076    29.905     8.967
    13   6 C        2.917    -0.046    29.135     8.851
    14   6 C        3.806    -0.063    21.707     6.632
    15   6 C        3.805    -0.069    21.815     6.649
    16   6 C        2.847    -0.001    28.039     8.678
    17   7 N        2.730     0.013    21.023     6.810
    18   6 C        3.754    -0.019    20.964     6.529
    19   6 C        3.808    -0.070    21.837     6.652
    20   6 C        2.969    -0.002    28.071     8.691
    21   6 C        2.922    -0.050    29.247     8.869
    22   6 C        2.914    -0.068    29.704     8.937
    23   6 C        2.865     0.132    25.113     8.214
    24   8 O        1.706    -0.226    17.755     5.689
    25   6 C        3.645     0.026    20.464     6.501
    26   6 C        2.863     0.132    25.119     8.215
    27   8 O        1.706    -0.229    17.795     5.696
    28   6 C        3.645     0.028    20.431     6.497
    29   6 C        2.920    -0.080    30.003     8.982
    30   6 C        3.703    -0.070    21.999     6.706
    31   6 C        3.898    -0.019    20.854     6.491
    32   6 C        3.801    -0.005    20.665     6.472
    33   6 C        3.754    -0.112    22.706     6.795
    34   1 H        0.926     0.047     2.356     2.400
    35   1 H        0.924     0.053     2.288     2.365
    36   1 H        0.925     0.077     2.015     2.220
    37   1 H        0.924     0.041     2.437     2.441
    38   1 H        0.924     0.053     2.278     2.360
    39   1 H        0.925     0.076     2.020     2.223
    40   1 H        0.924     0.036     2.500     2.473
    41   1 H        0.926     0.042     2.425     2.435
    42   1 H        0.926     0.040     2.448     2.447
    43   1 H        0.924     0.057     2.237     2.339
    44   1 H        0.924     0.061     2.190     2.314
    45   1 H        0.924     0.072     2.062     2.245
    46   1 H        0.923     0.079     1.988     2.205
    47   1 H        0.926     0.033     2.546     2.495
    48   1 H        0.926     0.073     2.051     2.240
    49   1 H        0.924     0.068     2.108     2.271
    50   1 H        0.924     0.070     2.091     2.261
    51   1 H        0.924     0.055     2.256     2.349
    52   1 H        0.924     0.054     2.275     2.359
    53   1 H        0.926     0.043     2.412     2.429
    54   1 H        0.926     0.056     2.246     2.343
    55   1 H        0.924     0.052     2.297     2.370
    56   1 H        0.924     0.054     2.274     2.358
    57   1 H        0.925     0.080     1.977     2.199
    58   1 H        0.925     0.080     1.981     2.201
    59   1 H        0.924     0.047     2.362     2.403
    60   1 H        0.924     0.051     2.313     2.379
    61   1 H        0.926     0.045     2.384     2.414
    62   1 H        0.924     0.079     1.988     2.205
    63   1 H        0.924     0.076     2.018     2.222
    64   1 H        0.925     0.080     1.984     2.203
    65   1 H        0.924     0.045     2.388     2.417
    66   1 H        0.926     0.041     2.436     2.440
    67   1 H        0.924     0.044     2.402     2.424
    68   1 H        0.924     0.065     2.146     2.291
    69   1 H        0.925     0.047     2.355     2.400
    70   1 H        0.925     0.047     2.355     2.400
    71   1 H        0.925     0.051     2.302     2.373
    72   1 H        0.860     0.163     1.317     1.797

Wiberg/Mayer (AO) data.
largest (>0.10) Wiberg bond orders for each atom

     #   Z sym  total        # sym  WBO       # sym  WBO       # sym  WBO
 ---------------------------------------------------------------------------
     1   7 N    3.268 --     2 C    1.184    32 C    1.001    72 H    0.946
     2   6 C    3.928 --     3 C    1.681     1 N    1.184    47 H    0.961
     3   6 C    3.856 --     2 C    1.681    14 C    1.026    31 C    0.995
     4   6 C    3.969 --    13 C    1.450     5 C    1.406    66 H    0.970
     5   6 C    3.970 --     4 C    1.406     6 C    1.396    34 H    0.964
     6   6 C    3.914 --     5 C    1.396     9 C    1.242     7 O    1.085
     7   8 O    2.246 --     6 C    1.085     8 C    0.980
     8   6 C    3.936 --     7 O    0.980    36 H    0.977    35 H    0.975
                            37 H    0.974
     9   6 C    3.913 --    12 C    1.399     6 C    1.242    10 O    1.076
    10   8 O    2.235 --     9 C    1.076    11 C    0.981
    11   6 C    3.938 --    10 O    0.981    39 H    0.977    38 H    0.975
                            40 H    0.974
    12   6 C    3.971 --    13 C    1.402     9 C    1.399    41 H    0.964
    13   6 C    3.966 --     4 C    1.450    12 C    1.402    42 H    0.971
    14   6 C    3.989 --     3 C    1.026    15 C    0.999    43 H    0.960
                            44 H    0.953
    15   6 C    3.988 --    16 C    1.064    14 C    0.999    45 H    0.939
                            46 H    0.927
    16   6 C    3.547 --    17 N    1.405    15 C    1.064    48 H    0.959
    17   7 N    3.467 --    16 C    1.405    30 C    1.001    18 C    0.989
    18   6 C    3.956 --    17 N    0.989    50 H    0.968    19 C    0.967
                            49 H    0.964
    19   6 C    3.977 --    20 C    1.007    52 H    0.972    51 H    0.971
                            18 C    0.967
    20   6 C    3.951 --    21 C    1.414    29 C    1.379    19 C    1.007
    21   6 C    3.956 --    22 C    1.415    20 C    1.414    53 H    0.968
    22   6 C    3.964 --    21 C    1.415    23 C    1.387    54 H    0.963
    23   6 C    3.902 --    22 C    1.387    26 C    1.225    24 O    1.104
    24   8 O    2.255 --    23 C    1.104    25 C    0.977
    25   6 C    3.931 --    24 O    0.977    57 H    0.977    55 H    0.973
                            56 H    0.973
    26   6 C    3.905 --    29 C    1.398    23 C    1.225    27 O    1.098
    27   8 O    2.254 --    26 C    1.098    28 C    0.980
    28   6 C    3.934 --    27 O    0.980    58 H    0.977    59 H    0.974
                            60 H    0.974
    29   6 C    3.962 --    26 C    1.398    20 C    1.379    61 H    0.963
    30   6 C    3.959 --    17 N    1.001    64 H    0.979    62 H    0.966
                            63 H    0.960
    31   6 C    3.988 --     3 C    0.995    33 C    0.993    32 C    0.990
                            65 H    0.957
    32   6 C    3.965 --     1 N    1.001    31 C    0.990    67 H    0.965
                            68 H    0.964
    33   6 C    3.981 --    31 C    0.993    69 H    0.987    70 H    0.984
                            71 H    0.983
    34   1 H    0.997 --     5 C    0.964
    35   1 H    0.995 --     8 C    0.975
    36   1 H    0.994 --     8 C    0.977
    37   1 H    0.996 --     8 C    0.974
    38   1 H    0.995 --    11 C    0.975
    39   1 H    0.994 --    11 C    0.977
    40   1 H    0.996 --    11 C    0.974
    41   1 H    0.997 --    12 C    0.964
    42   1 H    0.998 --    13 C    0.971
    43   1 H    0.992 --    14 C    0.960
    44   1 H    0.988 --    14 C    0.953
    45   1 H    0.981 --    15 C    0.939
    46   1 H    0.968 --    15 C    0.927
    47   1 H    0.999 --     2 C    0.961
    48   1 H    0.995 --    16 C    0.959
    49   1 H    0.991 --    18 C    0.964
    50   1 H    0.994 --    18 C    0.968
    51   1 H    0.996 --    19 C    0.971
    52   1 H    0.996 --    19 C    0.972
    53   1 H    0.998 --    21 C    0.968
    54   1 H    0.995 --    22 C    0.963
    55   1 H    0.993 --    25 C    0.973
    56   1 H    0.993 --    25 C    0.973
    57   1 H    0.993 --    25 C    0.977
    58   1 H    0.993 --    28 C    0.977
    59   1 H    0.994 --    28 C    0.974
    60   1 H    0.994 --    28 C    0.974
    61   1 H    0.997 --    29 C    0.963
    62   1 H    0.985 --    30 C    0.966
    63   1 H    0.986 --    30 C    0.960
    64   1 H    0.994 --    30 C    0.979
    65   1 H    0.988 --    31 C    0.957
    66   1 H    0.998 --     4 C    0.970
    67   1 H    0.986 --    32 C    0.965
    68   1 H    0.987 --    32 C    0.964
    69   1 H    0.997 --    33 C    0.987
    70   1 H    0.997 --    33 C    0.984
    71   1 H    0.997 --    33 C    0.983
    72   1 H    0.972 --     1 N    0.946
 ---------------------------------------------------------------------------

molecular dipole:
                 x           y           z       tot (Debye)
 q only:       -0.175       0.722       0.167
   full:       -0.472       0.650       0.426       2.311

           -------------------------------------------------
          | TOTAL ENERGY              -99.419023889775 Eh   |
          | GRADIENT NORM               0.008719069027 Eh/α |
          | HOMO-LUMO GAP               1.476518782840 eV   |
           -------------------------------------------------

 * finished run on 2024/04/06 at 11:12:56.189
