   * xtb version 6.6.1 (8d0f1dd) compiled by 'conda@1efc2f54142f' on 2023-08-01
          program call               : xtb struc.xyz --opt loose --input .xc1 --gfn2

   ID    Z sym.   atoms
    1    6 C      1, 3, 5-7, 10, 11, 14
    2    7 N      2, 4, 9, 13
    3    8 O      8, 12
    4    1 H      15-25
constraining bond 5 17 to    4.7133300 Å, actual value:    3.9116783 Å

          :  Hamiltonian                  GFN2-xTB          :
 * total energy  :   -43.3953225 Eh     change       -0.6650680E-10 Eh
 * total energy  :   -46.2531900 Eh     change       -0.2857868E+01 Eh
 * total energy  :   -50.4916722 Eh     change       -0.4238482E+01 Eh
 * total energy  :   -56.1962496 Eh     change       -0.5704577E+01 Eh
 * total energy  :   -63.2702747 Eh     change       -0.7074025E+01 Eh
 * total energy  :   -71.0676645 Eh     change       -0.7797390E+01 Eh
 * total energy  :   -65.1695008 Eh     change        0.5898164E+01 Eh
 * total energy  :   -71.6310479 Eh     change       -0.6461547E+01 Eh
 * total energy  :   -72.4362565 Eh     change       -0.8052086E+00 Eh
 * total energy  :   -72.6178013 Eh     change       -0.1815448E+00 Eh
 * total energy  :   -73.3657465 Eh     change       -0.3361633E-04 Eh
 * total energy  :   -73.3657809 Eh     change       -0.3438899E-04 Eh
 * total energy  :   -73.3658089 Eh     change       -0.2800415E-04 Eh
 * total energy  :   -73.3658350 Eh     change       -0.2610933E-04 Eh
 * total energy  :   -73.3657186 Eh     change        0.1164188E-03 Eh
 * total energy  :   -73.3658435 Eh     change       -0.1249223E-03 Eh
 * total energy  :   -73.3655369 Eh     change        0.3066598E-03 Eh
 * total energy  :   -73.3658586 Eh     change       -0.3217265E-03 Eh
 * total energy  :   -73.3658621 Eh     change       -0.3517022E-05 Eh
   *** GEOMETRY OPTIMIZATION CONVERGED AFTER 72 ITERATIONS ***

 final structure:
================
25
 xtb: 6.6.1 (8d0f1dd)
C            4.79997888792743        0.33446484955648        0.08431620487335
N            3.97577099805306       -0.57034125613674       -0.17007961651388
C            3.12180164845134       -1.50796765440364       -0.01648241133173
N            1.80191705610027       -1.32483683793799       -0.00814956284685
C            1.23588550354822        0.00082819040967       -0.03919390077806
C           -0.14721405957848        0.08297885923674       -0.02119538381744
C           -0.74704742039826        1.45830838564192       -0.05035277564887
O           -0.16828029657282        2.51199212428453       -0.07510666854160
N           -2.10422695154363        1.25298966764384       -0.03506750381918
C           -3.09700742265792        2.29953835265274       -0.06221035157466
C           -2.41358649729829       -0.09164460313291        0.00744820476562
O           -3.49580801064685       -0.59857985130657        0.03799348258422
N           -1.19174371678360       -0.79055953968153        0.01449167754375
C           -1.19537363254940       -2.23142612516492        0.05806000266205
H            5.03125216141568        0.63496686765326        1.10173668244886
H            5.30836139268686        0.83319122367982       -0.73090763752895
H            1.46673732766992        0.30661997356747       -0.05495656648696
H            3.48969902808103       -2.52937497003555       -0.00953922784760
H           -2.60392596151388        3.23871468839966        0.18136751282331
H           -3.54706844755596        2.36899385023856       -1.05410001496265
H           -3.87829702201682        2.07624532272742        0.66339646415453
H           -0.69957486800288       -2.60097237557020        0.95790189307194
H           -0.74713522019991       -2.65590055453787       -0.84282009350721
H           -2.24268092663089       -2.53756463030457        0.09425179651525
H            1.20799796411660       -2.14242541586886        0.00036941165922

          :  Hamiltonian                  GFN2-xTB          :
         :: total energy             -73.365862100335 Eh    ::
         :: gradient norm              0.001936818980 Eh/a0 ::
         :: HOMO-LUMO gap              2.300652738002 eV    ::
         :: SCC energy               -42.737285683547 Eh    ::
         :: -> dispersion             -0.020524928751 Eh    ::
         :: repulsion energy           2.846047055457 Eh    ::

    * Orbital Energies and Occupations

         #    Occupation            Energy/Eh            Energy/eV
      -------------------------------------------------------------
         1        2.0000           -0.8769967             -23.8643
       ...           ...                  ...                  ...
        25        2.0000           -0.6650797             -18.0977
        26        1.9999           -0.6567156             -17.8701
        27        1.9999           -0.6519147             -17.7395
        28        1.9999           -0.6447241             -17.5438
        29        1.9997           -0.6300087             -17.1434
        30        1.9994           -0.6196223             -16.8608
        31        1.9993           -0.6176930             -16.8083
        32        1.9977           -0.5987617             -16.2931
        33        1.9972           -0.5957938             -16.2124
        34        1.9883           -0.5729189             -15.5899
        35        1.9557           -0.5515570             -15.0086
        36        1.9531           -0.5506335             -14.9835
        37        1.8709           -0.5339248             -14.5288 (HOMO)
        38        0.1300           -0.4493774             -12.2282 (LUMO)
        39        0.1031           -0.4454914             -12.1224
        40        0.0060           -0.3996335             -10.8746
        41        0.0001           -0.3257019              -8.8628
        42        0.0000           -0.3069592              -8.3528
        43                         -0.1999593              -5.4412
        44                         -0.1594790              -4.3396
        45                         -0.1230937              -3.3496
        46                         -0.0978843              -2.6636
        47                         -0.0725867              -1.9752
        48                         -0.0345183              -0.9393
       ...                                ...                  ...
        67                         14.0061972             381.1280
      -------------------------------------------------------------
                  HL-Gap            0.0845474 Eh            2.3007 eV

     #   Z          covCN         q      C6AA      α(0)
     1   6 C        2.765     0.025    27.426     8.577
     2   7 N        1.831    -0.002    21.993     6.949
     3   6 C        2.763     0.108    25.589     8.284
     4   7 N        2.704    -0.088    22.959     7.116
     5   6 C        2.839    -0.076    29.893     8.960
     6   6 C        3.040     0.018    27.578     8.613
     7   6 C        2.850     0.265    22.534     7.780
     8   8 O        0.857    -0.336    20.449     6.063
     9   7 N        2.786    -0.078    22.751     7.084
    10   6 C        3.690    -0.056    21.778     6.678
    11   6 C        2.828     0.321    21.555     7.608
    12   8 O        0.857    -0.344    20.596     6.085
    13   7 N        2.781    -0.065    22.499     7.045
    14   6 C        3.690    -0.066    21.972     6.708
    15   1 H        0.925     0.133     1.513     1.924
    16   1 H        0.925     0.143     1.440     1.877
    17   1 H        1.001     0.188     1.157     1.681
    18   1 H        0.925     0.124     1.584     1.968
    19   1 H        0.925     0.105     1.739     2.062
    20   1 H        0.924     0.096     1.825     2.113
    21   1 H        0.925     0.100     1.783     2.088
    22   1 H        0.924     0.075     2.029     2.228
    23   1 H        0.924     0.076     2.026     2.226
    24   1 H        0.924     0.120     1.611     1.985
    25   1 H        0.860     0.215     1.032     1.591

Wiberg/Mayer (AO) data.
largest (>0.10) Wiberg bond orders for each atom

     #   Z sym  total        # sym  WBO       # sym  WBO       # sym  WBO
 ---------------------------------------------------------------------------
     1   6 C    3.771 --     2 N    1.809    16 H    0.933    15 H    0.923
     2   7 N    3.505 --     1 C    1.809     3 C    1.515     4 N    0.131
     3   6 C    3.908 --     2 N    1.515     4 N    1.320    18 H    0.915
     4   7 N    3.546 --     3 C    1.320     5 C    1.064    25 H    0.914
                             2 N    0.131
     5   6 C    3.798 --     6 C    1.544     4 N    1.064    17 H    0.940
     6   6 C    3.905 --     5 C    1.544    13 N    1.189     7 C    0.967
     7   6 C    3.935 --     8 O    1.727     9 N    1.141     6 C    0.967
     8   8 O    2.035 --     7 C    1.727     9 N    0.143
     9   7 N    3.537 --     7 C    1.141    11 C    1.097    10 C    0.979
                             8 O    0.143    12 O    0.113
    10   6 C    3.913 --     9 N    0.979    19 H    0.970    21 H    0.965
                            20 H    0.958
    11   6 C    3.946 --    12 O    1.719     9 N    1.097    13 N    1.040
    12   8 O    2.049 --    11 C    1.719     9 N    0.113    13 N    0.110
    13   7 N    3.501 --     6 C    1.189    11 C    1.040    14 C    0.990
                            12 O    0.110
    14   6 C    3.936 --    13 N    0.990    22 H    0.965    23 H    0.965
                            24 H    0.962
    15   1 H    0.970 --     1 C    0.923
    16   1 H    0.972 --     1 C    0.933
    17   1 H    0.965 --     5 C    0.940
    18   1 H    0.976 --     3 C    0.915
    19   1 H    0.985 --    10 C    0.970
    20   1 H    0.978 --    10 C    0.958
    21   1 H    0.982 --    10 C    0.965
    22   1 H    0.988 --    14 C    0.965
    23   1 H    0.987 --    14 C    0.965
    24   1 H    0.985 --    14 C    0.962
    25   1 H    0.953 --     4 N    0.914
 ---------------------------------------------------------------------------

molecular dipole:
                 x           y           z       tot (Debye)
 q only:        3.763      -1.479       0.079
   full:        3.841      -1.801       0.136      10.790

           -------------------------------------------------
          | TOTAL ENERGY              -73.365862100335 Eh   |
          | GRADIENT NORM               0.001936818980 Eh/α |
          | HOMO-LUMO GAP               2.300652738002 eV   |
           -------------------------------------------------

 * finished run on 2024/06/05 at 20:00:25.405
