   * xtb version 6.6.1 (8d0f1dd) compiled by 'conda@1efc2f54142f' on 2023-08-01
          program call               : xtb xtbopt.xyz --opt crude --input .xc2 --gfn2

   ID    Z sym.   atoms
    1    6 C      1, 3, 5-7, 10, 11, 14
    2    7 N      2, 4, 9, 13
    3    8 O      8, 12
    4    1 H      15-25
########################################################################
[WARNING] Please study the warnings concerning your input carefully
-1- readin_getIntValue: could not parse ''
########################################################################

          :  Hamiltonian                  GFN2-xTB          :
 * total energy  :   -39.8912730 Eh     change       -0.6394885E-13 Eh
 * total energy  :   -42.1405886 Eh     change       -0.2249316E+01 Eh
 * total energy  :   -42.1647313 Eh     change       -0.2414273E-01 Eh
 * total energy  :   -42.1687723 Eh     change       -0.4040907E-02 Eh
 * total energy  :   -42.1631273 Eh     change        0.5644944E-02 Eh
 * total energy  :   -42.1706734 Eh     change       -0.7546088E-02 Eh
 * total energy  :   -42.1711607 Eh     change       -0.4873046E-03 Eh
 * total energy  :   -42.1716204 Eh     change       -0.4597228E-03 Eh
 * total energy  :   -42.1722521 Eh     change       -0.6316618E-03 Eh
 * total energy  :   -42.1726068 Eh     change       -0.3547176E-03 Eh
 * total energy  :   -42.1727905 Eh     change       -0.1836560E-03 Eh
   *** GEOMETRY OPTIMIZATION CONVERGED AFTER 11 ITERATIONS ***

 final structure:
================
25
 xtb: 6.6.1 (8d0f1dd)
C            4.83311313248146        0.35152482894737        0.08350875026509
N            3.96401719386383       -0.51471795746616       -0.16759479603421
C            3.14607628117067       -1.48548481074656       -0.00240959700195
N            1.81740154669178       -1.35812274443922       -0.00865327415632
C            1.14614777797758       -0.15434633433058       -0.04068824275638
C           -0.19242783833350        0.02561005123312       -0.02947113080986
C           -0.75678577923198        1.41219041062102       -0.06143341098021
O           -0.14569133564131        2.44772333443128       -0.09209717821020
N           -2.11554864445517        1.23820095317208       -0.03781271969098
C           -3.08585688688939        2.30528035837441       -0.05764197597401
C           -2.45644135605259       -0.10198475296094        0.00883803536036
O           -3.55214243418425       -0.57916501664507        0.04721578187946
N           -1.25627404589687       -0.82733710515494        0.01120698836731
C           -1.27754336176142       -2.26701605431097        0.05394465432448
H            5.11930132568112        0.60700146694476        1.10006535996789
H            5.31078291875945        0.87513439292773       -0.73439857476254
H            1.77265092535457        0.72253444291833       -0.07976209665100
H            3.55110163371684       -2.49266013682555        0.01971561902781
H           -2.57194412708212        3.23315421004301        0.18622744781094
H           -3.53912683525482        2.38725416346730       -1.04685244040013
H           -3.86791336794306        2.09630611715112        0.67120183053298
H           -0.79276075869926       -2.64296243085321        0.95736144566400
H           -0.81860661529544       -2.69539926546611       -0.83966026771685
H           -2.32784552259365       -2.56256713381399        0.07779509408467
H            1.25674768771830       -2.20191244560750        0.01256631575601

          :  Hamiltonian                  GFN2-xTB          :
         :: total energy             -42.172790461603 Eh    ::
         :: gradient norm              0.006841102293 Eh/a0 ::
         :: HOMO-LUMO gap              2.140434325789 eV    ::
         :: SCC energy               -42.735525070676 Eh    ::
         :: -> dispersion             -0.020416290311 Eh    ::
         :: repulsion energy           0.562766171717 Eh    ::

    * Orbital Energies and Occupations

         #    Occupation            Energy/Eh            Energy/eV
      -------------------------------------------------------------
         1        2.0000           -0.8752016             -23.8154
       ...           ...                  ...                  ...
        25        2.0000           -0.6596209             -17.9492
        26        1.9999           -0.6547215             -17.8159
        27        1.9999           -0.6498864             -17.6843
        28        1.9999           -0.6435274             -17.5113
        29        1.9997           -0.6277455             -17.0818
        30        1.9994           -0.6182156             -16.8225
        31        1.9993           -0.6158224             -16.7574
        32        1.9978           -0.5970127             -16.2455
        33        1.9974           -0.5943656             -16.1735
        34        1.9878           -0.5697378             -15.5034
        35        1.9560           -0.5492347             -14.9454
        36        1.9543           -0.5486075             -14.9284
        37        1.8524           -0.5292027             -14.4003 (HOMO)
        38        0.1606           -0.4505432             -12.2599 (LUMO)
        39        0.0912           -0.4409866             -11.9999
        40        0.0044           -0.3922949             -10.6749
        41        0.0000           -0.3204005              -8.7185
        42        0.0000           -0.2955562              -8.0425
        43                         -0.1738962              -4.7320
        44                         -0.1579616              -4.2984
        45                         -0.1194466              -3.2503
        46                         -0.0807235              -2.1966
        47                         -0.0763383              -2.0773
        48                         -0.0496255              -1.3504
       ...                                ...                  ...
        67                          0.6394848              17.4013
      -------------------------------------------------------------
                  HL-Gap            0.0786595 Eh            2.1404 eV

     #   Z          covCN         q      C6AA      α(0)
     1   6 C        2.765     0.022    27.495     8.587
     2   7 N        1.830    -0.008    22.113     6.968
     3   6 C        2.766     0.102    25.729     8.307
     4   7 N        2.692    -0.049    22.199     6.998
     5   6 C        2.840    -0.006    28.172     8.698
     6   6 C        2.984     0.020    27.557     8.611
     7   6 C        2.849     0.266    22.513     7.776
     8   8 O        0.857    -0.343    20.576     6.082
     9   7 N        2.789    -0.077    22.743     7.083
    10   6 C        3.690    -0.056    21.771     6.677
    11   6 C        2.831     0.321    21.561     7.609
    12   8 O        0.857    -0.348    20.661     6.094
    13   7 N        2.781    -0.062    22.447     7.037
    14   6 C        3.690    -0.064    21.929     6.702
    15   1 H        0.925     0.131     1.530     1.934
    16   1 H        0.925     0.141     1.452     1.884
    17   1 H        0.926     0.105     1.743     2.064
    18   1 H        0.925     0.124     1.582     1.967
    19   1 H        0.925     0.104     1.750     2.069
    20   1 H        0.924     0.095     1.832     2.117
    21   1 H        0.925     0.100     1.787     2.091
    22   1 H        0.924     0.073     2.053     2.241
    23   1 H        0.924     0.073     2.049     2.239
    24   1 H        0.924     0.118     1.627     1.995
    25   1 H        0.860     0.220     1.010     1.574

Wiberg/Mayer (AO) data.
largest (>0.10) Wiberg bond orders for each atom

     #   Z sym  total        # sym  WBO       # sym  WBO       # sym  WBO
 ---------------------------------------------------------------------------
     1   6 C    3.753 --     2 N    1.791    16 H    0.934    15 H    0.924
     2   7 N    3.478 --     1 C    1.791     3 C    1.507     4 N    0.122
     3   6 C    3.892 --     2 N    1.507     4 N    1.301    18 H    0.916
     4   7 N    3.572 --     3 C    1.301     5 C    1.129    25 H    0.912
                             2 N    0.122
     5   6 C    3.864 --     6 C    1.561     4 N    1.129    17 H    0.948
     6   6 C    3.906 --     5 C    1.561    13 N    1.168     7 C    0.969
     7   6 C    3.939 --     8 O    1.720     9 N    1.148     6 C    0.969
     8   8 O    2.031 --     7 C    1.720     9 N    0.144
     9   7 N    3.537 --     7 C    1.148    11 C    1.089    10 C    0.980
                             8 O    0.144    12 O    0.112
    10   6 C    3.915 --     9 N    0.980    19 H    0.971    21 H    0.965
                            20 H    0.959
    11   6 C    3.946 --    12 O    1.714     9 N    1.089    13 N    1.054
    12   8 O    2.039 --    11 C    1.714    13 N    0.113     9 N    0.112
    13   7 N    3.488 --     6 C    1.168    11 C    1.054    14 C    0.992
                            12 O    0.113
    14   6 C    3.937 --    13 N    0.992    22 H    0.966    23 H    0.966
                            24 H    0.964
    15   1 H    0.969 --     1 C    0.924
    16   1 H    0.972 --     1 C    0.934
    17   1 H    0.988 --     5 C    0.948
    18   1 H    0.975 --     3 C    0.916
    19   1 H    0.985 --    10 C    0.971
    20   1 H    0.979 --    10 C    0.959
    21   1 H    0.982 --    10 C    0.965
    22   1 H    0.987 --    14 C    0.966
    23   1 H    0.987 --    14 C    0.966
    24   1 H    0.985 --    14 C    0.964
    25   1 H    0.951 --     4 N    0.912
 ---------------------------------------------------------------------------

molecular dipole:
                 x           y           z       tot (Debye)
 q only:        3.826      -1.568       0.091
   full:        3.964      -1.831       0.155      11.105

           -------------------------------------------------
          | TOTAL ENERGY              -42.172790461603 Eh   |
          | GRADIENT NORM               0.006841102293 Eh/α |
          | HOMO-LUMO GAP               2.140434325789 eV   |
           -------------------------------------------------

 * finished run on 2024/06/05 at 20:00:25.833
