   * xtb version 6.6.1 (8d0f1dd) compiled by 'conda@1efc2f54142f' on 2023-08-01
          program call               : xtb struc.xyz --opt loose --input .xc1 --gfn2

   ID    Z sym.   atoms
    1    6 C      1, 3, 5-7, 10, 11, 14
    2    7 N      2, 4, 9, 13
    3    8 O      8, 12
    4    1 H      15-25
constraining bond 8 16 to    5.6333300 Å, actual value:    3.8788743 Å

          :  Hamiltonian                  GFN2-xTB          :
 * total energy  :   -47.7561232 Eh     change       -0.2401990E-09 Eh
 * total energy  :   -53.3256135 Eh     change       -0.5569490E+01 Eh
 * total energy  :   -60.7230474 Eh     change       -0.7397434E+01 Eh
 * total energy  :   -70.1830739 Eh     change       -0.9460027E+01 Eh
 * total energy  :   -81.6307162 Eh     change       -0.1144764E+02 Eh
 * total energy  :   -80.2743066 Eh     change        0.1356410E+01 Eh
 * total energy  :   -86.6647097 Eh     change       -0.6390403E+01 Eh
 * total energy  :   -87.4311390 Eh     change       -0.7664293E+00 Eh
 * total energy  :   -88.8654143 Eh     change       -0.1434275E+01 Eh
 * total energy  :   -88.7920750 Eh     change        0.7333932E-01 Eh
 * total energy  :   -89.0581994 Eh     change       -0.8788887E-03 Eh
 * total energy  :   -89.0584902 Eh     change       -0.2907786E-03 Eh
 * total energy  :   -89.0587308 Eh     change       -0.2406209E-03 Eh
 * total energy  :   -89.0588896 Eh     change       -0.1588117E-03 Eh
 * total energy  :   -89.0589814 Eh     change       -0.9175900E-04 Eh
 * total energy  :   -89.0590243 Eh     change       -0.4291639E-04 Eh
 * total energy  :   -89.0590469 Eh     change       -0.2264554E-04 Eh
 * total energy  :   -89.0590656 Eh     change       -0.1863857E-04 Eh
 * total energy  :   -89.0590838 Eh     change       -0.1824824E-04 Eh
   *** GEOMETRY OPTIMIZATION CONVERGED AFTER 36 ITERATIONS ***

 final structure:
================
25
 xtb: 6.6.1 (8d0f1dd)
C            3.20476210837454        0.96506285578816        0.26591448266307
N            2.22448547847561       -0.03141750358122        0.14030434050235
C            2.49789752190700       -1.35029169741347        0.07054672965291
N            1.33505524270489       -2.05768653348293        0.02674496010308
C            0.30242905120045       -1.17355337105265        0.03853199274581
C            0.84091820755830        0.11821044351935        0.10698168479790
C            0.03745118920942        1.25854733787339        0.11472457729564
O            2.76341037605530        2.12396020206583       -0.76312898093091
N           -1.28340338776787        0.98846440349737        0.08157296916572
C           -2.21509012172354        2.10071843078234        0.10962730563692
C           -1.88748585081271       -0.26615327426015        0.02241534687244
O           -3.08558548213106       -0.39888104335890       -0.00890733712432
N           -1.02942029810236       -1.38128648439002       -0.01031705599100
C           -1.60269673629445       -2.70774878729567       -0.08622884315475
H            3.15535802896874        1.45417667214317        1.24051334082683
H            2.69986334637300        2.02666488059135       -1.12358985082149
H            3.08880739055375        2.96199359927703       -0.35327772543125
H            3.47788230922730       -1.77156498072516        0.12262689810335
H           -1.64529435068089        3.02416362148492        0.15456274754269
H           -2.84281681256063        2.08446059002016       -0.78212947246503
H           -2.86830500617116        2.01800428262161        0.97928807647717
H           -1.31633791306247       -3.29869197542290        0.78458904347875
H           -1.28060766767981       -3.20999805408290       -0.99952925389454
H           -2.68619660074346       -2.59504840549443       -0.10188156878844
H            1.27535149122174       -3.06386666750548        0.00121721063646

          :  Hamiltonian                  GFN2-xTB          :
         :: total energy             -89.059083825848 Eh    ::
         :: gradient norm              0.003616967170 Eh/a0 ::
         :: HOMO-LUMO gap              1.815023843869 eV    ::
         :: SCC energy               -42.612364823876 Eh    ::
         :: -> dispersion             -0.022643626793 Eh    ::
         :: repulsion energy           2.853148207756 Eh    ::

    * Orbital Energies and Occupations

         #    Occupation            Energy/Eh            Energy/eV
      -------------------------------------------------------------
         1        2.0000           -0.9511743             -25.8828
       ...           ...                  ...                  ...
        25        1.9996           -0.6532445             -17.7757
        26        1.9995           -0.6477818             -17.6270
        27        1.9991           -0.6317538             -17.1909
        28        1.9988           -0.6239988             -16.9799
        29        1.9981           -0.6135502             -16.6956
        30        1.9975           -0.6071382             -16.5211
        31        1.9965           -0.5996775             -16.3181
        32        1.9950           -0.5907716             -16.0757
        33        1.9851           -0.5649495             -15.3731
        34        1.9825           -0.5610755             -15.2676
        35        1.9403           -0.5314416             -14.4613
        36        1.7987           -0.5007744             -13.6268
        37        1.6821           -0.4883275             -13.2881 (HOMO)
        38        0.4838           -0.4216266             -11.4730 (LUMO)
        39        0.1065           -0.3804087             -10.3514
        40        0.0352           -0.3532520              -9.6125
        41        0.0022           -0.2865893              -7.7985
        42        0.0006           -0.2564582              -6.9786
        43        0.0000           -0.1757473              -4.7823
        44        0.0000           -0.1592353              -4.3330
        45        0.0000           -0.1087987              -2.9606
        46        0.0000           -0.0917104              -2.4956
        47        0.0000           -0.0909495              -2.4749
        48                         -0.0374230              -1.0183
       ...                                ...                  ...
        67                          6.6699631             181.4989
      -------------------------------------------------------------
                  HL-Gap            0.0667009 Eh            1.8150 eV

     #   Z          covCN         q      C6AA      α(0)
     1   6 C        2.625    -0.103    30.574     9.044
     2   7 N        2.815     0.033    20.674     6.753
     3   6 C        3.022     0.037    27.140     8.545
     4   7 N        2.770    -0.072    22.639     7.067
     5   6 C        3.031     0.103    25.699     8.315
     6   6 C        3.084     0.015    27.593     8.611
     7   6 C        1.922    -0.146    35.217     9.584
     8   8 O        2.387    -0.296    18.883     5.869
     9   7 N        2.757    -0.012    21.481     6.884
    10   6 C        3.715    -0.061    21.806     6.671
    11   6 C        2.731     0.305    21.814     7.647
    12   8 O        0.859    -0.382    21.323     6.191
    13   7 N        2.738    -0.059    22.374     7.025
    14   6 C        3.697    -0.063    21.886     6.692
    15   1 H        0.924     0.070     2.088     2.260
    16   1 H        0.811     0.376     0.530     1.143
    17   1 H        0.802     0.385     0.513     1.125
    18   1 H        0.927     0.108     1.716     2.048
    19   1 H        0.925     0.093     1.850     2.127
    20   1 H        0.924     0.092     1.856     2.130
    21   1 H        0.924     0.094     1.843     2.123
    22   1 H        0.924     0.076     2.019     2.222
    23   1 H        0.924     0.076     2.023     2.224
    24   1 H        0.925     0.119     1.623     1.992
    25   1 H        0.860     0.211     1.050     1.606

Wiberg/Mayer (AO) data.
largest (>0.10) Wiberg bond orders for each atom

     #   Z sym  total        # sym  WBO       # sym  WBO       # sym  WBO
 ---------------------------------------------------------------------------
     1   6 C    2.752 --     2 N    1.043    15 H    0.944     8 O    0.682
     2   7 N    3.554 --     3 C    1.289     6 C    1.087     1 C    1.043
     3   6 C    3.657 --     2 N    1.289     4 N    1.232    18 H    0.958
     4   7 N    3.531 --     3 C    1.232     5 C    1.193    25 H    0.925
     5   6 C    3.813 --     6 C    1.256    13 N    1.197     4 N    1.193
     6   6 C    3.844 --     7 C    1.284     5 C    1.256     2 N    1.087
     7   6 C    2.709 --     6 C    1.284     9 N    1.276
     8   8 O    2.412 --    16 H    0.857    17 H    0.844     1 C    0.682
     9   7 N    3.541 --     7 C    1.276    11 C    1.091    10 C    0.985
                            12 O    0.114
    10   6 C    3.923 --     9 N    0.985    19 H    0.975    20 H    0.961
                            21 H    0.961
    11   6 C    3.905 --    12 O    1.666     9 N    1.091    13 N    1.053
    12   8 O    1.980 --    11 C    1.666    13 N    0.120     9 N    0.114
    13   7 N    3.497 --     5 C    1.197    11 C    1.053    14 C    0.980
                            12 O    0.120
    14   6 C    3.927 --    13 N    0.980    22 H    0.969    23 H    0.969
                            24 H    0.965
    15   1 H    0.971 --     1 C    0.944
    16   1 H    0.859 --     8 O    0.857
    17   1 H    0.850 --     8 O    0.844
    18   1 H    0.987 --     3 C    0.958
    19   1 H    0.988 --    10 C    0.975
    20   1 H    0.981 --    10 C    0.961
    21   1 H    0.980 --    10 C    0.961
    22   1 H    0.988 --    14 C    0.969
    23   1 H    0.988 --    14 C    0.969
    24   1 H    0.984 --    14 C    0.965
    25   1 H    0.953 --     4 N    0.925
 ---------------------------------------------------------------------------

molecular dipole:
                 x           y           z       tot (Debye)
 q only:        3.295       0.524      -0.475
   full:        2.989       0.020      -0.547       7.725

           -------------------------------------------------
          | TOTAL ENERGY              -89.059083825848 Eh   |
          | GRADIENT NORM               0.003616967170 Eh/α |
          | HOMO-LUMO GAP               1.815023843869 eV   |
           -------------------------------------------------

 * finished run on 2024/06/05 at 19:59:00.606
