   * xtb version 6.6.1 (8d0f1dd) compiled by 'conda@1efc2f54142f' on 2023-08-01
          program call               : xtb xtbopt.xyz --opt crude --input .xc2 --gfn2

   ID    Z sym.   atoms
    1    6 C      1, 3, 5-7, 10, 11, 14
    2    7 N      2, 4, 9, 13
    3    8 O      8, 12
    4    1 H      15-25
########################################################################
[WARNING] Please study the warnings concerning your input carefully
-1- readin_getIntValue: could not parse ''
########################################################################

          :  Hamiltonian                  GFN2-xTB          :
 * total energy  :   -39.7590832 Eh     change        0.1421085E-13 Eh
 * total energy  :   -42.0453306 Eh     change       -0.2286247E+01 Eh
 * total energy  :   -42.0747891 Eh     change       -0.2945853E-01 Eh
 * total energy  :   -42.0808121 Eh     change       -0.6023011E-02 Eh
 * total energy  :   -42.0840241 Eh     change       -0.3212024E-02 Eh
 * total energy  :   -42.0850280 Eh     change       -0.1003920E-02 Eh
 * total energy  :   -42.0856548 Eh     change       -0.6267532E-03 Eh
 * total energy  :   -42.0860064 Eh     change       -0.3516462E-03 Eh
 * total energy  :   -42.0863907 Eh     change       -0.3842511E-03 Eh
 * total energy  :   -42.0868048 Eh     change       -0.4141256E-03 Eh
 * total energy  :   -42.1689103 Eh     change       -0.1019672E-01 Eh
 * total energy  :   -42.1846792 Eh     change       -0.1576884E-01 Eh
 * total energy  :   -42.1967721 Eh     change       -0.1209298E-01 Eh
 * total energy  :   -42.2064033 Eh     change       -0.9631192E-02 Eh
 * total energy  :   -42.2123028 Eh     change       -0.5899478E-02 Eh
 * total energy  :   -42.2136027 Eh     change       -0.1299914E-02 Eh
 * total energy  :   -42.2155083 Eh     change       -0.1905549E-02 Eh
 * total energy  :   -42.2161014 Eh     change       -0.5930996E-03 Eh
 * total energy  :   -42.2165947 Eh     change       -0.4932935E-03 Eh
   *** GEOMETRY OPTIMIZATION CONVERGED AFTER 32 ITERATIONS ***

 final structure:
================
25
 xtb: 6.6.1 (8d0f1dd)
C            3.20435209622073        0.96776935036475        0.06507091877165
N            2.30323301521465       -0.02694913284521        0.10220472432248
C            2.54651027282591       -1.36882136745160        0.15492483039769
N            1.35558278849077       -2.04760776143948        0.09836100957115
C            0.35281005567420       -1.14554756328868        0.01518025410910
C            0.91802766659435        0.14283399945439        0.03077100779537
C            0.09447240262482        1.25345564201816        0.04835729569797
O            2.74051777285755        2.22146754532135       -0.14663405541412
N           -1.25063491444138        1.02638987088590       -0.05272334413328
C           -2.17780032833483        2.14000480126421       -0.08978677008821
C           -1.84703072259045       -0.22734452229494       -0.08589123178228
O           -3.04296515881269       -0.36325346200172       -0.14430353989710
N           -0.98765114879925       -1.34183532078922       -0.04923292696499
C           -1.56431238528852       -2.66928135097215       -0.02687903608286
H            4.24797912845769        0.75487299020216        0.22637180214119
H            0.44846301548873        2.26246630516364        0.12899460836967
H            3.46485956432943        2.85689453357664       -0.19809680823401
H            3.51051162791471       -1.82116636136797        0.22046775586712
H           -1.62801877293857        3.07476827729110       -0.15284640938808
H           -2.83507050551697        2.03591015304387       -0.95479790986590
H           -2.80428079426445        2.13667213973764        0.80254966912025
H           -1.31372781307942       -3.17924203026319        0.90441898955847
H           -1.21125047912280       -3.25365625782039       -0.87811169851736
H           -2.64619695590687       -2.55815669664948       -0.09348375306500
H            1.28205208650306       -3.05240523954004        0.10628623561013

          :  Hamiltonian                  GFN2-xTB          :
         :: total energy             -42.216594671900 Eh    ::
         :: gradient norm              0.008006449921 Eh/a0 ::
         :: HOMO-LUMO gap              1.216237867015 eV    ::
         :: SCC energy               -42.732390887613 Eh    ::
         :: -> dispersion             -0.022606230200 Eh    ::
         :: repulsion energy           0.515699791761 Eh    ::

    * Orbital Energies and Occupations

         #    Occupation            Energy/Eh            Energy/eV
      -------------------------------------------------------------
         1        2.0000           -0.8778015             -23.8862
       ...           ...                  ...                  ...
        25        1.9998           -0.6641731             -18.0731
        26        1.9996           -0.6538831             -17.7931
        27        1.9993           -0.6399868             -17.4149
        28        1.9992           -0.6349635             -17.2782
        29        1.9991           -0.6329293             -17.2229
        30        1.9985           -0.6204698             -16.8838
        31        1.9977           -0.6102313             -16.6052
        32        1.9975           -0.6085593             -16.5597
        33        1.9971           -0.6049278             -16.4609
        34        1.9918           -0.5800338             -15.7835
        35        1.9797           -0.5583861             -15.1945
        36        1.9602           -0.5421850             -14.7536
        37        1.4216           -0.4710082             -12.8168 (HOMO)
        38        0.5447           -0.4263123             -11.6005 (LUMO)
        39        0.0851           -0.3757054             -10.2235
        40        0.0284           -0.3489747              -9.4961
        41        0.0015           -0.2789382              -7.5903
        42        0.0000           -0.1896137              -5.1597
        43        0.0000           -0.1701666              -4.6305
        44        0.0000           -0.1221065              -3.3227
        45        0.0000           -0.1124371              -3.0596
        46        0.0000           -0.0961424              -2.6162
        47        0.0000           -0.0526541              -1.4328
        48                         -0.0275764              -0.7504
       ...                                ...                  ...
        67                          0.5350613              14.5598
      -------------------------------------------------------------
                  HL-Gap            0.0446959 Eh            1.2162 eV

     #   Z          covCN         q      C6AA      α(0)
     1   6 C        2.712     0.096    25.857     8.324
     2   7 N        2.804     0.067    20.081     6.656
     3   6 C        3.002    -0.004    28.118     8.698
     4   7 N        2.762    -0.065    22.506     7.046
     5   6 C        3.018     0.097    25.826     8.336
     6   6 C        3.066     0.018    27.549     8.607
     7   6 C        2.849    -0.010    28.264     8.713
     8   8 O        1.659    -0.337    19.666     5.987
     9   7 N        2.746    -0.021    21.664     6.913
    10   6 C        3.709    -0.069    21.957     6.697
    11   6 C        2.729     0.306    21.808     7.645
    12   8 O        0.859    -0.376    21.197     6.173
    13   7 N        2.737    -0.055    22.314     7.016
    14   6 C        3.697    -0.069    22.001     6.709
    15   1 H        0.926     0.074     2.038     2.233
    16   1 H        0.926     0.110     1.698     2.038
    17   1 H        0.805     0.344     0.603     1.220
    18   1 H        0.927     0.100     1.788     2.091
    19   1 H        0.925     0.090     1.883     2.146
    20   1 H        0.924     0.106     1.730     2.057
    21   1 H        0.924     0.102     1.770     2.081
    22   1 H        0.924     0.080     1.980     2.201
    23   1 H        0.924     0.080     1.974     2.197
    24   1 H        0.925     0.123     1.590     1.972
    25   1 H        0.860     0.216     1.026     1.587

Wiberg/Mayer (AO) data.
largest (>0.10) Wiberg bond orders for each atom

     #   Z sym  total        # sym  WBO       # sym  WBO       # sym  WBO
 ---------------------------------------------------------------------------
     1   6 C    3.474 --     2 N    1.246     8 O    1.119    15 H    0.958
     2   7 N    3.665 --     1 C    1.246     3 C    1.194     6 C    1.067
     3   6 C    3.564 --     2 N    1.194     4 N    1.190    18 H    0.961
     4   7 N    3.500 --     5 C    1.218     3 C    1.190    25 H    0.925
     5   6 C    3.791 --     6 C    1.234     4 N    1.218    13 N    1.174
     6   6 C    3.878 --     7 C    1.359     5 C    1.234     2 N    1.067
     7   6 C    3.624 --     6 C    1.359     9 N    1.196    16 H    0.951
     8   8 O    2.082 --     1 C    1.119    17 H    0.866
     9   7 N    3.492 --     7 C    1.196    11 C    1.102    10 C    0.984
                            12 O    0.121
    10   6 C    3.923 --     9 N    0.984    19 H    0.976    20 H    0.961
                            21 H    0.960
    11   6 C    3.911 --    12 O    1.670     9 N    1.102    13 N    1.050
    12   8 O    1.995 --    11 C    1.670    13 N    0.121     9 N    0.121
    13   7 N    3.455 --     5 C    1.174    11 C    1.050    14 C    0.982
                            12 O    0.121
    14   6 C    3.926 --    13 N    0.982    23 H    0.969    22 H    0.968
                            24 H    0.964
    15   1 H    0.993 --     1 C    0.958
    16   1 H    0.985 --     7 C    0.951
    17   1 H    0.881 --     8 O    0.866
    18   1 H    0.989 --     3 C    0.961
    19   1 H    0.990 --    10 C    0.976
    20   1 H    0.978 --    10 C    0.961
    21   1 H    0.978 --    10 C    0.960
    22   1 H    0.985 --    14 C    0.968
    23   1 H    0.985 --    14 C    0.969
    24   1 H    0.983 --    14 C    0.964
    25   1 H    0.952 --     4 N    0.925
 ---------------------------------------------------------------------------

molecular dipole:
                 x           y           z       tot (Debye)
 q only:        2.507      -0.302       0.115
   full:        3.106      -0.430       0.172       7.983

           -------------------------------------------------
          | TOTAL ENERGY              -42.216594671900 Eh   |
          | GRADIENT NORM               0.008006449921 Eh/α |
          | HOMO-LUMO GAP               1.216237867015 eV   |
           -------------------------------------------------

 * finished run on 2024/06/05 at 19:59:01.668
