   * xtb version 6.6.1 (8d0f1dd) compiled by 'conda@1efc2f54142f' on 2023-08-01
          program call               : xtb struc.xyz --opt loose --input .xc1 --gfn2

   ID    Z sym.   atoms
    1    6 C      1, 3, 5-7, 10, 11, 14
    2    7 N      2, 4, 9, 13
    3    8 O      8, 12
    4    1 H      15-25
constraining bond 11 12 to    3.7600000 Å, actual value:    1.1960413 Å

          :  Hamiltonian                  GFN2-xTB          :
 * total energy  :   -30.5221692 Eh     change       -0.2401990E-09 Eh
 * total energy  :   -34.6934119 Eh     change       -0.4171243E+01 Eh
 * total energy  :   -38.2224356 Eh     change       -0.3529024E+01 Eh
 * total energy  :   -40.4910909 Eh     change       -0.2268655E+01 Eh
 * total energy  :   -41.5026454 Eh     change       -0.1011555E+01 Eh
 * total energy  :   -41.7103279 Eh     change       -0.2076824E+00 Eh
 * total energy  :   -41.7242298 Eh     change       -0.1390197E-01 Eh
 * total energy  :   -41.7437062 Eh     change       -0.1947637E-01 Eh
 * total energy  :   -41.7745895 Eh     change       -0.3088329E-01 Eh
 * total energy  :   -41.8192661 Eh     change       -0.4467662E-01 Eh
 * total energy  :   -42.1852256 Eh     change       -0.2264944E-03 Eh
 * total energy  :   -42.1854085 Eh     change       -0.1828909E-03 Eh
 * total energy  :   -42.1855818 Eh     change       -0.1732842E-03 Eh
 * total energy  :   -42.1857027 Eh     change       -0.1209317E-03 Eh
 * total energy  :   -42.1857918 Eh     change       -0.8915531E-04 Eh
 * total energy  :   -42.1858669 Eh     change       -0.7503978E-04 Eh
 * total energy  :   -42.1859194 Eh     change       -0.5249082E-04 Eh
 * total energy  :   -42.1859701 Eh     change       -0.5072106E-04 Eh
 * total energy  :   -42.1859988 Eh     change       -0.2872285E-04 Eh
   *** GEOMETRY OPTIMIZATION CONVERGED AFTER 109 ITERATIONS ***

 final structure:
================
25
 xtb: 6.6.1 (8d0f1dd)
C            3.23113595088528        0.96180595465304        0.39164238357749
N            2.16728947834226       -0.00282211788229        0.33343899801651
C            2.27177382448756       -1.33157711507568        0.47129469136770
N            1.05209775394533       -1.90238177176154        0.32483774223580
C            0.14823553213393       -0.91243036720948        0.08408362784204
C            0.84519746389067        0.29194706583969        0.08797870019578
C            0.18300203957468        1.54477782936790       -0.14976698356979
O            0.67265973417900        2.65491018676912       -0.15913225367639
N           -1.20249974114942        1.33574219815063       -0.40273333182806
C           -1.95548008526164        2.54765175382789       -0.67430306814621
C           -1.86498113868893        0.19390278352093       -0.41348406201305
O           -1.21817224008684       -3.38872699834097        0.46738097869414
N           -1.19418056142762       -0.98732589050741       -0.12101036094662
C           -1.82460398513197       -2.33635482313561       -0.25995174648114
H            3.86698930045910        0.77376468761674        1.25603286686921
H            3.84212857284569        0.91025389880709       -0.51189625637372
H            2.79643352960276        1.95851362287430        0.46125903650147
H            3.17812985631225       -1.86508034132718        0.67025552462747
H           -1.40241324537568        3.16505358156461       -1.38444416367655
H           -2.93041619021872        2.27934968719833       -1.07296223869194
H           -2.07687184429280        3.12053304139245        0.24812470688827
H           -1.74686202632851       -2.61693867593694       -1.31865652996443
H           -2.88083736154667       -2.20918733528593       -0.01021478262382
H           -1.62316169308200       -3.47709781153907        1.33998990316040
H            0.82583859004558       -2.89004450198235        0.37340823592072

          :  Hamiltonian                  GFN2-xTB          :
         :: total energy             -42.185998816175 Eh    ::
         :: gradient norm              0.003912310207 Eh/a0 ::
         :: HOMO-LUMO gap              2.412282817028 eV    ::
         :: SCC energy               -42.678434427199 Eh    ::
         :: -> dispersion             -0.022332829153 Eh    ::
         :: repulsion energy           0.491960028776 Eh    ::

    * Orbital Energies and Occupations

         #    Occupation            Energy/Eh            Energy/eV
      -------------------------------------------------------------
         1        2.0000           -0.8948990             -24.3514
       ...           ...                  ...                  ...
        25        1.9994           -0.6642735             -18.0758
        26        1.9991           -0.6535265             -17.7834
        27        1.9988           -0.6464564             -17.5910
        28        1.9984           -0.6402238             -17.4214
        29        1.9973           -0.6266630             -17.0524
        30        1.9949           -0.6120414             -16.6545
        31        1.9935           -0.6060858             -16.4924
        32        1.9928           -0.6037580             -16.4291
        33        1.9903           -0.5965271             -16.2323
        34        1.9804           -0.5798008             -15.7772
        35        1.9686           -0.5684709             -15.4689
        36        1.9370           -0.5515479             -15.0084
        37        1.7327           -0.5145850             -14.0026 (HOMO)
        38        0.2686           -0.4259352             -11.5903 (LUMO)
        39        0.0956           -0.3991422             -10.8612
        40        0.0532           -0.3846762             -10.4676
        41        0.0007           -0.2827075              -7.6929
        42        0.0000           -0.2141797              -5.8281
        43        0.0000           -0.1840471              -5.0082
        44        0.0000           -0.1485533              -4.0423
        45        0.0000           -0.1285152              -3.4971
        46        0.0000           -0.1046764              -2.8484
        47                         -0.0675910              -1.8392
        48                         -0.0242984              -0.6612
       ...                                ...                  ...
        67                          0.5328247              14.4989
      -------------------------------------------------------------
                  HL-Gap            0.0886498 Eh            2.4123 eV

     #   Z          covCN         q      C6AA      α(0)
     1   6 C        3.690    -0.086    22.341     6.764
     2   7 N        2.826     0.061    20.182     6.672
     3   6 C        3.042     0.044    26.963     8.517
     4   7 N        2.785    -0.068    22.565     7.055
     5   6 C        3.045     0.111    25.507     8.283
     6   6 C        3.104    -0.012    28.182     8.699
     7   6 C        2.769     0.252    22.770     7.815
     8   8 O        0.857    -0.365    20.985     6.142
     9   7 N        2.746     0.012    21.048     6.814
    10   6 C        3.718    -0.068    21.932     6.690
    11   6 C        1.884    -0.072    33.080     9.289
    12   8 O        1.654    -0.413    21.111     6.203
    13   7 N        2.735    -0.031    21.849     6.942
    14   6 C        3.611     0.116    19.149     6.318
    15   1 H        0.925     0.100     1.784     2.089
    16   1 H        0.924     0.104     1.750     2.069
    17   1 H        0.925     0.129     1.543     1.942
    18   1 H        0.926     0.116     1.647     2.007
    19   1 H        0.924     0.107     1.720     2.051
    20   1 H        0.925     0.104     1.752     2.070
    21   1 H        0.924     0.101     1.772     2.082
    22   1 H        0.923     0.097     1.809     2.104
    23   1 H        0.924     0.093     1.853     2.129
    24   1 H        0.805     0.323     0.655     1.271
    25   1 H        0.860     0.245     0.903     1.489

Wiberg/Mayer (AO) data.
largest (>0.10) Wiberg bond orders for each atom

     #   Z sym  total        # sym  WBO       # sym  WBO       # sym  WBO
 ---------------------------------------------------------------------------
     1   6 C    3.916 --     2 N    0.990    15 H    0.964    17 H    0.961
                            16 H    0.955
     2   7 N    3.605 --     3 C    1.334     6 C    1.150     1 C    0.990
     3   6 C    3.743 --     2 N    1.334     4 N    1.263    18 H    0.955
     4   7 N    3.547 --     3 C    1.263     5 C    1.194    25 H    0.899
     5   6 C    3.881 --     6 C    1.328     4 N    1.194    13 N    1.176
     6   6 C    3.867 --     5 C    1.328     2 N    1.150     7 C    1.105
     7   6 C    3.866 --     8 O    1.657     6 C    1.105     9 N    1.014
     8   8 O    1.934 --     7 C    1.657     9 N    0.107
     9   7 N    3.601 --    11 C    1.417     7 C    1.014    10 C    0.980
                             8 O    0.107
    10   6 C    3.907 --     9 N    0.980    20 H    0.970    19 H    0.959
                            21 H    0.954
    11   6 C    2.797 --     9 N    1.417    13 N    1.200
    12   8 O    2.009 --    14 C    1.032    24 H    0.883
    13   7 N    3.529 --    11 C    1.200     5 C    1.176    14 C    0.936
    14   6 C    3.918 --    12 O    1.032    23 H    0.962    22 H    0.951
                            13 N    0.936
    15   1 H    0.984 --     1 C    0.964
    16   1 H    0.980 --     1 C    0.955
    17   1 H    0.981 --     1 C    0.961
    18   1 H    0.985 --     3 C    0.955
    19   1 H    0.979 --    10 C    0.959
    20   1 H    0.983 --    10 C    0.970
    21   1 H    0.978 --    10 C    0.954
    22   1 H    0.982 --    14 C    0.951
    23   1 H    0.987 --    14 C    0.962
    24   1 H    0.895 --    12 O    0.883
    25   1 H    0.939 --     4 N    0.899
 ---------------------------------------------------------------------------

molecular dipole:
                 x           y           z       tot (Debye)
 q only:        0.683      -1.698       0.445
   full:        0.958      -2.097       0.687       6.115

           -------------------------------------------------
          | TOTAL ENERGY              -42.185998816175 Eh   |
          | GRADIENT NORM               0.003912310207 Eh/α |
          | HOMO-LUMO GAP               2.412282817028 eV   |
           -------------------------------------------------

 * finished run on 2024/06/05 at 19:58:54.812
