   * xtb version 6.6.1 (8d0f1dd) compiled by 'conda@1efc2f54142f' on 2023-08-01
          program call               : xtb xtbopt.xyz --opt crude --input .xc2 --gfn2

   ID    Z sym.   atoms
    1    6 C      1, 3, 5-7, 10, 11, 14
    2    7 N      2, 4, 9, 13
    3    8 O      8, 12
    4    1 H      15-25
########################################################################
[WARNING] Please study the warnings concerning your input carefully
-1- readin_getIntValue: could not parse ''
########################################################################

          :  Hamiltonian                  GFN2-xTB          :
 * total energy  :   -42.1863690 Eh     change       -0.1016076E-11 Eh
 * total energy  :   -42.1901246 Eh     change       -0.3755614E-02 Eh
 * total energy  :   -42.1910164 Eh     change       -0.8917470E-03 Eh
 * total energy  :   -42.1913351 Eh     change       -0.3187060E-03 Eh
   *** GEOMETRY OPTIMIZATION CONVERGED AFTER 4 ITERATIONS ***

 final structure:
================
25
 xtb: 6.6.1 (8d0f1dd)
C            3.23923164613845        0.96659942006064        0.39484362944563
N            2.18287337348467       -0.00538353401303        0.32973366131097
C            2.30335337101770       -1.33410191913069        0.46071189822419
N            1.09236814117011       -1.92076004454241        0.30420256876942
C            0.17938394637276       -0.93900149494925        0.06452056072539
C            0.85790808721620        0.27513523390864        0.08150459705553
C            0.17692174141745        1.52123024517921       -0.14450258925705
O            0.65314463908069        2.63736808119968       -0.14723652323951
N           -1.20883072050349        1.29652591876158       -0.38405757551139
C           -1.97544475403259        2.49991068347556       -0.65077778813373
C           -1.84587393652872        0.13320850357877       -0.38884580387186
O           -1.26480266387866       -3.25034648443784        0.52437371303146
N           -1.16084653754442       -1.00621247229968       -0.15228489088370
C           -1.84384934346153       -2.29528972852778       -0.29805924132528
H            3.86894926373327        0.78392219751268        1.26485621613334
H            3.85729109730949        0.91624797929751       -0.50393287562257
H            2.79782690652598        1.96060926938930        0.45945712925893
H            3.21479935210426       -1.85698384011319        0.66415978276328
H           -1.43912582294906        3.11166785897374       -1.37690461137729
H           -2.95390880290821        2.22238886202770       -1.03120445992137
H           -2.08348787818938        3.08340170275909        0.26485132507091
H           -1.72466289729281       -2.63349218106480       -1.33747234871371
H           -2.90616988887325       -2.12247920680685       -0.09867145822488
H           -1.72281406998516       -3.31895131957605        1.37167458335024
H            0.86619726468955       -2.90697518906428        0.36023211884829

          :  Hamiltonian                  GFN2-xTB          :
         :: total energy             -42.191335101248 Eh    ::
         :: gradient norm              0.004344028859 Eh/a0 ::
         :: HOMO-LUMO gap              2.416461805459 eV    ::
         :: SCC energy               -42.692116898783 Eh    ::
         :: -> dispersion             -0.022441241844 Eh    ::
         :: repulsion energy           0.500669472821 Eh    ::

    * Orbital Energies and Occupations

         #    Occupation            Energy/Eh            Energy/eV
      -------------------------------------------------------------
         1        2.0000           -0.8946123             -24.3436
       ...           ...                  ...                  ...
        25        1.9994           -0.6633123             -18.0496
        26        1.9991           -0.6522406             -17.7484
        27        1.9988           -0.6456503             -17.5690
        28        1.9984           -0.6380713             -17.3628
        29        1.9973           -0.6259958             -17.0342
        30        1.9949           -0.6110058             -16.6263
        31        1.9937           -0.6057357             -16.4829
        32        1.9929           -0.6030199             -16.4090
        33        1.9900           -0.5947710             -16.1845
        34        1.9806           -0.5789458             -15.7539
        35        1.9685           -0.5672864             -15.4366
        36        1.9397           -0.5515099             -15.0073
        37        1.7317           -0.5133760             -13.9697 (HOMO)
        38        0.2661           -0.4245727             -11.5532 (LUMO)
        39        0.1017           -0.3995770             -10.8730
        40        0.0478           -0.3809640             -10.3666
        41        0.0007           -0.2808318              -7.6418
        42        0.0000           -0.1888615              -5.1392
        43        0.0000           -0.1766493              -4.8069
        44        0.0000           -0.1349985              -3.6735
        45        0.0000           -0.1243710              -3.3843
        46        0.0000           -0.0927899              -2.5249
        47                         -0.0598888              -1.6297
        48                         -0.0216554              -0.5893
       ...                                ...                  ...
        67                          0.5335781              14.5194
      -------------------------------------------------------------
                  HL-Gap            0.0888033 Eh            2.4165 eV

     #   Z          covCN         q      C6AA      α(0)
     1   6 C        3.690    -0.086    22.341     6.764
     2   7 N        2.826     0.061    20.184     6.673
     3   6 C        3.044     0.044    26.974     8.518
     4   7 N        2.783    -0.065    22.490     7.043
     5   6 C        3.054     0.108    25.564     8.292
     6   6 C        3.101    -0.011    28.165     8.697
     7   6 C        2.770     0.252    22.767     7.814
     8   8 O        0.857    -0.365    20.994     6.143
     9   7 N        2.748     0.004    21.190     6.837
    10   6 C        3.715    -0.068    21.935     6.692
    11   6 C        1.895    -0.075    33.161     9.300
    12   8 O        1.657    -0.416    21.163     6.210
    13   7 N        2.742    -0.015    21.541     6.893
    14   6 C        3.623     0.123    18.976     6.278
    15   1 H        0.925     0.100     1.784     2.089
    16   1 H        0.924     0.104     1.752     2.070
    17   1 H        0.925     0.129     1.544     1.943
    18   1 H        0.927     0.116     1.646     2.006
    19   1 H        0.924     0.106     1.731     2.057
    20   1 H        0.925     0.102     1.765     2.078
    21   1 H        0.924     0.101     1.775     2.084
    22   1 H        0.923     0.091     1.869     2.138
    23   1 H        0.924     0.090     1.882     2.145
    24   1 H        0.805     0.326     0.648     1.264
    25   1 H        0.860     0.244     0.906     1.491

Wiberg/Mayer (AO) data.
largest (>0.10) Wiberg bond orders for each atom

     #   Z sym  total        # sym  WBO       # sym  WBO       # sym  WBO
 ---------------------------------------------------------------------------
     1   6 C    3.916 --     2 N    0.991    15 H    0.964    17 H    0.961
                            16 H    0.955
     2   7 N    3.602 --     3 C    1.332     6 C    1.150     1 C    0.991
     3   6 C    3.739 --     2 N    1.332     4 N    1.263    18 H    0.955
     4   7 N    3.546 --     3 C    1.263     5 C    1.195    25 H    0.903
     5   6 C    3.875 --     6 C    1.332     4 N    1.195    13 N    1.160
     6   6 C    3.867 --     5 C    1.332     2 N    1.150     7 C    1.104
     7   6 C    3.869 --     8 O    1.657     6 C    1.104     9 N    1.018
     8   8 O    1.936 --     7 C    1.657     9 N    0.110
     9   7 N    3.591 --    11 C    1.392     7 C    1.018    10 C    0.982
                             8 O    0.110
    10   6 C    3.909 --     9 N    0.982    20 H    0.971    19 H    0.958
                            21 H    0.955
    11   6 C    2.822 --     9 N    1.392    13 N    1.247
    12   8 O    2.002 --    14 C    1.034    24 H    0.879
    13   7 N    3.558 --    11 C    1.247     5 C    1.160    14 C    0.942
    14   6 C    3.920 --    12 O    1.034    23 H    0.960    22 H    0.948
                            13 N    0.942
    15   1 H    0.984 --     1 C    0.964
    16   1 H    0.980 --     1 C    0.955
    17   1 H    0.981 --     1 C    0.961
    18   1 H    0.985 --     3 C    0.955
    19   1 H    0.979 --    10 C    0.958
    20   1 H    0.984 --    10 C    0.971
    21   1 H    0.977 --    10 C    0.955
    22   1 H    0.983 --    14 C    0.948
    23   1 H    0.988 --    14 C    0.960
    24   1 H    0.893 --    12 O    0.879
    25   1 H    0.940 --     4 N    0.903
 ---------------------------------------------------------------------------

molecular dipole:
                 x           y           z       tot (Debye)
 q only:        0.701      -1.768       0.415
   full:        0.943      -2.166       0.617       6.206

           -------------------------------------------------
          | TOTAL ENERGY              -42.191335101248 Eh   |
          | GRADIENT NORM               0.004344028859 Eh/α |
          | HOMO-LUMO GAP               2.416461805459 eV   |
           -------------------------------------------------

 * finished run on 2024/06/05 at 19:58:55.038
