   * xtb version 6.6.1 (8d0f1dd) compiled by 'conda@1efc2f54142f' on 2023-08-01
          program call               : xtb struc.xyz --opt loose --input .xc1 --gfn2

   ID    Z sym.   atoms
    1    6 C      1, 3, 5-7, 10, 11, 14
    2    7 N      2, 4, 9, 13
    3    8 O      8, 12
    4    1 H      15-25
constraining bond 6 25 to    3.7133300 Å, actual value:    3.1881491 Å

          :  Hamiltonian                  GFN2-xTB          :
 * total energy  :   -42.7525268 Eh     change       -0.2401990E-09 Eh
 * total energy  :   -44.6724220 Eh     change       -0.1919895E+01 Eh
 * total energy  :   -47.3680820 Eh     change       -0.2695660E+01 Eh
 * total energy  :   -50.5490887 Eh     change       -0.3181007E+01 Eh
 * total energy  :   -54.0767212 Eh     change       -0.3527632E+01 Eh
 * total energy  :   -56.9405614 Eh     change       -0.2863840E+01 Eh
 * total energy  :   -57.9449129 Eh     change       -0.1004351E+01 Eh
 * total energy  :   -58.9122234 Eh     change       -0.9673105E+00 Eh
 * total energy  :   -59.0287390 Eh     change       -0.1165156E+00 Eh
 * total energy  :   -56.0257893 Eh     change        0.3002950E+01 Eh
 * total energy  :   -59.7856491 Eh     change       -0.9467373E-04 Eh
 * total energy  :   -59.7857237 Eh     change       -0.7451521E-04 Eh
 * total energy  :   -59.7857845 Eh     change       -0.6086123E-04 Eh
 * total energy  :   -59.7858362 Eh     change       -0.5170922E-04 Eh
 * total energy  :   -59.7858750 Eh     change       -0.3878926E-04 Eh
 * total energy  :   -59.7859034 Eh     change       -0.2841751E-04 Eh
 * total energy  :   -59.7859227 Eh     change       -0.1922723E-04 Eh
 * total energy  :   -59.7859446 Eh     change       -0.2192113E-04 Eh
 * total energy  :   -59.7859640 Eh     change       -0.1946603E-04 Eh
   *** GEOMETRY OPTIMIZATION CONVERGED AFTER 80 ITERATIONS ***

 final structure:
================
25
 xtb: 6.6.1 (8d0f1dd)
C            4.14900780826919        1.42717553835588       -0.48248942458932
N            3.29988680049490        0.32433039348386       -0.52939125590733
C            2.72669305696170       -0.30750048205299        0.41853216253655
N            2.01832991763096       -1.39504818788732        0.25555260015304
C           -0.29062941533406       -1.01764011530590        0.09964415509817
C            0.83282487957747       -1.93661082167922        0.09501436915712
C           -0.30254303219224        0.42554100988683        0.30639774987325
O            0.62133533105067        1.17693544874397        0.55702253463975
N           -1.63102487051738        0.79550473029617        0.17391508276072
C           -2.13529499340434        2.13550925530428        0.29435831368550
C           -2.43146324699020       -0.30420703175919       -0.08524709085351
O           -3.61981575427004       -0.32021978792507       -0.24959102235758
N           -1.57861371447153       -1.41064139808402       -0.11963718579871
C           -2.04529172845849       -2.74176610870860       -0.37573854944356
H            4.58772655673572        1.60388807285839        0.50925450495365
H            4.95151688622629        1.27630502138760       -1.21210146067593
H            3.59261987314364        2.32211978722354       -0.78552038485169
H            2.94813937810209       -0.06349195798220        1.47238557754121
H           -1.29385171901447        2.80145457284370        0.48238371764661
H           -2.64786714869278        2.42678670306734       -0.62546228049515
H           -2.85122047759787        2.19642977149493        1.11738192527891
H           -1.80028292158588       -3.40375953397012        0.45755910458266
H           -1.59502116629490       -3.14062386078934       -1.28737000382048
H           -3.12791987686026       -2.69763680647892       -0.49708987550059
H            0.78319109155932       -2.35459567071732        0.04140835428739

          :  Hamiltonian                  GFN2-xTB          :
         :: total energy             -59.785964049788 Eh    ::
         :: gradient norm              0.002931944301 Eh/a0 ::
         :: HOMO-LUMO gap              0.597841008253 eV    ::
         :: SCC energy               -42.742766797276 Eh    ::
         :: -> dispersion             -0.020678705343 Eh    ::
         :: repulsion energy           2.271865309147 Eh    ::

    * Orbital Energies and Occupations

         #    Occupation            Energy/Eh            Energy/eV
      -------------------------------------------------------------
         1        2.0000           -0.8925197             -24.2867
       ...           ...                  ...                  ...
        25        1.9976           -0.6725123             -18.3000
        26        1.9941           -0.6513051             -17.7229
        27        1.9934           -0.6485424             -17.6477
        28        1.9898           -0.6384035             -17.3718
        29        1.9878           -0.6339660             -17.2511
        30        1.9831           -0.6262378             -17.0408
        31        1.9808           -0.6231392             -16.9565
        32        1.9620           -0.6067673             -16.5110
        33        1.9424           -0.5966096             -16.2346
        34        1.8691           -0.5762054             -15.6793
        35        1.8590           -0.5743270             -15.6282
        36        1.6443           -0.5494231             -14.9506
        37        1.5558           -0.5428349             -14.7713 (HOMO)
        38        1.1627           -0.5208646             -14.1734 (LUMO)
        39        0.0773           -0.4367186             -11.8837
        40        0.0076           -0.3807924             -10.3619
        41        0.0022           -0.3513482              -9.5607
        42        0.0008           -0.3270137              -8.8985
        43        0.0000           -0.1831958              -4.9850
        44        0.0000           -0.1361377              -3.7045
        45                         -0.1017796              -2.7696
        46                         -0.0457547              -1.2450
        47                         -0.0316281              -0.8606
        48                         -0.0079233              -0.2156
       ...                                ...                  ...
        67                         10.3777407             282.3927
      -------------------------------------------------------------
                  HL-Gap            0.0219703 Eh            0.5978 eV

     #   Z          covCN         q      C6AA      α(0)
     1   6 C        3.693    -0.050    21.656     6.658
     2   7 N        1.834    -0.089    23.725     7.218
     3   6 C        2.759     0.151    24.716     8.141
     4   7 N        1.897    -0.084    23.629     7.207
     5   6 C        3.021     0.005    27.896     8.664
     6   6 C        2.825     0.009    27.808     8.641
     7   6 C        2.845     0.261    22.618     7.794
     8   8 O        0.857    -0.353    20.770     6.110
     9   7 N        2.801    -0.065    22.504     7.046
    10   6 C        3.689    -0.056    21.782     6.679
    11   6 C        2.828     0.315    21.658     7.626
    12   8 O        0.857    -0.315    20.061     6.005
    13   7 N        2.793    -0.022    21.667     6.913
    14   6 C        3.690    -0.071    22.064     6.723
    15   1 H        0.923     0.106     1.727     2.055
    16   1 H        0.924     0.130     1.534     1.937
    17   1 H        0.924     0.129     1.540     1.941
    18   1 H        0.923     0.121     1.609     1.984
    19   1 H        0.925     0.117     1.639     2.002
    20   1 H        0.924     0.115     1.658     2.013
    21   1 H        0.924     0.115     1.655     2.012
    22   1 H        0.924     0.108     1.718     2.050
    23   1 H        0.924     0.108     1.718     2.049
    24   1 H        0.924     0.126     1.568     1.958
    25   1 H        0.994     0.193     1.128     1.660

Wiberg/Mayer (AO) data.
largest (>0.10) Wiberg bond orders for each atom

     #   Z sym  total        # sym  WBO       # sym  WBO       # sym  WBO
 ---------------------------------------------------------------------------
     1   6 C    3.853 --     2 N    1.092    16 H    0.915    15 H    0.909
                            17 H    0.905
     2   7 N    2.794 --     3 C    1.580     1 C    1.092
     3   6 C    3.896 --     2 N    1.580     4 N    1.356    18 H    0.850
     4   7 N    3.064 --     6 C    1.533     3 C    1.356
     5   6 C    3.636 --     6 C    1.198    13 N    1.197     7 C    1.063
     6   6 C    3.812 --     4 N    1.533     5 C    1.198    25 H    0.932
     7   6 C    3.886 --     8 O    1.625     9 N    1.107     5 C    1.063
     8   8 O    1.871 --     7 C    1.625     9 N    0.110
     9   7 N    3.467 --     7 C    1.107    11 C    1.091    10 C    0.992
                             8 O    0.110    12 O    0.104
    10   6 C    3.868 --     9 N    0.992    19 H    0.958    20 H    0.941
                            21 H    0.940
    11   6 C    3.914 --    12 O    1.683     9 N    1.091    13 N    1.058
    12   8 O    1.937 --    11 C    1.683     9 N    0.104
    13   7 N    3.437 --     5 C    1.197    11 C    1.058    14 C    0.997
    14   6 C    3.890 --    13 N    0.997    24 H    0.958    22 H    0.947
                            23 H    0.946
    15   1 H    0.914 --     1 C    0.909
    16   1 H    0.934 --     1 C    0.915
    17   1 H    0.933 --     1 C    0.905
    18   1 H    0.888 --     3 C    0.850
    19   1 H    0.972 --    10 C    0.958
    20   1 H    0.957 --    10 C    0.941
    21   1 H    0.956 --    10 C    0.940
    22   1 H    0.963 --    14 C    0.947
    23   1 H    0.962 --    14 C    0.946
    24   1 H    0.975 --    14 C    0.958
    25   1 H    0.954 --     6 C    0.932
 ---------------------------------------------------------------------------

molecular dipole:
                 x           y           z       tot (Debye)
 q only:        1.499      -0.582      -0.015
   full:        1.488      -0.500       0.231       4.033

           -------------------------------------------------
          | TOTAL ENERGY              -59.785964049788 Eh   |
          | GRADIENT NORM               0.002931944301 Eh/α |
          | HOMO-LUMO GAP               0.597841008253 eV   |
           -------------------------------------------------

 * finished run on 2024/06/05 at 19:59:00.344
