   * xtb version 6.6.1 (8d0f1dd) compiled by 'conda@1efc2f54142f' on 2023-08-01
          program call               : xtb xtbopt.xyz --opt crude --input .xc2 --gfn2

   ID    Z sym.   atoms
    1    6 C      1, 3, 5-7, 10, 11, 14
    2    7 N      2, 4, 9, 13
    3    8 O      8, 12
    4    1 H      15-25
########################################################################
[WARNING] Please study the warnings concerning your input carefully
-1- readin_getIntValue: could not parse ''
########################################################################

          :  Hamiltonian                  GFN2-xTB          :
 * total energy  :   -40.4708300 Eh     change       -0.2629008E-12 Eh
 * total energy  :   -42.1724289 Eh     change       -0.1701599E+01 Eh
 * total energy  :   -42.1942166 Eh     change       -0.2178772E-01 Eh
 * total energy  :   -42.1978749 Eh     change       -0.3658346E-02 Eh
 * total energy  :   -42.1993563 Eh     change       -0.1481381E-02 Eh
 * total energy  :   -42.1999689 Eh     change       -0.6126034E-03 Eh
 * total energy  :   -42.2005143 Eh     change       -0.5453578E-03 Eh
 * total energy  :   -42.2008234 Eh     change       -0.3091382E-03 Eh
 * total energy  :   -42.2010777 Eh     change       -0.2543267E-03 Eh
 * total energy  :   -42.2011978 Eh     change       -0.1201112E-03 Eh
   *** GEOMETRY OPTIMIZATION CONVERGED AFTER 10 ITERATIONS ***

 final structure:
================
25
 xtb: 6.6.1 (8d0f1dd)
C            4.15483892123331        1.45295160743546       -0.48018339148341
N            3.30685565468650        0.34864791695793       -0.52577570692473
C            2.76423511940253       -0.29390941025580        0.43231417237002
N            2.04606440664832       -1.37991632101971        0.28206953009048
C           -0.28989991931525       -0.99323137803337        0.07541057910616
C            0.85407050592387       -1.80923000070655        0.10569112554183
C           -0.30630349611653        0.45072646403798        0.28254254737595
O            0.61409425463701        1.20988647023819        0.51944045514924
N           -1.63805646915724        0.81166456850186        0.16907875014821
C           -2.15081239976601        2.14716904306768        0.30039773173254
C           -2.43379423810036       -0.29301563871821       -0.08077458225807
O           -3.62503219906317       -0.31708373647337       -0.22699867448171
N           -1.57786125391085       -1.39537900075119       -0.13019353349356
C           -2.05146411165362       -2.72618108345807       -0.37407572026381
H            4.54609333859789        1.66726415366979        0.52404213478729
H            4.98947035851395        1.28174654269930       -1.16753566122349
H            3.61002129616005        2.33355209681282       -0.83998730986010
H            3.01603904357879       -0.06235791229974        1.48291644603745
H           -1.31340264569894        2.81700583572952        0.49219502291531
H           -2.66608671677533        2.44215376822028       -0.61642621597378
H           -2.86550964080695        2.19523992283267        1.12507799347546
H           -1.81431964337845       -3.38209277868220        0.46653702539198
H           -1.60699008552356       -3.13563216645385       -1.28384303823816
H           -3.13437459907597       -2.67459489574807       -0.49456094830479
H            0.73255603302759       -2.87714552599711       -0.00618711371564

          :  Hamiltonian                  GFN2-xTB          :
         :: total energy             -42.201197833714 Eh    ::
         :: gradient norm              0.007067189826 Eh/a0 ::
         :: HOMO-LUMO gap              0.624994641616 eV    ::
         :: SCC energy               -42.738294888706 Eh    ::
         :: -> dispersion             -0.020607826948 Eh    ::
         :: repulsion energy           0.537029548971 Eh    ::

    * Orbital Energies and Occupations

         #    Occupation            Energy/Eh            Energy/eV
      -------------------------------------------------------------
         1        2.0000           -0.8914023             -24.2563
       ...           ...                  ...                  ...
        25        1.9973           -0.6690834             -18.2067
        26        1.9942           -0.6505348             -17.7020
        27        1.9933           -0.6470254             -17.6065
        28        1.9900           -0.6374323             -17.3454
        29        1.9880           -0.6330578             -17.2264
        30        1.9832           -0.6251034             -17.0099
        31        1.9802           -0.6211325             -16.9019
        32        1.9619           -0.6053917             -16.4735
        33        1.9415           -0.5949298             -16.1889
        34        1.8700           -0.5750786             -15.6487
        35        1.8600           -0.5731983             -15.5975
        36        1.6568           -0.5491483             -14.9431
        37        1.5697           -0.5424915             -14.7619 (HOMO)
        38        1.1621           -0.5195234             -14.1370 (LUMO)
        39        0.0506           -0.4250294             -11.5656
        40        0.0082           -0.3812128             -10.3733
        41        0.0021           -0.3487615              -9.4903
        42        0.0005           -0.3158560              -8.5949
        43        0.0000           -0.1814651              -4.9379
        44        0.0000           -0.1348507              -3.6695
        45                         -0.0874333              -2.3792
        46                         -0.0558196              -1.5189
        47                         -0.0366961              -0.9986
        48                         -0.0179162              -0.4875
       ...                                ...                  ...
        67                          0.5559984              15.1295
      -------------------------------------------------------------
                  HL-Gap            0.0229681 Eh            0.6250 eV

     #   Z          covCN         q      C6AA      α(0)
     1   6 C        3.695    -0.050    21.648     6.656
     2   7 N        1.833    -0.090    23.751     7.222
     3   6 C        2.764     0.152    24.690     8.137
     4   7 N        1.843    -0.065    23.240     7.144
     5   6 C        3.005     0.013    27.703     8.634
     6   6 C        2.827     0.065    26.527     8.440
     7   6 C        2.847     0.263    22.572     7.786
     8   8 O        0.857    -0.353    20.761     6.109
     9   7 N        2.801    -0.065    22.505     7.046
    10   6 C        3.690    -0.056    21.777     6.679
    11   6 C        2.832     0.315    21.652     7.625
    12   8 O        0.857    -0.318    20.109     6.012
    13   7 N        2.791    -0.022    21.663     6.913
    14   6 C        3.690    -0.071    22.047     6.720
    15   1 H        0.923     0.104     1.746     2.067
    16   1 H        0.924     0.129     1.545     1.944
    17   1 H        0.924     0.129     1.541     1.941
    18   1 H        0.922     0.117     1.638     2.001
    19   1 H        0.925     0.116     1.643     2.004
    20   1 H        0.924     0.114     1.662     2.016
    21   1 H        0.924     0.114     1.661     2.015
    22   1 H        0.924     0.105     1.740     2.063
    23   1 H        0.924     0.106     1.734     2.059
    24   1 H        0.924     0.126     1.564     1.956
    25   1 H        0.926     0.120     1.615     1.987

Wiberg/Mayer (AO) data.
largest (>0.10) Wiberg bond orders for each atom

     #   Z sym  total        # sym  WBO       # sym  WBO       # sym  WBO
 ---------------------------------------------------------------------------
     1   6 C    3.855 --     2 N    1.091    16 H    0.915    15 H    0.911
                            17 H    0.906
     2   7 N    2.806 --     3 C    1.593     1 C    1.091
     3   6 C    3.893 --     2 N    1.593     4 N    1.337    18 H    0.855
     4   7 N    3.079 --     6 C    1.569     3 C    1.337
     5   6 C    3.649 --     6 C    1.241    13 N    1.190     7 C    1.055
     6   6 C    3.870 --     4 N    1.569     5 C    1.241    25 H    0.923
     7   6 C    3.889 --     8 O    1.630     9 N    1.108     5 C    1.055
     8   8 O    1.872 --     7 C    1.630     9 N    0.111
     9   7 N    3.469 --     7 C    1.108    11 C    1.092    10 C    0.992
                             8 O    0.111    12 O    0.104
    10   6 C    3.869 --     9 N    0.992    19 H    0.958    20 H    0.941
                            21 H    0.941
    11   6 C    3.915 --    12 O    1.680     9 N    1.092    13 N    1.062
    12   8 O    1.935 --    11 C    1.680     9 N    0.104
    13   7 N    3.435 --     5 C    1.190    11 C    1.062    14 C    0.997
    14   6 C    3.892 --    13 N    0.997    24 H    0.958    23 H    0.947
                            22 H    0.947
    15   1 H    0.915 --     1 C    0.911
    16   1 H    0.936 --     1 C    0.915
    17   1 H    0.935 --     1 C    0.906
    18   1 H    0.891 --     3 C    0.855
    19   1 H    0.973 --    10 C    0.958
    20   1 H    0.957 --    10 C    0.941
    21   1 H    0.957 --    10 C    0.941
    22   1 H    0.964 --    14 C    0.947
    23   1 H    0.964 --    14 C    0.947
    24   1 H    0.975 --    14 C    0.958
    25   1 H    0.958 --     6 C    0.923
 ---------------------------------------------------------------------------

molecular dipole:
                 x           y           z       tot (Debye)
 q only:        1.531      -0.603       0.001
   full:        1.504      -0.599       0.234       4.157

           -------------------------------------------------
          | TOTAL ENERGY              -42.201197833714 Eh   |
          | GRADIENT NORM               0.007067189826 Eh/α |
          | HOMO-LUMO GAP               0.624994641616 eV   |
           -------------------------------------------------

 * finished run on 2024/06/05 at 19:59:00.730
