   * xtb version 6.6.1 (8d0f1dd) compiled by 'conda@1efc2f54142f' on 2023-08-01
          program call               : xtb xtbopt.xyz --opt crude --input .xc2 --gfn2

   ID    Z sym.   atoms
    1    7 N      1, 17
    2    6 C      2-6, 8, 9, 11-16, 18-23, 25, 26, 28-33
    3    8 O      7, 10, 24, 27
    4    1 H      34-72

          :  Hamiltonian                  GFN2-xTB          :
 * total energy  :   -99.3059517 Eh     change       -0.3427658E-10 Eh
   *** GEOMETRY OPTIMIZATION CONVERGED AFTER 1 ITERATIONS ***

 final structure:
================
72
 xtb: 6.6.1 (8d0f1dd)
N           -0.49709355010542        1.50527869940248        4.54047475907632
C           -0.23557198874571        0.92770758361663        3.49684736965474
C           -3.28158203221713        1.75094914449741       -0.44436816121319
C           -3.69925644616685        0.46138119537235       -0.07217449943912
C           -4.30298612563749       -0.41993234456314       -1.01598396257074
C           -4.66698099887816       -1.70491686909980       -0.69230745524263
O           -5.26258662278397       -2.58680414161957       -1.52734615248844
C           -5.66199572494859       -2.15980417623856       -2.80721533408885
C           -4.41780410599695       -2.20835780092878        0.61858699045799
O           -4.77969515055433       -3.48604168103992        0.82798263024164
C           -4.61578812099407       -4.05050787420472        2.10788124303946
C           -3.84042675215013       -1.35552091731654        1.55477318701187
C           -3.50136021386695       -0.06105337802542        1.22949404282762
C           -3.06450627637864        2.07312971546398       -1.88981352879784
C           -1.98430324042556        1.17931297858520       -2.57956091451343
C           -0.63905040812426        1.38230955167043       -2.01395182017778
N           -0.00545822749832        0.52931046222760       -1.21863169660329
C            1.34343521131935        0.79531358687069       -0.77880326763412
C            2.38092444988276        0.10118682469654       -1.68433074425678
C            3.76354959722352        0.25851941234886       -1.11693800000737
C            4.47830756644650        1.42989788314572       -1.30420495563942
C            5.74382624977003        1.58366361060910       -0.75903338545063
C            6.32217048080523        0.56531998798457       -0.01553712518330
O            7.54053945642748        0.60492992273959        0.55872319652079
C            8.33321816895694        1.75962888731593        0.40701862482716
C            5.59978624084093       -0.64319682128865        0.17585263992680
O            6.24016059819862       -1.58846039772399        0.89616712378875
C            5.62852574353150       -2.84156818269519        1.08405751655268
C            4.33242315949574       -0.77009175797659       -0.36962826273425
C           -0.55403925716313       -0.76534515354555       -0.89030075738933
C           -3.01567691312572        2.87847439116493        0.51797016939026
C           -4.02589708164630        2.98400485153876        1.66797579163781
C           -1.57231815996017        2.87494149936892        1.05110705916278
H           -4.54550882233310       -0.04351782182474       -1.99483843454978
H           -6.35648687033379       -1.31599222123664       -2.75042810898164
H           -6.16936067141261       -3.01266403071463       -3.25382984858189
H           -4.80264515026638       -1.88654500601008       -3.42851221324831
H           -5.20062623957274       -3.51440260631358        2.86145704210731
H           -4.98314550532412       -5.07194869378009        2.02628625500091
H           -3.56283384211233       -4.06803958292660        2.40763902240780
H           -3.65351368455334       -1.70652589532600        2.55729388945754
H           -3.02750269401260        0.54419033924264        1.98085808407404
H           -3.98979493974380        1.94681854135000       -2.45797774089079
H           -2.75940013971177        3.11448742025468       -1.99783707710191
H           -2.28945814310682        0.13736250402243       -2.51567362115626
H           -1.96312577543053        1.47974787820702       -3.63116232490187
H           -0.36377350108352       -0.12517520927815        3.33017953591587
H           -0.13668696260774        2.31515625566697       -2.21969138936983
H            1.45769534108802        0.43602360662193        0.24735551551384
H            1.52585839162975        1.87148484347521       -0.78332292027982
H            2.32920199815185        0.54514723010653       -2.68004929275820
H            2.13512848463362       -0.95822844603590       -1.76798801444626
H            4.05714147999090        2.23252611781177       -1.89003825529915
H            6.27779185977202        2.50445556563706       -0.92698178630992
H            7.84983848914840        2.63757628397332        0.84680261996048
H            8.56000337226553        1.95532211105191       -0.64534787868773
H            9.25759460933773        1.55075876751674        0.94226829387907
H            6.34450922839956       -3.43412503555877        1.65014118626790
H            4.69981322009594       -2.75430536084989        1.65747325620321
H            5.42463192556055       -3.33628536679673        0.12929188982850
H            3.77776391159784       -1.68501951385183       -0.23072159933565
H           -0.69632416183408       -1.37582937401781       -1.78444647474545
H           -1.51500826689160       -0.65514848278587       -0.38598424182874
H            0.12971051741173       -1.28528490568909       -0.22411713961302
H           -3.11990255009365        3.80032263533596       -0.06788975138987
H           -3.73629728478943        2.39112364818250        2.53029781069985
H           -5.01063583602514        2.65967499756263        1.34308193218504
H           -4.09843563915706        4.01971912187259        1.99239119062936
H           -1.36657098019147        1.99721920050311        1.66159169806045
H           -0.86535921030423        2.89283576253266        0.22761716558537
H           -1.41306568790863        3.76038724697543        1.66181683160785
H           -0.37719419901817        2.49717830549201        4.69947741611471

          :  Hamiltonian                  GFN2-xTB          :
         :: total energy             -99.305951657275 Eh    ::
         :: gradient norm              0.004082582058 Eh/a0 ::
         :: HOMO-LUMO gap              0.057203645715 eV    ::
         :: SCC energy              -100.700335972597 Eh    ::
         :: -> dispersion             -0.072121503740 Eh    ::
         :: repulsion energy           1.392606205147 Eh    ::

    * Orbital Energies and Occupations

         #    Occupation            Energy/Eh            Energy/eV
      -------------------------------------------------------------
         1        2.0000           -0.8081879             -21.9919
       ...           ...                  ...                  ...
        78        1.9993           -0.5345454             -14.5457
        79        1.9992           -0.5327539             -14.4970
        80        1.9989           -0.5276548             -14.3582
        81        1.9986           -0.5240230             -14.2594
        82        1.9985           -0.5223557             -14.2140
        83        1.9977           -0.5160383             -14.0421
        84        1.9976           -0.5150080             -14.0141
        85        1.9966           -0.5096058             -13.8671
        86        1.9904           -0.4931721             -13.4199
        87        1.9822           -0.4832625             -13.1502
        88        1.9458           -0.4653574             -12.6630
        89        1.8699           -0.4508754             -12.2689
        90        0.9309           -0.4064786             -11.0608 (HOMO)
        91        0.8652           -0.4043764             -11.0036 (LUMO)
        92        0.3925           -0.3863456             -10.5130
        93        0.0305           -0.3426885              -9.3250
        94        0.0037           -0.3089014              -8.4056
        95        0.0032           -0.3069166              -8.3516
        96        0.0028           -0.3046706              -8.2905
        97        0.0011           -0.2894539              -7.8764
        98        0.0000           -0.1818510              -4.9484
        99        0.0000           -0.1813517              -4.9348
       100                         -0.1263898              -3.4392
       101                         -0.0627582              -1.7077
       ...                                ...                  ...
       171                          0.5852117              15.9244
      -------------------------------------------------------------
                  HL-Gap            0.0021022 Eh            0.0572 eV

     #   Z          covCN         q      C6AA      α(0)
     1   7 N        1.771    -0.160    25.221     7.436
     2   6 C        1.837    -0.028    31.919     9.127
     3   6 C        2.951    -0.014    28.350     8.733
     4   6 C        2.961     0.001    27.993     8.678
     5   6 C        2.919    -0.089    30.230     9.016
     6   6 C        2.857     0.128    25.184     8.225
     7   8 O        1.706    -0.240    17.972     5.724
     8   6 C        3.644     0.030    20.409     6.494
     9   6 C        2.864     0.130    25.154     8.221
    10   8 O        1.706    -0.221    17.675     5.676
    11   6 C        3.645     0.027    20.460     6.501
    12   6 C        2.909    -0.072    29.782     8.949
    13   6 C        2.920    -0.051    29.268     8.872
    14   6 C        3.805    -0.064    21.728     6.636
    15   6 C        3.801    -0.068    21.801     6.648
    16   6 C        2.843     0.003    27.951     8.664
    17   7 N        2.729     0.019    20.918     6.793
    18   6 C        3.756    -0.018    20.958     6.527
    19   6 C        3.808    -0.071    21.845     6.653
    20   6 C        2.969    -0.001    28.061     8.689
    21   6 C        2.922    -0.050    29.237     8.867
    22   6 C        2.914    -0.068    29.699     8.936
    23   6 C        2.865     0.132    25.113     8.214
    24   8 O        1.706    -0.226    17.752     5.689
    25   6 C        3.645     0.026    20.469     6.502
    26   6 C        2.863     0.131    25.126     8.216
    27   8 O        1.706    -0.229    17.800     5.696
    28   6 C        3.645     0.029    20.428     6.496
    29   6 C        2.920    -0.080    30.008     8.983
    30   6 C        3.700    -0.073    22.056     6.716
    31   6 C        3.851    -0.014    20.798     6.486
    32   6 C        3.753    -0.111    22.684     6.792
    33   6 C        3.753    -0.105    22.565     6.774
    34   1 H        0.926     0.049     2.335     2.389
    35   1 H        0.924     0.051     2.312     2.378
    36   1 H        0.925     0.079     1.992     2.207
    37   1 H        0.924     0.043     2.415     2.430
    38   1 H        0.924     0.056     2.243     2.342
    39   1 H        0.925     0.081     1.969     2.194
    40   1 H        0.924     0.049     2.327     2.386
    41   1 H        0.926     0.049     2.336     2.390
    42   1 H        0.926     0.049     2.330     2.387
    43   1 H        0.924     0.067     2.121     2.277
    44   1 H        0.924     0.053     2.289     2.366
    45   1 H        0.925     0.065     2.147     2.291
    46   1 H        0.924     0.073     2.056     2.243
    47   1 H        0.926     0.085     1.930     2.173
    48   1 H        0.926     0.065     2.138     2.287
    49   1 H        0.924     0.068     2.107     2.270
    50   1 H        0.924     0.068     2.112     2.273
    51   1 H        0.924     0.056     2.250     2.346
    52   1 H        0.924     0.054     2.273     2.358
    53   1 H        0.926     0.044     2.400     2.423
    54   1 H        0.926     0.057     2.239     2.340
    55   1 H        0.924     0.052     2.294     2.369
    56   1 H        0.924     0.054     2.267     2.355
    57   1 H        0.925     0.080     1.974     2.197
    58   1 H        0.925     0.080     1.980     2.201
    59   1 H        0.924     0.046     2.374     2.410
    60   1 H        0.924     0.051     2.309     2.376
    61   1 H        0.926     0.045     2.387     2.416
    62   1 H        0.924     0.074     2.047     2.237
    63   1 H        0.924     0.083     1.944     2.180
    64   1 H        0.925     0.076     2.020     2.223
    65   1 H        0.924     0.046     2.368     2.406
    66   1 H        0.925     0.043     2.408     2.427
    67   1 H        0.925     0.046     2.376     2.411
    68   1 H        0.925     0.047     2.360     2.402
    69   1 H        0.925     0.038     2.477     2.461
    70   1 H        0.925     0.030     2.581     2.512
    71   1 H        0.925     0.049     2.337     2.391
    72   1 H        0.860     0.201     1.102     1.645

Wiberg/Mayer (AO) data.
largest (>0.10) Wiberg bond orders for each atom

     #   Z sym  total        # sym  WBO       # sym  WBO       # sym  WBO
 ---------------------------------------------------------------------------
     1   7 N    3.095 --     2 C    2.171    72 H    0.911
     2   6 C    3.120 --     1 N    2.171    47 H    0.926
     3   6 C    3.522 --     4 C    1.343    14 C    1.042    31 C    1.021
     4   6 C    3.977 --     3 C    1.343    13 C    1.256     5 C    1.229
     5   6 C    3.876 --     6 C    1.466     4 C    1.229    34 H    0.957
     6   6 C    3.918 --     5 C    1.466     9 C    1.194     7 O    1.087
     7   8 O    2.250 --     6 C    1.087     8 C    0.980
     8   6 C    3.936 --     7 O    0.980    36 H    0.977    37 H    0.974
                            35 H    0.974
     9   6 C    3.801 --    12 C    1.346     6 C    1.194    10 O    1.114
    10   8 O    2.245 --     9 C    1.114    11 C    0.977
    11   6 C    3.931 --    39 H    0.977    10 O    0.977    40 H    0.973
                            38 H    0.973
    12   6 C    3.971 --    13 C    1.480     9 C    1.346    41 H    0.963
    13   6 C    3.839 --    12 C    1.480     4 C    1.256    42 H    0.960
    14   6 C    3.957 --     3 C    1.042    44 H    0.972    43 H    0.943
                            15 C    0.928
    15   6 C    3.971 --    16 C    1.072    45 H    0.964    46 H    0.949
                            14 C    0.928
    16   6 C    3.559 --    17 N    1.407    15 C    1.072    48 H    0.960
    17   7 N    3.470 --    16 C    1.407    30 C    0.998    18 C    0.990
    18   6 C    3.957 --    17 N    0.990    50 H    0.968    19 C    0.966
                            49 H    0.964
    19   6 C    3.975 --    20 C    1.008    52 H    0.972    51 H    0.970
                            18 C    0.966
    20   6 C    3.950 --    21 C    1.412    29 C    1.379    19 C    1.008
    21   6 C    3.955 --    22 C    1.416    20 C    1.412    53 H    0.968
    22   6 C    3.963 --    21 C    1.416    23 C    1.386    54 H    0.963
    23   6 C    3.901 --    22 C    1.386    26 C    1.226    24 O    1.105
    24   8 O    2.254 --    23 C    1.105    25 C    0.977
    25   6 C    3.931 --    57 H    0.977    24 O    0.977    55 H    0.973
                            56 H    0.973
    26   6 C    3.904 --    29 C    1.397    23 C    1.226    27 O    1.097
    27   8 O    2.253 --    26 C    1.097    28 C    0.980
    28   6 C    3.935 --    27 O    0.980    58 H    0.977    59 H    0.974
                            60 H    0.974
    29   6 C    3.962 --    26 C    1.397    20 C    1.379    61 H    0.962
    30   6 C    3.958 --    17 N    0.998    64 H    0.978    62 H    0.966
                            63 H    0.958
    31   6 C    3.986 --     3 C    1.021    32 C    0.996    33 C    0.975
                            65 H    0.956
    32   6 C    3.982 --    31 C    0.996    67 H    0.986    68 H    0.985
                            66 H    0.980
    33   6 C    3.958 --    70 H    0.984    71 H    0.983    31 C    0.975
                            69 H    0.970
    34   1 H    0.996 --     5 C    0.957
    35   1 H    0.995 --     8 C    0.974
    36   1 H    0.993 --     8 C    0.977
    37   1 H    0.996 --     8 C    0.974
    38   1 H    0.992 --    11 C    0.973
    39   1 H    0.993 --    11 C    0.977
    40   1 H    0.992 --    11 C    0.973
    41   1 H    0.996 --    12 C    0.963
    42   1 H    0.997 --    13 C    0.960
    43   1 H    0.975 --    14 C    0.943
    44   1 H    0.997 --    14 C    0.972
    45   1 H    0.995 --    15 C    0.964
    46   1 H    0.981 --    15 C    0.949
    47   1 H    0.949 --     2 C    0.926
    48   1 H    0.996 --    16 C    0.960
    49   1 H    0.991 --    18 C    0.964
    50   1 H    0.994 --    18 C    0.968
    51   1 H    0.995 --    19 C    0.970
    52   1 H    0.996 --    19 C    0.972
    53   1 H    0.998 --    21 C    0.968
    54   1 H    0.995 --    22 C    0.963
    55   1 H    0.993 --    25 C    0.973
    56   1 H    0.993 --    25 C    0.973
    57   1 H    0.993 --    25 C    0.977
    58   1 H    0.993 --    28 C    0.977
    59   1 H    0.994 --    28 C    0.974
    60   1 H    0.994 --    28 C    0.974
    61   1 H    0.997 --    29 C    0.962
    62   1 H    0.985 --    30 C    0.966
    63   1 H    0.985 --    30 C    0.958
    64   1 H    0.994 --    30 C    0.978
    65   1 H    0.990 --    31 C    0.956
    66   1 H    0.997 --    32 C    0.980
    67   1 H    0.997 --    32 C    0.986
    68   1 H    0.996 --    32 C    0.985
    69   1 H    0.998 --    33 C    0.970
    70   1 H    0.999 --    33 C    0.984
    71   1 H    0.995 --    33 C    0.983
    72   1 H    0.933 --     1 N    0.911
 ---------------------------------------------------------------------------

molecular dipole:
                 x           y           z       tot (Debye)
 q only:       -0.064       0.686      -0.377
   full:       -0.165       0.875      -0.491       2.584

           -------------------------------------------------
          | TOTAL ENERGY              -99.305951657275 Eh   |
          | GRADIENT NORM               0.004082582058 Eh/α |
          | HOMO-LUMO GAP               0.057203645715 eV   |
           -------------------------------------------------

 * finished run on 2024/04/06 at 11:11:45.531
