   * xtb version 6.6.1 (8d0f1dd) compiled by 'conda@1efc2f54142f' on 2023-08-01
          program call               : xtb struc.xyz --opt loose --input .xc1 --gfn2

   ID    Z sym.   atoms
    1    7 N      1, 17
    2    6 C      2-6, 8, 9, 11-16, 18-23, 25, 26, 28-33
    3    8 O      7, 10, 24, 27
    4    1 H      34-72
constraining bond 39 40 to    3.2800000 Å, actual value:    1.7799172 Å

          :  Hamiltonian                  GFN2-xTB          :
 * total energy  :   -99.0023419 Eh     change       -0.4035485E-08 Eh
 * total energy  :   -99.1624223 Eh     change       -0.1600804E+00 Eh
 * total energy  :   -99.2361456 Eh     change       -0.7372328E-01 Eh
 * total energy  :   -99.2540854 Eh     change       -0.1793988E-01 Eh
 * total energy  :   -99.2570648 Eh     change       -0.2979328E-02 Eh
 * total energy  :   -99.2579046 Eh     change       -0.8398630E-03 Eh
 * total energy  :   -99.2587560 Eh     change       -0.8513161E-03 Eh
 * total energy  :   -99.2593910 Eh     change       -0.6350890E-03 Eh
 * total energy  :   -99.2605116 Eh     change       -0.1120602E-02 Eh
 * total energy  :   -99.2630263 Eh     change       -0.2514671E-02 Eh
 * total energy  :   -99.3321270 Eh     change       -0.5976448E-03 Eh
 * total energy  :   -99.3325424 Eh     change       -0.4154567E-03 Eh
 * total energy  :   -99.3328251 Eh     change       -0.2826406E-03 Eh
 * total energy  :   -99.3329942 Eh     change       -0.1691592E-03 Eh
 * total energy  :   -99.3330952 Eh     change       -0.1010158E-03 Eh
 * total energy  :   -99.3331661 Eh     change       -0.7081933E-04 Eh
 * total energy  :   -99.3332286 Eh     change       -0.6250276E-04 Eh
 * total energy  :   -99.3332863 Eh     change       -0.5771581E-04 Eh
 * total energy  :   -99.3333292 Eh     change       -0.4287348E-04 Eh
   *** GEOMETRY OPTIMIZATION CONVERGED AFTER 53 ITERATIONS ***

 final structure:
================
72
 xtb: 6.6.1 (8d0f1dd)
N           -1.86769655115764        2.79652497903686        2.22206532289776
C           -1.83591517610332        2.08588475590450        1.19465481249775
C           -2.99616298159666        1.87583314522473        0.26116575910151
C           -3.49295141723608        0.43962957046322        0.38077290915286
C           -4.47525419127577       -0.00458765859593       -0.55530102763948
C           -4.94258137190210       -1.30254652821637       -0.54965424476332
O           -5.83243929658757       -1.82370950699921       -1.42423940456056
C           -6.48733700058631       -0.96109143789219       -2.32460980620704
C           -4.45873528991488       -2.20824791897097        0.41938720226203
O           -4.69909040901991       -3.49866991513931        0.29146203837987
C           -4.33377300748468       -4.37885691006479        1.18176052321649
C           -3.57292975179378       -1.77098498265565        1.53232750593298
C           -3.04403441568668       -0.39074908126274        1.34889714416591
C           -2.44895892624052        2.12868276939587       -1.16772097646045
C           -1.52797837887305        1.01930856304544       -1.70589926545216
C           -0.18825258234205        1.01053062777154       -1.07568856046460
N            0.47292923241700       -0.07639904728244       -0.68197506698619
C            1.85169130475327        0.01763960812944       -0.26545270656659
C            2.82519037110369       -0.39642823650946       -1.38605357742351
C            4.24229561538860       -0.18202005230825       -0.93251056289264
C            4.86917214539702        1.03651209821814       -1.13213661433114
C            6.16576161448734        1.24944043049341       -0.68925734837259
C            6.86031081389443        0.24575276220454       -0.03062567756988
O            8.11971600608172        0.33841785678607        0.43834422359130
C            8.83878236163611        1.53395148296966        0.24180775351909
C            6.22297176366236       -1.00661854677051        0.18489179788798
O            6.96984047263601       -1.92509545965008        0.83227910070610
C            6.43675620845551       -3.20646379091252        1.06399343571942
C            4.92671479333582       -1.19618770820895       -0.26620367736049
C           -0.12755950077776       -1.38749898354645       -0.72373310397469
C           -4.19107868958478        2.83465006395708        0.54386240154130
C           -4.83798330232968        2.54494801711018        1.89618618768389
C           -3.80519560318148        4.30956214398238        0.46448622207688
H           -4.84413201066815        0.68849277906944       -1.28910167810636
H           -7.00827927074278       -0.15799565158112       -1.79650982553175
H           -7.21403445557229       -1.58111316664805       -2.84563335717457
H           -5.79213643405816       -0.53227068886067       -3.05200719631760
H           -4.00726242953285       -4.13252305226852        2.17408455198970
H           -4.36392444276686       -5.39266574157999        0.86402835466115
H           -2.79195069380237       -2.55695312835001        1.59630852780870
H           -4.10144857078548       -1.81236552736243        2.49992588705005
H           -2.34355134018224       -0.05222366691110        2.09610763941883
H           -3.28973512498710        2.23136225253975       -1.85267729602686
H           -1.90505838832607        3.07383817315666       -1.17204787250069
H           -2.02512319205825        0.05520046569228       -1.61451625305730
H           -1.38671595276183        1.21955400342496       -2.77628344023237
H           -0.92892519996115        1.56192717742341        0.83626305564732
H            0.36396330086352        1.93807013350635       -1.06716696582720
H            2.00784068602482       -0.62352621870624        0.60640343601299
H            2.06997702461824        1.04728573882388        0.02603119887300
H            2.62130420317988        0.21175812129160       -2.26905121324023
H            2.66443182638931       -1.44426019627414       -1.64303405203293
H            4.35354500703184        1.83152460043916       -1.64927369692687
H            6.62971696737556        2.20559142299349       -0.86728331177683
H            8.35789134641586        2.37862756826877        0.74465879286801
H            8.95637409525094        1.76031756195787       -0.82219831466049
H            9.81801760086701        1.36139345500545        0.68419900235453
H            7.22162234867265       -3.76125171740650        1.57439759798464
H            5.55036363106391       -3.16314035700027        1.70532634074879
H            6.18686786464760       -3.71323536796486        0.12660761162654
H            4.43772785350650       -2.14601736568863       -0.11562864328592
H           -0.28821503633823       -1.71712488234021       -1.75310426493377
H           -1.08852804629405       -1.37759459780694       -0.20399850494489
H            0.52918449371126       -2.09960007020587       -0.23017243329063
H           -4.93861795680334        2.64263755836704       -0.23379106335672
H           -4.12907892790634        2.73449367693759        2.69542724359843
H           -5.17546352668359        1.51331722036526        1.95832897714892
H           -5.69844701455325        3.19485767478951        2.03333982476981
H           -3.04645557388027        4.54177891236995        1.20504230532647
H           -3.43988878837250        4.58190410524733       -0.52208573339079
H           -4.68096549909649        4.91814392173159        0.67370316462060
H           -1.01059963605719        2.88481128633689        2.75936372739932

          :  Hamiltonian                  GFN2-xTB          :
         :: total energy             -99.333329157566 Eh    ::
         :: gradient norm              0.002582844671 Eh/a0 ::
         :: HOMO-LUMO gap              1.193064003741 eV    ::
         :: SCC energy              -100.698661862473 Eh    ::
         :: -> dispersion             -0.075105543964 Eh    ::
         :: repulsion energy           1.363646813366 Eh    ::

    * Orbital Energies and Occupations

         #    Occupation            Energy/Eh            Energy/eV
      -------------------------------------------------------------
         1        2.0000           -0.8512990             -23.1650
       ...           ...                  ...                  ...
        78        1.9989           -0.5281543             -14.3718
        79        1.9988           -0.5274618             -14.3530
        80        1.9987           -0.5250213             -14.2866
        81        1.9986           -0.5240270             -14.2595
        82        1.9975           -0.5152863             -14.0217
        83        1.9967           -0.5107367             -13.8979
        84        1.9965           -0.5099069             -13.8753
        85        1.9960           -0.5077697             -13.8171
        86        1.9815           -0.4834566             -13.1555
        87        1.9808           -0.4828011             -13.1377
        88        1.9529           -0.4684011             -12.7458
        89        1.8656           -0.4510697             -12.2742
        90        1.6302           -0.4329053             -11.7800 (HOMO)
        91        0.4332           -0.3890610             -10.5869 (LUMO)
        92        0.1512           -0.3697683             -10.0619
        93        0.0192           -0.3359773              -9.1424
        94        0.0037           -0.3099541              -8.4343
        95        0.0032           -0.3073528              -8.3635
        96        0.0027           -0.3048814              -8.2962
        97        0.0000           -0.2304614              -6.2712
        98        0.0000           -0.1823537              -4.9621
        99                         -0.1320720              -3.5939
       100                         -0.0735597              -2.0017
       101                         -0.0630426              -1.7155
       ...                                ...                  ...
       171                          0.5820579              15.8386
      -------------------------------------------------------------
                  HL-Gap            0.0438443 Eh            1.1931 eV

     #   Z          covCN         q      C6AA      α(0)
     1   7 N        1.773    -0.273    27.900     7.822
     2   6 C        2.826     0.098    25.816     8.326
     3   6 C        3.908     0.005    20.433     6.425
     4   6 C        2.961     0.010    27.784     8.646
     5   6 C        2.918    -0.093    30.347     9.034
     6   6 C        2.848     0.133    25.089     8.209
     7   8 O        1.706    -0.244    18.037     5.734
     8   6 C        3.645     0.028    20.435     6.497
     9   6 C        2.886     0.081    26.190     8.390
    10   8 O        1.711    -0.083    15.588     5.331
    11   6 C        2.761    -0.005    28.116     8.683
    12   6 C        3.807    -0.067    21.779     6.644
    13   6 C        2.906    -0.068    29.681     8.933
    14   6 C        3.812    -0.065    21.735     6.636
    15   6 C        3.802    -0.068    21.801     6.648
    16   6 C        2.843     0.002    27.972     8.668
    17   7 N        2.729     0.004    21.193     6.837
    18   6 C        3.755    -0.015    20.903     6.519
    19   6 C        3.807    -0.070    21.836     6.652
    20   6 C        2.969    -0.002    28.064     8.689
    21   6 C        2.922    -0.050    29.235     8.867
    22   6 C        2.914    -0.068    29.698     8.936
    23   6 C        2.865     0.132    25.103     8.213
    24   8 O        1.706    -0.225    17.735     5.686
    25   6 C        3.645     0.026    20.471     6.503
    26   6 C        2.863     0.132    25.113     8.214
    27   8 O        1.706    -0.228    17.779     5.693
    28   6 C        3.645     0.028    20.433     6.497
    29   6 C        2.920    -0.080    30.003     8.982
    30   6 C        3.699    -0.068    21.968     6.703
    31   6 C        3.853    -0.008    20.677     6.468
    32   6 C        3.756    -0.119    22.838     6.814
    33   6 C        3.755    -0.118    22.823     6.812
    34   1 H        0.926     0.053     2.280     2.361
    35   1 H        0.924     0.054     2.269     2.356
    36   1 H        0.925     0.080     1.979     2.200
    37   1 H        0.924     0.048     2.341     2.393
    38   1 H        0.926     0.057     2.238     2.340
    39   1 H        0.927     0.080     1.976     2.198
    40   1 H        0.922     0.057     2.235     2.338
    41   1 H        0.923     0.074     2.038     2.233
    42   1 H        0.926     0.039     2.456     2.451
    43   1 H        0.925     0.059     2.214     2.327
    44   1 H        0.924     0.053     2.280     2.361
    45   1 H        0.925     0.063     2.159     2.298
    46   1 H        0.923     0.077     2.012     2.218
    47   1 H        0.922     0.006     2.960     2.691
    48   1 H        0.926     0.067     2.118     2.276
    49   1 H        0.924     0.065     2.143     2.289
    50   1 H        0.924     0.066     2.127     2.281
    51   1 H        0.924     0.054     2.269     2.356
    52   1 H        0.924     0.054     2.273     2.358
    53   1 H        0.926     0.043     2.403     2.424
    54   1 H        0.926     0.057     2.236     2.338
    55   1 H        0.924     0.053     2.286     2.365
    56   1 H        0.924     0.054     2.266     2.354
    57   1 H        0.925     0.081     1.970     2.195
    58   1 H        0.925     0.080     1.976     2.198
    59   1 H        0.924     0.047     2.362     2.403
    60   1 H        0.924     0.051     2.309     2.376
    61   1 H        0.926     0.045     2.382     2.414
    62   1 H        0.924     0.074     2.042     2.235
    63   1 H        0.924     0.076     2.026     2.226
    64   1 H        0.925     0.077     2.008     2.216
    65   1 H        0.924     0.036     2.498     2.472
    66   1 H        0.925     0.068     2.104     2.268
    67   1 H        0.925     0.033     2.544     2.494
    68   1 H        0.925     0.050     2.317     2.381
    69   1 H        0.925     0.060     2.198     2.318
    70   1 H        0.925     0.034     2.534     2.489
    71   1 H        0.925     0.053     2.282     2.362
    72   1 H        0.860     0.155     1.368     1.832

Wiberg/Mayer (AO) data.
largest (>0.10) Wiberg bond orders for each atom

     #   Z sym  total        # sym  WBO       # sym  WBO       # sym  WBO
 ---------------------------------------------------------------------------
     1   7 N    3.037 --     2 C    1.953    72 H    0.943
     2   6 C    3.924 --     1 N    1.953     3 C    0.995    47 H    0.899
     3   6 C    3.979 --     2 C    0.995     4 C    0.965    14 C    0.959
                            31 C    0.944
     4   6 C    3.967 --    13 C    1.658     5 C    1.209     3 C    0.965
     5   6 C    3.811 --     6 C    1.417     4 C    1.209    34 H    0.959
     6   6 C    3.899 --     5 C    1.417     9 C    1.241     7 O    1.089
     7   8 O    2.252 --     6 C    1.089     8 C    0.976
     8   6 C    3.932 --    36 H    0.977     7 O    0.976    35 H    0.975
                            37 H    0.975
     9   6 C    3.773 --     6 C    1.241    10 O    1.169    12 C    1.025
                            11 C    0.217
    10   8 O    2.541 --    11 C    1.257     9 C    1.169
    11   6 C    3.572 --    10 O    1.257    39 H    0.971    38 H    0.967
                             9 C    0.217
    12   6 C    3.986 --    13 C    1.035     9 C    1.025    40 H    0.926
                            41 H    0.919
    13   6 C    3.843 --     4 C    1.658    12 C    1.035    42 H    0.962
    14   6 C    3.974 --    15 C    0.983    44 H    0.972    43 H    0.969
                             3 C    0.959
    15   6 C    3.987 --    16 C    1.058    14 C    0.983    45 H    0.962
                            46 H    0.929
    16   6 C    3.566 --    17 N    1.380    15 C    1.058    48 H    0.958
    17   7 N    3.459 --    16 C    1.380    30 C    1.000    18 C    0.989
    18   6 C    3.957 --    17 N    0.989    50 H    0.968    19 C    0.967
                            49 H    0.964
    19   6 C    3.976 --    20 C    1.008    52 H    0.972    51 H    0.972
                            18 C    0.967
    20   6 C    3.949 --    21 C    1.413    29 C    1.378    19 C    1.008
    21   6 C    3.954 --    22 C    1.415    20 C    1.413    53 H    0.968
    22   6 C    3.962 --    21 C    1.415    23 C    1.387    54 H    0.963
    23   6 C    3.900 --    22 C    1.387    26 C    1.223    24 O    1.106
    24   8 O    2.255 --    23 C    1.106    25 C    0.977
    25   6 C    3.930 --    57 H    0.977    24 O    0.977    56 H    0.973
                            55 H    0.973
    26   6 C    3.903 --    29 C    1.398    23 C    1.223    27 O    1.099
    27   8 O    2.254 --    26 C    1.099    28 C    0.980
    28   6 C    3.934 --    27 O    0.980    58 H    0.977    59 H    0.974
                            60 H    0.974
    29   6 C    3.962 --    26 C    1.398    20 C    1.378    61 H    0.963
    30   6 C    3.960 --    17 N    1.000    64 H    0.978    62 H    0.967
                            63 H    0.963
    31   6 C    3.977 --    33 C    1.009    32 C    1.009    65 H    0.961
                             3 C    0.944
    32   6 C    3.983 --    31 C    1.009    67 H    0.983    68 H    0.982
                            66 H    0.976
    33   6 C    3.986 --    31 C    1.009    70 H    0.983    71 H    0.981
                            69 H    0.977
    34   1 H    0.996 --     5 C    0.959
    35   1 H    0.995 --     8 C    0.975
    36   1 H    0.993 --     8 C    0.977
    37   1 H    0.995 --     8 C    0.975
    38   1 H    0.997 --    11 C    0.967
    39   1 H    0.993 --    11 C    0.971
    40   1 H    0.978 --    12 C    0.926
    41   1 H    0.965 --    12 C    0.919
    42   1 H    0.998 --    13 C    0.962
    43   1 H    0.995 --    14 C    0.969
    44   1 H    0.996 --    14 C    0.972
    45   1 H    0.995 --    15 C    0.962
    46   1 H    0.969 --    15 C    0.929
    47   1 H    0.990 --     2 C    0.899
    48   1 H    0.995 --    16 C    0.958
    49   1 H    0.991 --    18 C    0.964
    50   1 H    0.994 --    18 C    0.968
    51   1 H    0.996 --    19 C    0.972
    52   1 H    0.996 --    19 C    0.972
    53   1 H    0.998 --    21 C    0.968
    54   1 H    0.995 --    22 C    0.963
    55   1 H    0.993 --    25 C    0.973
    56   1 H    0.992 --    25 C    0.973
    57   1 H    0.993 --    25 C    0.977
    58   1 H    0.993 --    28 C    0.977
    59   1 H    0.994 --    28 C    0.974
    60   1 H    0.994 --    28 C    0.974
    61   1 H    0.997 --    29 C    0.963
    62   1 H    0.985 --    30 C    0.967
    63   1 H    0.987 --    30 C    0.963
    64   1 H    0.994 --    30 C    0.978
    65   1 H    0.994 --    31 C    0.961
    66   1 H    0.992 --    32 C    0.976
    67   1 H    0.998 --    32 C    0.983
    68   1 H    0.995 --    32 C    0.982
    69   1 H    0.994 --    33 C    0.977
    70   1 H    0.998 --    33 C    0.983
    71   1 H    0.994 --    33 C    0.981
    72   1 H    0.972 --     1 N    0.943
 ---------------------------------------------------------------------------

molecular dipole:
                 x           y           z       tot (Debye)
 q only:       -0.181      -0.600      -0.652
   full:        0.045      -0.720      -0.815       2.766

           -------------------------------------------------
          | TOTAL ENERGY              -99.333329157566 Eh   |
          | GRADIENT NORM               0.002582844671 Eh/α |
          | HOMO-LUMO GAP               1.193064003741 eV   |
           -------------------------------------------------

 * finished run on 2024/04/06 at 11:15:05.099
