   * xtb version 6.6.1 (8d0f1dd) compiled by 'conda@1efc2f54142f' on 2023-08-01
          program call               : xtb xtbopt.xyz --opt crude --input .xc2 --gfn2

   ID    Z sym.   atoms
    1    7 N      1, 17
    2    6 C      2-6, 8, 9, 11-16, 18-23, 25, 26, 28-33
    3    8 O      7, 10, 24, 27
    4    1 H      34-72
########################################################################
[WARNING] Please study the warnings concerning your input carefully
-1- readin_getIntValue: could not parse ''
########################################################################

          :  Hamiltonian                  GFN2-xTB          :
 * total energy  :   -99.3336740 Eh     change       -0.3581135E-11 Eh
 * total energy  :   -99.3355831 Eh     change       -0.1909137E-02 Eh
 * total energy  :   -99.3366137 Eh     change       -0.1030639E-02 Eh
 * total energy  :   -99.3370836 Eh     change       -0.4698355E-03 Eh
   *** GEOMETRY OPTIMIZATION CONVERGED AFTER 4 ITERATIONS ***

 final structure:
================
72
 xtb: 6.6.1 (8d0f1dd)
N           -1.87120150883804        2.81309519865758        2.22092046045269
C           -1.83875725819779        2.10285601739701        1.19330715212136
C           -2.99883661436022        1.89280403904813        0.25873555728355
C           -3.49185419579908        0.45708843238308        0.38459727259069
C           -4.45610215904084       -0.01382223492840       -0.55427870293496
C           -4.90084786924031       -1.32072913492381       -0.53860799114342
O           -5.80028089949357       -1.84297538323454       -1.40370544634153
C           -6.45384464870223       -0.98471104696829       -2.31355418147965
C           -4.39606135518226       -2.23064783184045        0.42218433124189
O           -4.72134291198014       -3.50824673737613        0.29908970526537
C           -4.41524972925197       -4.45465261655191        1.14237684907693
C           -3.53140455155099       -1.75564275251201        1.54679922137631
C           -3.05113049671478       -0.35568398237305        1.36885030248248
C           -2.44968995915890        2.13984396546351       -1.16998584824905
C           -1.52952438429916        1.02680857239974       -1.70383463429848
C           -0.18915524481446        1.01629507465714       -1.07468583903628
N            0.47126168283370       -0.07115925551664       -0.68055449661841
C            1.85110164378205        0.02153161007803       -0.26610949706468
C            2.82291395525936       -0.39739148662277       -1.38623697760686
C            4.24069114556931       -0.18371721336432       -0.93430926521031
C            4.86796919970748        1.03443248183783       -1.13488999314119
C            6.16469376426931        1.24715891481315       -0.69231887973027
C            6.85913221235379        0.24369488930810       -0.03326552924008
O            8.11831609669406        0.33691685043578        0.43644906499256
C            8.83650185306628        1.53317442057004        0.24108220002669
C            6.22192155992817       -1.00868058716489        0.18215069409832
O            6.96895061920016       -1.92755906889135        0.82896709499550
C            6.43526920164866       -3.20862788000770        1.06102609748979
C            4.92537140624602       -1.19794705124617       -0.26829649956400
C           -0.12841226765231       -1.38211106925431       -0.72193310180034
C           -4.19617728273872        2.84675763679597        0.54166747905909
C           -4.84005330617802        2.55138240033202        1.89447526679381
C           -3.81433462527305        4.32231270426873        0.46387132142718
H           -4.84312605721361        0.67007506156750       -1.28790775325708
H           -6.97704518981283       -0.17644439941365       -1.79408757756280
H           -7.17990343409655       -1.60768763888740       -2.83215967054002
H           -5.75542076190574       -0.56240589174878       -3.04273124895841
H           -3.94724497073155       -4.25872051708834        2.09794566080844
H           -4.66687961251198       -5.45729668631474        0.82817611508405
H           -2.66178089782161       -2.42773307616065        1.65571382584624
H           -4.07801362218955       -1.82637910165263        2.50224083403041
H           -2.36013970910284       -0.00395040228362        2.11817221387061
H           -3.28959822861675        2.24081179621298       -1.85640325455731
H           -1.90396793316852        3.08392980988499       -1.17735169082271
H           -2.02803842339635        0.06355830279798       -1.60959943725098
H           -1.38840202381957        1.22306602897878       -2.77510494903679
H           -0.93218722988514        1.57619761331365        0.83679164421409
H            0.36424643197335        1.94332065980898       -1.06590690468534
H            2.00728007735252       -0.61771785640469        0.60706534352251
H            2.07151250281880        1.05124221104995        0.02265122406410
H            2.61911745449776        0.20833137688367       -2.27079860341962
H            2.66062977439327       -1.44565267390112       -1.63987049504610
H            4.35241611730732        1.82929881411367       -1.65230333764297
H            6.62888211220129        2.20311463972903       -0.87082829728588
H            8.35422245118756        2.37723993138519        0.74364648652366
H            8.95511369005763        1.76001698112204       -0.82269872190831
H            9.81537390321481        1.36141694399968        0.68455623080598
H            7.22017387802845       -3.76398333392257        1.57077145188996
H            5.54940814698989       -3.16473126835811        1.70308590623648
H            6.18429072492220       -3.71521049956865        0.12380390722322
H            4.43624962845256       -2.14766049600436       -0.11737308300695
H           -0.28789181566365       -1.71351788194287       -1.75049407389129
H           -1.09026301869027       -1.37253641925123       -0.20423104714338
H            0.52852247233796       -2.09302181806754       -0.22720335972675
H           -4.94354298743558        2.65167006090336       -0.23556873705753
H           -4.12915516093864        2.73722500739015        2.69260506296417
H           -5.17672395685743        1.51943140130625        1.95311188792040
H           -5.70025521218132        3.19979456963007        2.03710284700454
H           -3.05614444906408        4.55471098612046        1.20495889413787
H           -3.44840630760296        4.59478043579650       -0.52244612639652
H           -4.69113741172239        4.92924560233989        0.67296429234965
H           -1.01548842639504        2.89846337345365        2.76098619598607

          :  Hamiltonian                  GFN2-xTB          :
         :: total energy             -99.337083571821 Eh    ::
         :: gradient norm              0.009456075421 Eh/a0 ::
         :: HOMO-LUMO gap              1.174433368363 eV    ::
         :: SCC energy              -100.696735698346 Eh    ::
         :: -> dispersion             -0.075086909210 Eh    ::
         :: repulsion energy           1.358322973921 Eh    ::

    * Orbital Energies and Occupations

         #    Occupation            Energy/Eh            Energy/eV
      -------------------------------------------------------------
         1        2.0000           -0.8499832             -23.1292
       ...           ...                  ...                  ...
        78        1.9989           -0.5283522             -14.3772
        79        1.9988           -0.5268335             -14.3359
        80        1.9987           -0.5249349             -14.2842
        81        1.9986           -0.5236939             -14.2504
        82        1.9975           -0.5149498             -14.0125
        83        1.9967           -0.5104205             -13.8892
        84        1.9965           -0.5091718             -13.8553
        85        1.9961           -0.5075702             -13.8117
        86        1.9819           -0.4832173             -13.1490
        87        1.9818           -0.4831068             -13.1460
        88        1.9534           -0.4680063             -12.7351
        89        1.8672           -0.4507303             -12.2650
        90        1.6197           -0.4318146             -11.7503 (HOMO)
        91        0.4362           -0.3886550             -10.5758 (LUMO)
        92        0.1549           -0.3696432             -10.0585
        93        0.0193           -0.3355077              -9.1296
        94        0.0036           -0.3088681              -8.4047
        95        0.0032           -0.3069990              -8.3539
        96        0.0027           -0.3045245              -8.2865
        97        0.0000           -0.2298972              -6.2558
        98        0.0000           -0.1819977              -4.9524
        99                         -0.1318101              -3.5867
       100                         -0.0766195              -2.0849
       101                         -0.0632141              -1.7201
       ...                                ...                  ...
       171                          0.5823499              15.8465
      -------------------------------------------------------------
                  HL-Gap            0.0431596 Eh            1.1744 eV

     #   Z          covCN         q      C6AA      α(0)
     1   7 N        1.773    -0.273    27.912     7.823
     2   6 C        2.827     0.098    25.815     8.326
     3   6 C        3.909     0.005    20.433     6.425
     4   6 C        2.961     0.010    27.783     8.646
     5   6 C        2.916    -0.094    30.354     9.034
     6   6 C        2.847     0.133    25.082     8.208
     7   8 O        1.706    -0.244    18.041     5.735
     8   6 C        3.644     0.028    20.451     6.501
     9   6 C        2.866     0.078    26.244     8.397
    10   8 O        1.711    -0.080    15.552     5.325
    11   6 C        2.742    -0.001    28.019     8.667
    12   6 C        3.806    -0.066    21.764     6.641
    13   6 C        2.907    -0.068    29.689     8.934
    14   6 C        3.812    -0.065    21.734     6.636
    15   6 C        3.802    -0.068    21.801     6.648
    16   6 C        2.843     0.002    27.980     8.669
    17   7 N        2.729     0.004    21.201     6.839
    18   6 C        3.755    -0.015    20.902     6.519
    19   6 C        3.807    -0.070    21.835     6.652
    20   6 C        2.969    -0.002    28.066     8.690
    21   6 C        2.922    -0.050    29.237     8.867
    22   6 C        2.914    -0.068    29.699     8.936
    23   6 C        2.865     0.132    25.105     8.213
    24   8 O        1.706    -0.225    17.739     5.687
    25   6 C        3.645     0.026    20.470     6.502
    26   6 C        2.863     0.132    25.115     8.214
    27   8 O        1.706    -0.228    17.783     5.694
    28   6 C        3.645     0.028    20.431     6.497
    29   6 C        2.920    -0.080    30.004     8.982
    30   6 C        3.699    -0.067    21.961     6.702
    31   6 C        3.853    -0.007    20.673     6.467
    32   6 C        3.756    -0.119    22.842     6.815
    33   6 C        3.755    -0.118    22.822     6.812
    34   1 H        0.926     0.053     2.281     2.362
    35   1 H        0.924     0.055     2.265     2.353
    36   1 H        0.925     0.080     1.977     2.199
    37   1 H        0.924     0.049     2.337     2.391
    38   1 H        0.925     0.055     2.264     2.353
    39   1 H        0.926     0.084     1.940     2.178
    40   1 H        0.923     0.056     2.246     2.344
    41   1 H        0.923     0.074     2.037     2.232
    42   1 H        0.926     0.040     2.453     2.449
    43   1 H        0.925     0.059     2.215     2.327
    44   1 H        0.924     0.053     2.281     2.362
    45   1 H        0.925     0.063     2.160     2.298
    46   1 H        0.923     0.077     2.015     2.220
    47   1 H        0.922     0.006     2.963     2.692
    48   1 H        0.926     0.067     2.121     2.277
    49   1 H        0.924     0.065     2.146     2.291
    50   1 H        0.924     0.066     2.127     2.281
    51   1 H        0.924     0.054     2.270     2.356
    52   1 H        0.924     0.054     2.275     2.359
    53   1 H        0.926     0.043     2.404     2.425
    54   1 H        0.926     0.057     2.237     2.339
    55   1 H        0.924     0.053     2.288     2.365
    56   1 H        0.924     0.054     2.267     2.355
    57   1 H        0.925     0.081     1.972     2.196
    58   1 H        0.925     0.080     1.977     2.199
    59   1 H        0.924     0.047     2.364     2.404
    60   1 H        0.924     0.051     2.310     2.377
    61   1 H        0.926     0.045     2.384     2.415
    62   1 H        0.924     0.074     2.044     2.236
    63   1 H        0.924     0.075     2.031     2.229
    64   1 H        0.925     0.077     2.011     2.217
    65   1 H        0.924     0.036     2.503     2.474
    66   1 H        0.925     0.068     2.106     2.269
    67   1 H        0.925     0.033     2.544     2.495
    68   1 H        0.925     0.050     2.317     2.380
    69   1 H        0.925     0.060     2.196     2.317
    70   1 H        0.925     0.034     2.534     2.489
    71   1 H        0.925     0.053     2.283     2.363
    72   1 H        0.860     0.155     1.369     1.833

Wiberg/Mayer (AO) data.
largest (>0.10) Wiberg bond orders for each atom

     #   Z sym  total        # sym  WBO       # sym  WBO       # sym  WBO
 ---------------------------------------------------------------------------
     1   7 N    3.037 --     2 C    1.953    72 H    0.943
     2   6 C    3.924 --     1 N    1.953     3 C    0.994    47 H    0.900
     3   6 C    3.979 --     2 C    0.994     4 C    0.965    14 C    0.960
                            31 C    0.945
     4   6 C    3.965 --    13 C    1.660     5 C    1.207     3 C    0.965
     5   6 C    3.807 --     6 C    1.419     4 C    1.207    34 H    0.959
     6   6 C    3.897 --     5 C    1.419     9 C    1.237     7 O    1.091
     7   8 O    2.252 --     6 C    1.091     8 C    0.975
     8   6 C    3.932 --    36 H    0.977     7 O    0.975    35 H    0.975
                            37 H    0.975
     9   6 C    3.765 --     6 C    1.237    10 O    1.167    12 C    1.020
                            11 C    0.222
    10   8 O    2.548 --    11 C    1.268     9 C    1.167
    11   6 C    3.571 --    10 O    1.268    38 H    0.969    39 H    0.969
                             9 C    0.222
    12   6 C    3.986 --    13 C    1.034     9 C    1.020    40 H    0.936
                            41 H    0.921
    13   6 C    3.840 --     4 C    1.660    12 C    1.034    42 H    0.961
    14   6 C    3.974 --    15 C    0.983    44 H    0.972    43 H    0.969
                             3 C    0.960
    15   6 C    3.987 --    16 C    1.058    14 C    0.983    45 H    0.962
                            46 H    0.929
    16   6 C    3.564 --    17 N    1.379    15 C    1.058    48 H    0.958
    17   7 N    3.457 --    16 C    1.379    30 C    1.000    18 C    0.989
    18   6 C    3.957 --    17 N    0.989    50 H    0.968    19 C    0.967
                            49 H    0.964
    19   6 C    3.976 --    20 C    1.007    52 H    0.972    51 H    0.972
                            18 C    0.967
    20   6 C    3.949 --    21 C    1.413    29 C    1.378    19 C    1.007
    21   6 C    3.954 --    22 C    1.414    20 C    1.413    53 H    0.968
    22   6 C    3.963 --    21 C    1.414    23 C    1.387    54 H    0.963
    23   6 C    3.900 --    22 C    1.387    26 C    1.224    24 O    1.106
    24   8 O    2.255 --    23 C    1.106    25 C    0.977
    25   6 C    3.930 --    57 H    0.977    24 O    0.977    56 H    0.973
                            55 H    0.973
    26   6 C    3.904 --    29 C    1.398    23 C    1.224    27 O    1.099
    27   8 O    2.254 --    26 C    1.099    28 C    0.980
    28   6 C    3.934 --    27 O    0.980    58 H    0.977    59 H    0.974
                            60 H    0.974
    29   6 C    3.962 --    26 C    1.398    20 C    1.378    61 H    0.963
    30   6 C    3.961 --    17 N    1.000    64 H    0.978    62 H    0.967
                            63 H    0.964
    31   6 C    3.977 --    33 C    1.009    32 C    1.009    65 H    0.961
                             3 C    0.945
    32   6 C    3.983 --    31 C    1.009    67 H    0.983    68 H    0.982
                            66 H    0.976
    33   6 C    3.986 --    31 C    1.009    70 H    0.983    71 H    0.981
                            69 H    0.977
    34   1 H    0.996 --     5 C    0.959
    35   1 H    0.995 --     8 C    0.975
    36   1 H    0.993 --     8 C    0.977
    37   1 H    0.995 --     8 C    0.975
    38   1 H    0.997 --    11 C    0.969
    39   1 H    0.992 --    11 C    0.969
    40   1 H    0.978 --    12 C    0.936
    41   1 H    0.965 --    12 C    0.921
    42   1 H    0.998 --    13 C    0.961
    43   1 H    0.995 --    14 C    0.969
    44   1 H    0.996 --    14 C    0.972
    45   1 H    0.995 --    15 C    0.962
    46   1 H    0.969 --    15 C    0.929
    47   1 H    0.990 --     2 C    0.900
    48   1 H    0.995 --    16 C    0.958
    49   1 H    0.991 --    18 C    0.964
    50   1 H    0.994 --    18 C    0.968
    51   1 H    0.996 --    19 C    0.972
    52   1 H    0.996 --    19 C    0.972
    53   1 H    0.998 --    21 C    0.968
    54   1 H    0.995 --    22 C    0.963
    55   1 H    0.993 --    25 C    0.973
    56   1 H    0.993 --    25 C    0.973
    57   1 H    0.993 --    25 C    0.977
    58   1 H    0.993 --    28 C    0.977
    59   1 H    0.994 --    28 C    0.974
    60   1 H    0.994 --    28 C    0.974
    61   1 H    0.997 --    29 C    0.963
    62   1 H    0.985 --    30 C    0.967
    63   1 H    0.987 --    30 C    0.964
    64   1 H    0.994 --    30 C    0.978
    65   1 H    0.994 --    31 C    0.961
    66   1 H    0.992 --    32 C    0.976
    67   1 H    0.998 --    32 C    0.983
    68   1 H    0.995 --    32 C    0.982
    69   1 H    0.994 --    33 C    0.977
    70   1 H    0.998 --    33 C    0.983
    71   1 H    0.995 --    33 C    0.981
    72   1 H    0.972 --     1 N    0.943
 ---------------------------------------------------------------------------

molecular dipole:
                 x           y           z       tot (Debye)
 q only:       -0.263      -0.679      -0.660
   full:       -0.015      -0.805      -0.813       2.907

           -------------------------------------------------
          | TOTAL ENERGY              -99.337083571821 Eh   |
          | GRADIENT NORM               0.009456075421 Eh/α |
          | HOMO-LUMO GAP               1.174433368363 eV   |
           -------------------------------------------------

 * finished run on 2024/04/06 at 11:15:06.070
