   * xtb version 6.6.1 (8d0f1dd) compiled by 'conda@1efc2f54142f' on 2023-08-01
          program call               : xtb xtbopt.xyz --opt crude --input .xc2 --gfn2

   ID    Z sym.   atoms
    1    6 C      1, 3, 5-7, 10, 11, 14
    2    7 N      2, 4, 9, 13
    3    8 O      8, 12
    4    1 H      15-25
########################################################################
[WARNING] Please study the warnings concerning your input carefully
-1- readin_getIntValue: could not parse ''
########################################################################

          :  Hamiltonian                  GFN2-xTB          :
 * total energy  :   -41.1747895 Eh     change        0.1136868E-12 Eh
 * total energy  :   -42.0345768 Eh     change       -0.8597873E+00 Eh
 * total energy  :   -42.1371526 Eh     change       -0.1025758E+00 Eh
 * total energy  :   -42.1600964 Eh     change       -0.2294377E-01 Eh
 * total energy  :   -42.1650413 Eh     change       -0.4944924E-02 Eh
 * total energy  :   -42.1656325 Eh     change       -0.5912273E-03 Eh
 * total energy  :   -42.1662272 Eh     change       -0.5947296E-03 Eh
 * total energy  :   -42.1669349 Eh     change       -0.7076595E-03 Eh
 * total energy  :   -42.1675727 Eh     change       -0.6377721E-03 Eh
 * total energy  :   -42.1684475 Eh     change       -0.8747968E-03 Eh
 * total energy  :   -42.1691894 Eh     change       -0.7419286E-03 Eh
 * total energy  :   -42.1689738 Eh     change        0.2155892E-03 Eh
 * total energy  :   -42.1698717 Eh     change       -0.8979014E-03 Eh
 * total energy  :   -42.1700295 Eh     change       -0.1578126E-03 Eh
   *** GEOMETRY OPTIMIZATION CONVERGED AFTER 14 ITERATIONS ***

 final structure:
================
25
 xtb: 6.6.1 (8d0f1dd)
C            2.94674085279979        1.04928102680679        0.71860422563525
N            2.27421970653133        0.00492837355232       -0.05072265358841
C            2.94139890507761       -0.87862976992151       -0.66114544320276
N            3.46725675711271       -1.85337396117999       -1.07292470697011
C            0.19518704860298       -1.22869828470741        0.16728132233408
C            0.84712794970308       -0.05229727976312       -0.03519046906274
C            0.10197663735456        1.18802105835979       -0.24968831267848
O            0.61380097415046        2.26268715551288       -0.47458844915491
N           -1.27039863180831        1.02040574975453       -0.17473112128113
C           -2.11601057790802        2.19173629552626       -0.35138129172121
C           -1.94693456100190       -0.16594602700075        0.03321451530682
O           -3.14483820172872       -0.22774270226153        0.06760930530094
N           -1.14334554269943       -1.30223821008231        0.20770515135245
C           -1.80241570884661       -2.57398939011221        0.42669434833440
H            2.70234628928394        0.92974924968631        1.77329524930681
H            4.02194316048192        0.97795831754678        0.58048261704595
H            2.59189311284652        2.02238606360819        0.37437902819682
H            4.05935728498161       -2.15625421306183       -1.82654597375787
H           -1.47509631683086        3.06280077344823       -0.46126746705497
H           -2.73973394236771        2.06801844618577       -1.23638109459535
H           -2.76791753344010        2.30294194817730        0.51454576464892
H           -1.43774289778551       -3.03489768132025        1.34401760554402
H           -1.62198902776593       -3.24455417296986       -0.41368229195375
H           -2.87197453532327       -2.38963284326388        0.51332308038478
H            0.73558031267699       -2.15442138091949        0.31826867953204

          :  Hamiltonian                  GFN2-xTB          :
         :: total energy             -42.170029525018 Eh    ::
         :: gradient norm              0.009181192464 Eh/a0 ::
         :: HOMO-LUMO gap              2.765955698082 eV    ::
         :: SCC energy               -42.745577555944 Eh    ::
         :: -> dispersion             -0.021724507796 Eh    ::
         :: repulsion energy           0.575417150957 Eh    ::

    * Orbital Energies and Occupations

         #    Occupation            Energy/Eh            Energy/eV
      -------------------------------------------------------------
         1        2.0000           -0.8862353             -24.1157
       ...           ...                  ...                  ...
        25        2.0000           -0.6663706             -18.1329
        26        2.0000           -0.6623173             -18.0226
        27        1.9999           -0.6509492             -17.7132
        28        1.9998           -0.6410328             -17.4434
        29        1.9996           -0.6280841             -17.0910
        30        1.9994           -0.6196766             -16.8623
        31        1.9992           -0.6156126             -16.7517
        32        1.9984           -0.6054338             -16.4747
        33        1.9971           -0.5960696             -16.2199
        34        1.9846           -0.5692381             -15.4898
        35        1.9693           -0.5582340             -15.1903
        36        1.9675           -0.5572927             -15.1647
        37        1.9438           -0.5484273             -14.9235 (HOMO)
        38        0.1067           -0.4467803             -12.1575 (LUMO)
        39        0.0276           -0.4247515             -11.5581
        40        0.0064           -0.4013260             -10.9206
        41        0.0009           -0.3695228             -10.0552
        42        0.0000           -0.2892755              -7.8716
        43        0.0000           -0.2278567              -6.2003
        44                         -0.1655667              -4.5053
        45                         -0.1199234              -3.2633
        46                         -0.1031169              -2.8060
        47                         -0.0603174              -1.6413
        48                         -0.0434681              -1.1828
       ...                                ...                  ...
        67                          0.9569703              26.0405
      -------------------------------------------------------------
                  HL-Gap            0.1016470 Eh            2.7660 eV

     #   Z          covCN         q      C6AA      α(0)
     1   6 C        3.710    -0.082    22.214     6.736
     2   7 N        2.732     0.072    19.987     6.640
     3   6 C        1.881     0.191    26.584     8.327
     4   7 N        1.772    -0.124    24.428     7.319
     5   6 C        2.858     0.018    27.594     8.610
     6   6 C        2.929    -0.017    28.427     8.744
     7   6 C        2.769     0.270    22.437     7.758
     8   8 O        0.858    -0.383    21.339     6.193
     9   7 N        2.743    -0.076    22.722     7.080
    10   6 C        3.709    -0.060    21.807     6.674
    11   6 C        2.725     0.316    21.631     7.614
    12   8 O        0.859    -0.360    20.891     6.128
    13   7 N        2.744    -0.020    21.634     6.908
    14   6 C        3.703    -0.075    22.101     6.722
    15   1 H        0.925     0.103     1.761     2.075
    16   1 H        0.925     0.097     1.814     2.106
    17   1 H        0.924     0.142     1.446     1.881
    18   1 H        0.860     0.282     0.770     1.375
    19   1 H        0.925     0.112     1.683     2.029
    20   1 H        0.925     0.099     1.797     2.096
    21   1 H        0.925     0.100     1.784     2.089
    22   1 H        0.925     0.091     1.871     2.139
    23   1 H        0.925     0.091     1.873     2.140
    24   1 H        0.925     0.124     1.583     1.968
    25   1 H        0.925     0.090     1.877     2.142

Wiberg/Mayer (AO) data.
largest (>0.10) Wiberg bond orders for each atom

     #   Z sym  total        # sym  WBO       # sym  WBO       # sym  WBO
 ---------------------------------------------------------------------------
     1   6 C    3.895 --    16 H    0.976    15 H    0.966    17 H    0.946
                             2 N    0.929
     2   7 N    3.638 --     3 C    1.489     6 C    0.965     1 C    0.929
                             4 N    0.191
     3   6 C    3.839 --     4 N    2.229     2 N    1.489
     4   7 N    3.400 --     3 C    2.229    18 H    0.879     2 N    0.191
     5   6 C    3.942 --     6 C    1.542    13 N    1.277    25 H    0.952
     6   6 C    3.869 --     5 C    1.542     7 C    1.059     2 N    0.965
     7   6 C    3.954 --     8 O    1.668     9 N    1.121     6 C    1.059
     8   8 O    2.011 --     7 C    1.668     9 N    0.145
     9   7 N    3.558 --     7 C    1.121    11 C    1.117    10 C    0.971
                             8 O    0.145    12 O    0.136
    10   6 C    3.910 --     9 N    0.971    19 H    0.968    21 H    0.962
                            20 H    0.961
    11   6 C    3.958 --    12 O    1.699     9 N    1.117    13 N    1.052
    12   8 O    2.042 --    11 C    1.699     9 N    0.136    13 N    0.114
    13   7 N    3.599 --     5 C    1.277    11 C    1.052    14 C    0.978
                            12 O    0.114
    14   6 C    3.920 --    13 N    0.978    22 H    0.968    23 H    0.966
                            24 H    0.965
    15   1 H    0.988 --     1 C    0.966
    16   1 H    0.990 --     1 C    0.976
    17   1 H    0.978 --     1 C    0.946
    18   1 H    0.916 --     4 N    0.879
    19   1 H    0.985 --    10 C    0.968
    20   1 H    0.983 --    10 C    0.961
    21   1 H    0.983 --    10 C    0.962
    22   1 H    0.986 --    14 C    0.968
    23   1 H    0.985 --    14 C    0.966
    24   1 H    0.984 --    14 C    0.965
    25   1 H    0.991 --     5 C    0.952
 ---------------------------------------------------------------------------

molecular dipole:
                 x           y           z       tot (Debye)
 q only:        3.093      -1.826      -0.231
   full:        3.399      -2.050      -0.380      10.134

           -------------------------------------------------
          | TOTAL ENERGY              -42.170029525018 Eh   |
          | GRADIENT NORM               0.009181192464 Eh/α |
          | HOMO-LUMO GAP               2.765955698082 eV   |
           -------------------------------------------------

 * finished run on 2024/06/05 at 20:00:23.228
