   * xtb version 6.6.1 (8d0f1dd) compiled by 'conda@1efc2f54142f' on 2023-08-01
          program call               : xtb xtbopt.xyz --opt crude --input .xc2 --gfn2

   ID    Z sym.   atoms
    1    6 C      1, 3, 5-7, 10, 11, 14
    2    7 N      2, 4, 9, 13
    3    8 O      8, 12
    4    1 H      15-25
########################################################################
[WARNING] Please study the warnings concerning your input carefully
-1- readin_getIntValue: could not parse ''
########################################################################

          :  Hamiltonian                  GFN2-xTB          :
 * total energy  :   -42.1717647 Eh     change       -0.1982414E-11 Eh
 * total energy  :   -42.1767618 Eh     change       -0.4997091E-02 Eh
 * total energy  :   -42.1798906 Eh     change       -0.3128798E-02 Eh
 * total energy  :   -42.1812876 Eh     change       -0.1397043E-02 Eh
 * total energy  :   -42.1821031 Eh     change       -0.8154930E-03 Eh
 * total energy  :   -42.1824712 Eh     change       -0.3681236E-03 Eh
   *** GEOMETRY OPTIMIZATION CONVERGED AFTER 6 ITERATIONS ***

 final structure:
================
25
 xtb: 6.6.1 (8d0f1dd)
C            3.42371182131931        1.47064725559176        0.58386192976542
N            2.20840043320613       -0.50929007954276       -0.23550789878567
C            2.50238404736205        0.84720186131560       -0.46271285287004
N            0.49239754664911       -3.01167996726645        0.14319122790152
C            0.09305881659225       -1.81102728200311        0.06379676909903
C            0.92467533166043       -0.63024961142916       -0.13047542423672
C            0.30124288193728        0.65656970496150       -0.28659090915459
O            1.21661002580179        1.55877578589303       -0.50299549014909
N           -1.00117841191211        0.82468821744602       -0.21302619130506
C           -1.64258836342501        2.11656853830641       -0.36689745333535
C           -1.85875137470452       -0.30565755763647        0.01280639175292
O           -3.03878468335986       -0.12555060010426        0.08421001403722
N           -1.25862127418786       -1.53801537482651        0.13350688559468
C           -2.13144711107246       -2.68908476026596        0.29755644417577
H            4.34741261497013        0.90016747901857        0.61627869532530
H            3.63503379149968        2.50047629479379        0.30202711218699
H            2.95479940978999        1.44805446557177        1.56763259983871
H            2.96447781979726        0.96016908515698       -1.45758823552734
H           -0.87820388342009        2.88375981316320       -0.45819122885457
H           -2.27714189118355        2.10863554470339       -1.25411949318545
H           -2.27839269224906        2.31053510389281        0.49755124345659
H           -1.77520478335028       -3.29151128993708        1.13241546528039
H           -2.09860146203899       -3.30385507416013       -0.60296574609517
H           -3.14778035648197       -2.34600385885745        0.47556029364133
H            1.48292326090002       -3.20608515221132        0.09184746933913

          :  Hamiltonian                  GFN2-xTB          :
         :: total energy             -42.182471233629 Eh    ::
         :: gradient norm              0.006511933542 Eh/a0 ::
         :: HOMO-LUMO gap              1.621746196641 eV    ::
         :: SCC energy               -42.690580260168 Eh    ::
         :: -> dispersion             -0.021700140406 Eh    ::
         :: repulsion energy           0.507990844170 Eh    ::

    * Orbital Energies and Occupations

         #    Occupation            Energy/Eh            Energy/eV
      -------------------------------------------------------------
         1        2.0000           -0.9473710             -25.7793
       ...           ...                  ...                  ...
        25        1.9998           -0.6727759             -18.3072
        26        1.9997           -0.6682212             -18.1832
        27        1.9991           -0.6502683             -17.6947
        28        1.9986           -0.6432542             -17.5038
        29        1.9969           -0.6305644             -17.1585
        30        1.9955           -0.6246934             -16.9988
        31        1.9949           -0.6228862             -16.9496
        32        1.9937           -0.6195186             -16.8580
        33        1.9849           -0.6055254             -16.4772
        34        1.9825           -0.6032610             -16.4156
        35        1.9698           -0.5944803             -16.1766
        36        1.9122           -0.5771000             -15.7037
        37        1.8091           -0.5639319             -15.3454 (HOMO)
        38        0.3604           -0.5043339             -13.7236 (LUMO)
        39        0.0029           -0.4250585             -11.5664
        40        0.0005           -0.3968418             -10.7986
        41        0.0000           -0.3068460              -8.3497
        42                         -0.2346630              -6.3855
        43                         -0.1932051              -5.2574
        44                         -0.1566730              -4.2633
        45                         -0.1115905              -3.0365
        46                         -0.0993233              -2.7027
        47                         -0.0610067              -1.6601
        48                         -0.0571884              -1.5562
       ...                                ...                  ...
        67                          0.5327210              14.4961
      -------------------------------------------------------------
                  HL-Gap            0.0595981 Eh            1.6217 eV

     #   Z          covCN         q      C6AA      α(0)
     1   6 C        3.751    -0.126    22.976     6.836
     2   7 N        1.876    -0.191    25.960     7.553
     3   6 C        3.929     0.178    17.703     5.979
     4   7 N        1.787    -0.236    27.012     7.698
     5   6 C        2.827     0.162    24.495     8.110
     6   6 C        3.052     0.058    26.653     8.467
     7   6 C        2.955     0.227    23.244     7.908
     8   8 O        1.707    -0.194    17.233     5.605
     9   7 N        2.735    -0.036    21.941     6.957
    10   6 C        3.699    -0.067    21.956     6.701
    11   6 C        2.721     0.317    21.607     7.609
    12   8 O        0.859    -0.320    20.153     6.019
    13   7 N        2.752    -0.038    21.983     6.964
    14   6 C        3.711    -0.077    22.113     6.720
    15   1 H        0.925     0.111     1.691     2.033
    16   1 H        0.925     0.102     1.770     2.081
    17   1 H        0.925     0.088     1.897     2.154
    18   1 H        0.923     0.127     1.558     1.952
    19   1 H        0.925     0.106     1.733     2.059
    20   1 H        0.924     0.118     1.633     1.999
    21   1 H        0.924     0.121     1.607     1.982
    22   1 H        0.925     0.118     1.627     1.995
    23   1 H        0.924     0.114     1.666     2.018
    24   1 H        0.925     0.123     1.591     1.972
    25   1 H        0.860     0.217     1.025     1.586

Wiberg/Mayer (AO) data.
largest (>0.10) Wiberg bond orders for each atom

     #   Z sym  total        # sym  WBO       # sym  WBO       # sym  WBO
 ---------------------------------------------------------------------------
     1   6 C    3.920 --    17 H    0.975    16 H    0.971    15 H    0.966
                             3 C    0.952
     2   7 N    2.880 --     6 C    1.592     3 C    1.090
     3   6 C    3.884 --     2 N    1.090     1 C    0.952    18 H    0.896
                             8 O    0.868
     4   7 N    2.867 --     5 C    1.709    25 H    0.919
     5   6 C    3.947 --     4 N    1.709    13 N    1.125     6 C    1.030
     6   6 C    3.885 --     2 N    1.592     7 C    1.099     5 C    1.030
     7   6 C    3.844 --     9 N    1.344     8 O    1.244     6 C    1.099
     8   8 O    2.353 --     7 C    1.244     3 C    0.868
     9   7 N    3.585 --     7 C    1.344    11 C    0.977    10 C    0.967
    10   6 C    3.905 --    19 H    0.973     9 N    0.967    21 H    0.956
                            20 H    0.954
    11   6 C    3.943 --    12 O    1.731    13 N    1.147     9 N    0.977
    12   8 O    2.057 --    11 C    1.731    13 N    0.138
    13   7 N    3.545 --    11 C    1.147     5 C    1.125    14 C    0.969
                            12 O    0.138
    14   6 C    3.883 --    13 N    0.969    24 H    0.964    22 H    0.953
                            23 H    0.949
    15   1 H    0.984 --     1 C    0.966
    16   1 H    0.985 --     1 C    0.971
    17   1 H    0.988 --     1 C    0.975
    18   1 H    0.955 --     3 C    0.896
    19   1 H    0.987 --    10 C    0.973
    20   1 H    0.977 --    10 C    0.954
    21   1 H    0.977 --    10 C    0.956
    22   1 H    0.973 --    14 C    0.953
    23   1 H    0.970 --    14 C    0.949
    24   1 H    0.980 --    14 C    0.964
    25   1 H    0.943 --     4 N    0.919
 ---------------------------------------------------------------------------

molecular dipole:
                 x           y           z       tot (Debye)
 q only:        0.868       0.034      -0.129
   full:        1.046       0.505      -0.308       3.054

           -------------------------------------------------
          | TOTAL ENERGY              -42.182471233629 Eh   |
          | GRADIENT NORM               0.006511933542 Eh/α |
          | HOMO-LUMO GAP               1.621746196641 eV   |
           -------------------------------------------------

 * finished run on 2024/06/05 at 19:57:53.847
