   * xtb version 6.6.1 (8d0f1dd) compiled by 'conda@1efc2f54142f' on 2023-08-01
          program call               : xtb xtbopt.xyz --opt crude --input .xc2 --gfn2

   ID    Z sym.   atoms
    1    6 C      1, 3, 5-7, 10, 11, 14
    2    7 N      2, 4, 9, 13
    3    8 O      8, 12
    4    1 H      15-25
########################################################################
[WARNING] Please study the warnings concerning your input carefully
-1- readin_getIntValue: could not parse ''
########################################################################

          :  Hamiltonian                  GFN2-xTB          :
 * total energy  :   -42.1183272 Eh     change       -0.2202682E-12 Eh
   *** GEOMETRY OPTIMIZATION CONVERGED AFTER 1 ITERATIONS ***

 final structure:
================
25
 xtb: 6.6.1 (8d0f1dd)
C            3.08116648227616        0.97104593493103        0.11507193375471
N            2.08383824965143       -0.05072002103338        0.32227198190442
C            2.36314692101876       -1.23307418789660        0.85432836252227
N            1.24727373790817       -1.96655564561527        0.89930830042168
C            0.21177467929895       -1.22231104818856        0.38350047017470
C            0.74041845629805        0.01052438826901        0.02015634845596
C            0.10886429316568        1.28259432995565       -0.50299558119746
O            0.81893741375129        2.18621470504820       -0.95201415359702
N           -1.20009144895169        1.28881343511277       -0.38024600054581
C           -1.96531494357195        2.43457934829356       -0.71401235604324
C           -1.45324420142603       -2.63517427938847        1.22671887916381
O           -1.28989403155265       -3.31304608578400        2.16712316465445
N           -1.07813024358495       -1.79635875229569        0.32341577932841
C           -1.95826695325405       -1.45791729660450       -0.79469801221225
H            3.61471233798689        1.16248010564265        1.04469156487192
H            3.79160248174667        0.64473286945753       -0.64466577362945
H            2.59267777737175        1.88189198632873       -0.23507060915178
H            3.33019738872331       -1.54972373475178        1.19393680458349
H           -1.34732756961232        3.24080614820742       -1.12149819979429
H           -2.73293719365470        2.15783332996258       -1.44124982076693
H           -2.47484049771008        2.79087346860343        0.18611052457873
H           -1.56212696487507       -1.88639137033677       -1.71588017252861
H           -1.98737017660471       -0.36359693571981       -0.87012890967313
H           -2.95212785173342       -1.85440307724932       -0.60293875054224
H            1.17749337143150       -2.90487907334650        1.26993584317114

          :  Hamiltonian                  GFN2-xTB          :
         :: total energy             -42.118327155377 Eh    ::
         :: gradient norm              0.005085713488 Eh/a0 ::
         :: HOMO-LUMO gap              1.158975185487 eV    ::
         :: SCC energy               -42.647506839530 Eh    ::
         :: -> dispersion             -0.021712608382 Eh    ::
         :: repulsion energy           0.529005771499 Eh    ::

    * Orbital Energies and Occupations

         #    Occupation            Energy/Eh            Energy/eV
      -------------------------------------------------------------
         1        2.0000           -0.9266809             -25.2163
       ...           ...                  ...                  ...
        25        2.0000           -0.6671789             -18.1549
        26        2.0000           -0.6656287             -18.1127
        27        1.9999           -0.6387121             -17.3802
        28        1.9999           -0.6368323             -17.3291
        29        1.9998           -0.6246418             -16.9974
        30        1.9996           -0.6173917             -16.8001
        31        1.9995           -0.6147148             -16.7272
        32        1.9992           -0.6053262             -16.4718
        33        1.9984           -0.5950990             -16.1935
        34        1.9951           -0.5774256             -15.7126
        35        1.9367           -0.5365099             -14.5992
        36        1.7311           -0.5118194             -13.9273
        37        1.6966           -0.5095898             -13.8666 (HOMO)
        38        0.5503           -0.4669982             -12.7077 (LUMO)
        39        0.0585           -0.4268947             -11.6164
        40        0.0336           -0.4179048             -11.3718
        41        0.0019           -0.3718357             -10.1182
        42        0.0000           -0.2951667              -8.0319
        43        0.0000           -0.2177578              -5.9255
        44                         -0.1918062              -5.2193
        45                         -0.1390205              -3.7829
        46                         -0.0772635              -2.1024
        47                         -0.0578869              -1.5752
        48                         -0.0465006              -1.2653
       ...                                ...                  ...
        67                          0.7602456              20.6873
      -------------------------------------------------------------
                  HL-Gap            0.0425916 Eh            1.1590 eV

     #   Z          covCN         q      C6AA      α(0)
     1   6 C        3.694    -0.100    22.601     6.801
     2   7 N        2.858     0.086    19.751     6.601
     3   6 C        3.028     0.056    26.716     8.478
     4   7 N        2.803    -0.057    22.336     7.019
     5   6 C        3.047     0.089    25.972     8.358
     6   6 C        3.074     0.011    27.695     8.629
     7   6 C        2.764     0.280    22.255     7.726
     8   8 O        0.858    -0.415    21.976     6.285
     9   7 N        1.832    -0.266    27.751     7.806
    10   6 C        3.702    -0.027    21.213     6.586
    11   6 C        1.819     0.259    25.208     8.112
    12   8 O        0.856    -0.169    17.567     5.619
    13   7 N        2.728     0.025    20.822     6.777
    14   6 C        3.703    -0.098    22.531     6.787
    15   1 H        0.925     0.101     1.774     2.083
    16   1 H        0.925     0.107     1.719     2.050
    17   1 H        0.924     0.156     1.352     1.818
    18   1 H        0.926     0.128     1.548     1.946
    19   1 H        0.924     0.089     1.888     2.149
    20   1 H        0.924     0.082     1.961     2.190
    21   1 H        0.924     0.089     1.892     2.151
    22   1 H        0.924     0.099     1.796     2.096
    23   1 H        0.924     0.138     1.474     1.899
    24   1 H        0.925     0.107     1.724     2.053
    25   1 H        0.860     0.229     0.970     1.543

Wiberg/Mayer (AO) data.
largest (>0.10) Wiberg bond orders for each atom

     #   Z sym  total        # sym  WBO       # sym  WBO       # sym  WBO
 ---------------------------------------------------------------------------
     1   6 C    3.893 --     2 N    0.979    15 H    0.963    16 H    0.956
                            17 H    0.937
     2   7 N    3.701 --     3 C    1.384     6 C    1.191     1 C    0.979
     3   6 C    3.885 --     2 N    1.384     4 N    1.317    18 H    0.951
     4   7 N    3.596 --     3 C    1.317     5 C    1.179    25 H    0.918
     5   6 C    3.854 --     6 C    1.444     4 N    1.179    13 N    1.010
     6   6 C    3.881 --     5 C    1.444     2 N    1.191     7 C    0.958
     7   6 C    3.928 --     8 O    1.529     9 N    1.376     6 C    0.958
     8   8 O    1.804 --     7 C    1.529     9 N    0.151
     9   7 N    2.720 --     7 C    1.376    10 C    1.064     8 O    0.151
    10   6 C    3.901 --     9 N    1.064    20 H    0.938    19 H    0.936
                            21 H    0.929
    11   6 C    3.449 --    12 O    1.962    13 N    1.400
    12   8 O    2.198 --    11 C    1.962    13 N    0.171
    13   7 N    3.585 --    11 C    1.400     5 C    1.010    14 C    0.937
                            12 O    0.171
    14   6 C    3.863 --    24 H    0.974    22 H    0.968    13 N    0.937
                            23 H    0.918
    15   1 H    0.987 --     1 C    0.963
    16   1 H    0.986 --     1 C    0.956
    17   1 H    0.974 --     1 C    0.937
    18   1 H    0.983 --     3 C    0.951
    19   1 H    0.942 --    10 C    0.936
    20   1 H    0.957 --    10 C    0.938
    21   1 H    0.950 --    10 C    0.929
    22   1 H    0.989 --    14 C    0.968
    23   1 H    0.980 --    14 C    0.918
    24   1 H    0.987 --    14 C    0.974
    25   1 H    0.947 --     4 N    0.918
 ---------------------------------------------------------------------------

molecular dipole:
                 x           y           z       tot (Debye)
 q only:        1.124      -2.366       0.655
   full:        1.246      -2.648       0.790       7.704

           -------------------------------------------------
          | TOTAL ENERGY              -42.118327155377 Eh   |
          | GRADIENT NORM               0.005085713488 Eh/α |
          | HOMO-LUMO GAP               1.158975185487 eV   |
           -------------------------------------------------

 * finished run on 2024/06/05 at 20:00:18.605
