   * xtb version 6.6.1 (8d0f1dd) compiled by 'conda@1efc2f54142f' on 2023-08-01
          program call               : xtb struc.xyz --opt loose --input .xc1 --gfn2

   ID    Z sym.   atoms
    1    6 C      1, 3, 5-7, 10, 11, 14
    2    7 N      2, 4, 9, 13
    3    8 O      8, 12
    4    1 H      15-25
constraining bond 2 16 to    4.0600000 Å, actual value:    2.0856233 Å

          :  Hamiltonian                  GFN2-xTB          :
 * total energy  :   -35.2997548 Eh     change       -0.2401990E-09 Eh
 * total energy  :   -38.3041669 Eh     change       -0.3004412E+01 Eh
 * total energy  :   -40.4521244 Eh     change       -0.2147957E+01 Eh
 * total energy  :   -41.5031200 Eh     change       -0.1050996E+01 Eh
 * total energy  :   -41.8415667 Eh     change       -0.3384467E+00 Eh
 * total energy  :   -41.8942326 Eh     change       -0.5266591E-01 Eh
 * total energy  :   -41.9148295 Eh     change       -0.2059687E-01 Eh
 * total energy  :   -41.9742413 Eh     change       -0.5941180E-01 Eh
 * total energy  :   -41.9976854 Eh     change       -0.2344410E-01 Eh
 * total energy  :   -42.0157343 Eh     change       -0.1804896E-01 Eh
 * total energy  :   -42.1373425 Eh     change       -0.1859334E-02 Eh
 * total energy  :   -42.1388039 Eh     change       -0.1461407E-02 Eh
 * total energy  :   -42.1399091 Eh     change       -0.1105185E-02 Eh
 * total energy  :   -42.1403540 Eh     change       -0.4448863E-03 Eh
 * total energy  :   -42.1406930 Eh     change       -0.3390631E-03 Eh
 * total energy  :   -42.1408795 Eh     change       -0.1865184E-03 Eh
 * total energy  :   -42.1409791 Eh     change       -0.9958703E-04 Eh
 * total energy  :   -42.1410274 Eh     change       -0.4828717E-04 Eh
 * total energy  :   -42.1410564 Eh     change       -0.2898278E-04 Eh
   *** GEOMETRY OPTIMIZATION CONVERGED AFTER 32 ITERATIONS ***

 final structure:
================
25
 xtb: 6.6.1 (8d0f1dd)
C            3.07737934612390        1.04606052405404        0.22780409009540
N            2.20883959102413        0.04135764728417        0.17958046768583
C            2.46786651922427       -1.28962827580961        0.18239597426698
N            1.29902342574542       -1.99057750129833        0.12005900495068
C            0.27339254352288       -1.10029124247477        0.07469993390580
C            0.82358212741742        0.17545968288854        0.11135334386702
C            0.00546815246088        1.35934431072919        0.07283596916408
O            0.40246498334859        2.50406188149647        0.08816594807083
N           -1.35739029373812        1.03859664895203        0.01257136470543
C           -2.30306761328146        2.14253738352152       -0.01283007869914
C           -1.92617102814069       -0.22130259576402       -0.03336998606460
O           -3.11629855546836       -0.38376018142387       -0.09638706467984
N           -1.05259895225223       -1.32499379048669       -0.00350207459520
C           -1.60715787239174       -2.66172072493828       -0.05735445645950
H            4.13167182529956        0.82780798359921        0.26353067714284
H            5.36349156118869        2.05399073674432       -1.39600248455425
H            2.69905786469645        2.05307225160114        0.21480324537336
H            3.44287560681695       -1.72649742367182        0.23698048998656
H           -1.73781411669789        3.07313703203923       -0.01105930170880
H           -2.92708794263453        2.07905504711486       -0.90547411893525
H           -2.95431596887320        2.09618709202268        0.86180086045668
H           -1.33522455694126       -3.22514615236034        0.83631966781279
H           -1.25992107699612       -3.18418581489739       -0.94974010400507
H           -2.69202350054247       -2.56712485073059       -0.10213049811421
H            1.23438944518893       -2.99720112659173        0.11612074823159

          :  Hamiltonian                  GFN2-xTB          :
         :: total energy             -42.141056391198 Eh    ::
         :: gradient norm              0.003917358536 Eh/a0 ::
         :: HOMO-LUMO gap              0.441013500053 eV    ::
         :: SCC energy               -42.658973571273 Eh    ::
         :: -> dispersion             -0.022714640269 Eh    ::
         :: repulsion energy           0.517827589529 Eh    ::

    * Orbital Energies and Occupations

         #    Occupation            Energy/Eh            Energy/eV
      -------------------------------------------------------------
         1        2.0000           -0.9086466             -24.7255
       ...           ...                  ...                  ...
        25        1.9989           -0.6735697             -18.3288
        26        1.9988           -0.6700959             -18.2342
        27        1.9983           -0.6632920             -18.0491
        28        1.9953           -0.6383130             -17.3694
        29        1.9944           -0.6343348             -17.2611
        30        1.9935           -0.6307147             -17.1626
        31        1.9903           -0.6212615             -16.9054
        32        1.9828           -0.6075128             -16.5313
        33        1.9607           -0.5875902             -15.9891
        34        1.9176           -0.5694689             -15.4960
        35        1.9149           -0.5686648             -15.4742
        36        1.8958           -0.5636068             -15.3365
        37        1.2897           -0.5088768             -13.8472 (HOMO)
        38        0.9571           -0.4926699             -13.4062 (LUMO)
        39        0.0638           -0.4136729             -11.2566
        40        0.0401           -0.4023126             -10.9475
        41        0.0110           -0.3712003             -10.1009
        42        0.0004           -0.2905062              -7.9051
        43        0.0000           -0.2104529              -5.7267
        44        0.0000           -0.1861963              -5.0667
        45        0.0000           -0.1464553              -3.9853
        46        0.0000           -0.1198959              -3.2625
        47                         -0.0825682              -2.2468
        48                         -0.0515377              -1.4024
       ...                                ...                  ...
        67                          0.5392376              14.6734
      -------------------------------------------------------------
                  HL-Gap            0.0162069 Eh            0.4410 eV

     #   Z          covCN         q      C6AA      α(0)
     1   6 C        2.789    -0.073    29.795     8.941
     2   7 N        2.805     0.126    19.096     6.490
     3   6 C        3.033     0.021    27.503     8.602
     4   7 N        2.775    -0.060    22.403     7.030
     5   6 C        3.019     0.114    25.457     8.276
     6   6 C        3.103    -0.032    28.668     8.774
     7   6 C        2.764     0.270    22.445     7.759
     8   8 O        0.858    -0.347    20.650     6.093
     9   7 N        2.745    -0.076    22.710     7.078
    10   6 C        3.708    -0.062    21.829     6.678
    11   6 C        2.727     0.316    21.638     7.615
    12   8 O        0.860    -0.344    20.596     6.085
    13   7 N        2.738    -0.048    22.168     6.993
    14   6 C        3.697    -0.073    22.071     6.720
    15   1 H        0.926     0.109     1.702     2.040
    16   1 H        0.000     0.019     6.860     4.789
    17   1 H        0.926     0.138     1.478     1.901
    18   1 H        0.927     0.120     1.612     1.986
    19   1 H        0.925     0.123     1.586     1.970
    20   1 H        0.924     0.111     1.688     2.032
    21   1 H        0.924     0.110     1.699     2.038
    22   1 H        0.924     0.090     1.882     2.145
    23   1 H        0.924     0.090     1.876     2.142
    24   1 H        0.925     0.131     1.525     1.931
    25   1 H        0.860     0.227     0.980     1.551

Wiberg/Mayer (AO) data.
largest (>0.10) Wiberg bond orders for each atom

     #   Z sym  total        # sym  WBO       # sym  WBO       # sym  WBO
 ---------------------------------------------------------------------------
     1   6 C    3.388 --     2 N    1.324    15 H    0.958    17 H    0.953
     2   7 N    3.741 --     1 C    1.324     3 C    1.235     6 C    1.088
     3   6 C    3.607 --     2 N    1.235     4 N    1.224    18 H    0.955
     4   7 N    3.513 --     3 C    1.224     5 C    1.199    25 H    0.920
     5   6 C    3.894 --     6 C    1.324    13 N    1.202     4 N    1.199
     6   6 C    3.805 --     5 C    1.324     7 C    1.098     2 N    1.088
     7   6 C    3.923 --     8 O    1.658     6 C    1.098     9 N    1.078
     8   8 O    1.957 --     7 C    1.658     9 N    0.123
     9   7 N    3.491 --    11 C    1.123     7 C    1.078    10 C    0.977
                            12 O    0.124     8 O    0.123
    10   6 C    3.872 --     9 N    0.977    19 H    0.956    20 H    0.949
                            21 H    0.948
    11   6 C    3.939 --    12 O    1.681     9 N    1.123    13 N    1.046
    12   8 O    1.997 --    11 C    1.681     9 N    0.124    13 N    0.112
    13   7 N    3.501 --     5 C    1.202    11 C    1.046    14 C    0.977
                            12 O    0.112
    14   6 C    3.907 --    13 N    0.977    22 H    0.964    23 H    0.963
                            24 H    0.959
    15   1 H    0.984 --     1 C    0.958
    16   1 H    0.015
    17   1 H    0.977 --     1 C    0.953
    18   1 H    0.984 --     3 C    0.955
    19   1 H    0.974 --    10 C    0.956
    20   1 H    0.966 --    10 C    0.949
    21   1 H    0.965 --    10 C    0.948
    22   1 H    0.981 --    14 C    0.964
    23   1 H    0.980 --    14 C    0.963
    24   1 H    0.979 --    14 C    0.959
    25   1 H    0.948 --     4 N    0.920
 ---------------------------------------------------------------------------

molecular dipole:
                 x           y           z       tot (Debye)
 q only:        1.772      -1.988       0.149
   full:        2.025      -2.437       0.161       8.063

           -------------------------------------------------
          | TOTAL ENERGY              -42.141056391198 Eh   |
          | GRADIENT NORM               0.003917358536 Eh/α |
          | HOMO-LUMO GAP               0.441013500053 eV   |
           -------------------------------------------------

 * finished run on 2024/06/05 at 19:58:43.302
