   * xtb version 6.6.1 (8d0f1dd) compiled by 'conda@1efc2f54142f' on 2023-08-01
          program call               : xtb struc.xyz --opt loose --input .xc1 --gfn2

   ID    Z sym.   atoms
    1    6 C      1, 3, 5-7, 10, 11, 14
    2    7 N      2, 4, 9, 13
    3    8 O      8, 12
    4    1 H      15-25
constraining bond 3 25 to    2.7133300 Å, actual value:    2.1044033 Å

          :  Hamiltonian                  GFN2-xTB          :
 * total energy  :   -42.9221108 Eh     change       -0.2401990E-09 Eh
 * total energy  :   -45.1562807 Eh     change       -0.2234170E+01 Eh
 * total energy  :   -48.5504136 Eh     change       -0.3394133E+01 Eh
 * total energy  :   -28.5456294 Eh     change        0.2000478E+02 Eh
 * total energy  :   -49.6334246 Eh     change       -0.2108780E+02 Eh
 * total energy  :   -49.5911293 Eh     change        0.4229521E-01 Eh
 * total energy  :   -49.6946150 Eh     change       -0.1034856E+00 Eh
 * total energy  :   -49.7418337 Eh     change       -0.4721876E-01 Eh
 * total energy  :   -49.7481166 Eh     change       -0.6282899E-02 Eh
 * total energy  :   -49.7631021 Eh     change       -0.1498542E-01 Eh
 * total energy  :   -49.9178955 Eh     change       -0.3405008E-03 Eh
 * total energy  :   -49.9183334 Eh     change       -0.4378502E-03 Eh
 * total energy  :   -49.9187321 Eh     change       -0.3987382E-03 Eh
 * total energy  :   -49.9188784 Eh     change       -0.1463141E-03 Eh
 * total energy  :   -49.9189925 Eh     change       -0.1141140E-03 Eh
 * total energy  :   -49.9190908 Eh     change       -0.9826349E-04 Eh
 * total energy  :   -49.9191070 Eh     change       -0.1619964E-04 Eh
 * total energy  :   -49.9191140 Eh     change       -0.6992761E-05 Eh
 * total energy  :   -49.9191155 Eh     change       -0.1516520E-05 Eh
   *** GEOMETRY OPTIMIZATION CONVERGED AFTER 40 ITERATIONS ***

 final structure:
================
25
 xtb: 6.6.1 (8d0f1dd)
C            3.12004314196281        1.37615893240013        0.01513660281524
N            2.28137141304008        0.26522803070807        0.00935689112295
C            2.33670429072599       -2.53330869256488        0.00484750595729
N            1.06501456000068       -2.28196469629851       -0.00865217972641
C            0.38013178268607       -1.13800157720495       -0.00117405958952
C            0.99688867466716        0.15769174514189        0.00256150222089
C            0.09633387668941        1.34961036280486       -0.00213515695832
O            0.53292101370486        2.48290543082363       -0.00185275203075
N           -1.25114998693078        1.08566844323583       -0.00698937312519
C           -2.17746093296738        2.20623905036907       -0.01311215738459
C           -1.83944167297476       -0.17110787366681       -0.00458653662622
O           -3.03809028207885       -0.30189800930934       -0.00507830194446
N           -0.97783902867444       -1.25631953176873       -0.00195214885711
C           -1.56466070213471       -2.57963942845715        0.00004198292918
H            3.76194420334249        1.33572680703800        0.90206705983301
H            3.77255824654883        1.33642370013130       -0.86379225382827
H            2.55892080857587        2.32313299139974        0.01239860685676
H            2.95036916367665       -1.57346513667035        0.04143322875629
H           -1.60651298759175        3.13287461581956       -0.00317837666963
H           -2.80681188261652        2.15952535777107       -0.90378209515174
H           -2.82704372494677        2.15194105762122        0.86239059970007
H           -1.25069502932350       -3.12788766233502        0.88937851532996
H           -1.24100188898917       -3.13438414807686       -0.88168865208919
H           -2.64916755998646       -2.47389257954213       -0.00584919372113
H            2.53710601769416       -2.97301864776960       -0.00461763991929

          :  Hamiltonian                  GFN2-xTB          :
         :: total energy             -49.919115515193 Eh    ::
         :: gradient norm              0.002641596781 Eh/a0 ::
         :: HOMO-LUMO gap              0.149490306802 eV    ::
         :: SCC energy               -42.733375407355 Eh    ::
         :: -> dispersion             -0.022107832711 Eh    ::
         :: repulsion energy           1.693512136259 Eh    ::

    * Orbital Energies and Occupations

         #    Occupation            Energy/Eh            Energy/eV
      -------------------------------------------------------------
         1        2.0000           -0.8983511             -24.4454
       ...           ...                  ...                  ...
        25        1.9965           -0.6680880             -18.1796
        26        1.9962           -0.6663498             -18.1323
        27        1.9932           -0.6523769             -17.7521
        28        1.9930           -0.6517056             -17.7338
        29        1.9834           -0.6311712             -17.1750
        30        1.9806           -0.6273432             -17.0709
        31        1.9777           -0.6240265             -16.9806
        32        1.9687           -0.6158769             -16.7589
        33        1.9408           -0.6003945             -16.3376
        34        1.9316           -0.5968466             -16.2410
        35        1.9029           -0.5881788             -16.0052
        36        1.8367           -0.5749840             -15.6461
        37        1.2112           -0.5276853             -14.3590 (HOMO)
        38        1.0985           -0.5221916             -14.2096 (LUMO)
        39        0.1786           -0.4623475             -12.5811
        40        0.0120           -0.3960819             -10.7779
        41        0.0072           -0.3841009             -10.4519
        42        0.0002           -0.2970500              -8.0831
        43        0.0000           -0.1980097              -5.3881
        44        0.0000           -0.1493894              -4.0651
        45                         -0.0984555              -2.6791
        46                         -0.0905592              -2.4642
        47                         -0.0458188              -1.2468
        48                         -0.0338856              -0.9221
       ...                                ...                  ...
        67                          6.9189439             188.2740
      -------------------------------------------------------------
                  HL-Gap            0.0054937 Eh            0.1495 eV

     #   Z          covCN         q      C6AA      α(0)
     1   6 C        3.689    -0.053    21.729     6.672
     2   7 N        1.834    -0.111    24.194     7.289
     3   6 C        2.771    -0.022    28.527     8.747
     4   7 N        1.859    -0.116    24.299     7.306
     5   6 C        2.855     0.120    25.362     8.254
     6   6 C        2.888     0.048    26.928     8.508
     7   6 C        2.768     0.265    22.526     7.773
     8   8 O        0.858    -0.323    20.202     6.026
     9   7 N        2.739    -0.058    22.360     7.023
    10   6 C        3.708    -0.062    21.830     6.678
    11   6 C        2.722     0.315    21.646     7.616
    12   8 O        0.860    -0.331    20.351     6.048
    13   7 N        2.751    -0.015    21.538     6.893
    14   6 C        3.706    -0.077    22.134     6.726
    15   1 H        0.924     0.126     1.563     1.955
    16   1 H        0.924     0.127     1.561     1.954
    17   1 H        0.923     0.143     1.437     1.875
    18   1 H        0.915     0.116     1.644     2.005
    19   1 H        0.925     0.124     1.579     1.965
    20   1 H        0.924     0.119     1.625     1.994
    21   1 H        0.924     0.119     1.623     1.992
    22   1 H        0.924     0.117     1.641     2.003
    23   1 H        0.924     0.117     1.636     2.000
    24   1 H        0.925     0.133     1.510     1.922
    25   1 H        0.952     0.179     1.212     1.721

Wiberg/Mayer (AO) data.
largest (>0.10) Wiberg bond orders for each atom

     #   Z sym  total        # sym  WBO       # sym  WBO       # sym  WBO
 ---------------------------------------------------------------------------
     1   6 C    3.841 --     2 N    1.100    15 H    0.909    16 H    0.909
                            17 H    0.873
     2   7 N    2.839 --     6 C    1.547     1 C    1.100
     3   6 C    3.532 --     4 N    1.659    25 H    0.943    18 H    0.829
     4   7 N    3.039 --     3 C    1.659     5 C    1.255
     5   6 C    3.716 --     4 N    1.255    13 N    1.189     6 C    1.135
     6   6 C    3.834 --     2 N    1.547     5 C    1.135     7 C    0.955
     7   6 C    3.842 --     8 O    1.658     9 N    1.146     6 C    0.955
     8   8 O    1.943 --     7 C    1.658     9 N    0.120
     9   7 N    3.493 --     7 C    1.146    11 C    1.087    10 C    0.972
                             8 O    0.120    12 O    0.106
    10   6 C    3.853 --     9 N    0.972    19 H    0.955    21 H    0.942
                            20 H    0.942
    11   6 C    3.926 --    12 O    1.664    13 N    1.092     9 N    1.087
    12   8 O    1.943 --    11 C    1.664     9 N    0.106    13 N    0.102
    13   7 N    3.481 --     5 C    1.189    11 C    1.092    14 C    0.979
                            12 O    0.102
    14   6 C    3.867 --    13 N    0.979    24 H    0.952    22 H    0.945
                            23 H    0.945
    15   1 H    0.940 --     1 C    0.909
    16   1 H    0.940 --     1 C    0.909
    17   1 H    0.910 --     1 C    0.873
    18   1 H    0.906 --     3 C    0.829
    19   1 H    0.972 --    10 C    0.955
    20   1 H    0.960 --    10 C    0.942
    21   1 H    0.960 --    10 C    0.942
    22   1 H    0.962 --    14 C    0.945
    23   1 H    0.962 --    14 C    0.945
    24   1 H    0.971 --    14 C    0.952
    25   1 H    0.958 --     3 C    0.943
 ---------------------------------------------------------------------------

molecular dipole:
                 x           y           z       tot (Debye)
 q only:        1.369      -0.934       0.011
   full:        1.552      -0.704       0.015       4.331

           -------------------------------------------------
          | TOTAL ENERGY              -49.919115515193 Eh   |
          | GRADIENT NORM               0.002641596781 Eh/α |
          | HOMO-LUMO GAP               0.149490306802 eV   |
           -------------------------------------------------

 * finished run on 2024/06/05 at 19:58:57.389
