   * xtb version 6.6.1 (8d0f1dd) compiled by 'conda@1efc2f54142f' on 2023-08-01
          program call               : xtb xtbopt.xyz --opt crude --input .xc2 --gfn2

   ID    Z sym.   atoms
    1    6 C      1, 3, 5-7, 10, 11, 14
    2    7 N      2, 4, 9, 13
    3    8 O      8, 12
    4    1 H      15-25
########################################################################
[WARNING] Please study the warnings concerning your input carefully
-1- readin_getIntValue: could not parse ''
########################################################################

          :  Hamiltonian                  GFN2-xTB          :
 * total energy  :   -41.0397396 Eh     change       -0.1563194E-12 Eh
 * total energy  :   -42.1672461 Eh     change       -0.1127507E+01 Eh
 * total energy  :   -42.1869283 Eh     change       -0.1968221E-01 Eh
 * total energy  :   -42.1891852 Eh     change       -0.2256916E-02 Eh
 * total energy  :   -42.1904216 Eh     change       -0.1236349E-02 Eh
 * total energy  :   -42.1907057 Eh     change       -0.2841422E-03 Eh
 * total energy  :   -42.1909022 Eh     change       -0.1964721E-03 Eh
 * total energy  :   -42.1910433 Eh     change       -0.1411790E-03 Eh
 * total energy  :   -42.1911701 Eh     change       -0.1267563E-03 Eh
   *** GEOMETRY OPTIMIZATION CONVERGED AFTER 9 ITERATIONS ***

 final structure:
================
25
 xtb: 6.6.1 (8d0f1dd)
C            3.10251982474277        1.41395004921900        0.00968531022243
N            2.27347271278252        0.29574805985780        0.00588239969179
C            2.30877537437437       -2.46217347616115        0.01573821940384
N            1.05533990282289       -2.26715317191576       -0.01422659955291
C            0.37779607835121       -1.11529449789422       -0.00355392005313
C            0.98905723847060        0.18369202710115        0.00023437983285
C            0.08411073139955        1.37231739788478       -0.00256790504679
O            0.51509301303056        2.50796791809065       -0.00169435111763
N           -1.26251393608743        1.10311466297487       -0.00569551430530
C           -2.19356195456934        2.21929769584811       -0.00912080403931
C           -1.84499241187632       -0.15553416123033       -0.00525517676943
O           -3.04325351771488       -0.29190457897193       -0.00593905693845
N           -0.97917847997341       -1.23780791259613       -0.00396971967424
C           -1.56240898966537       -2.56272854024308       -0.00332624865372
H            3.74441322577719        1.38084920377914        0.89706593585139
H            3.75661852694142        1.37651114054753       -0.86854439620235
H            2.53673890499125        2.35859402492929        0.00391430260044
H            3.01882256480332       -1.63320462348535        0.07401476682395
H           -1.62654263134241        3.14825086174668        0.00123807965664
H           -2.82362072358236        2.17055183250521       -0.89903882052595
H           -2.84131786228818        2.16063307197613        0.86731435997649
H           -1.24937664546488       -3.11053510385815        0.88642316676969
H           -1.23597726649297       -3.11627291880004       -0.88462918644703
H           -2.64689097543942       -2.45799869184922       -0.01120340356597
H            2.70730881010931       -3.46263172785493       -0.01157420003746

          :  Hamiltonian                  GFN2-xTB          :
         :: total energy             -42.191170109624 Eh    ::
         :: gradient norm              0.009361568268 Eh/a0 ::
         :: HOMO-LUMO gap              0.306355992909 eV    ::
         :: SCC energy               -42.713706076450 Eh    ::
         :: -> dispersion             -0.022036605400 Eh    ::
         :: repulsion energy           0.522419816241 Eh    ::

    * Orbital Energies and Occupations

         #    Occupation            Energy/Eh            Energy/eV
      -------------------------------------------------------------
         1        2.0000           -0.8964511             -24.3937
       ...           ...                  ...                  ...
        25        1.9963           -0.6642923             -18.0763
        26        1.9960           -0.6625572             -18.0291
        27        1.9932           -0.6499103             -17.6850
        28        1.9929           -0.6488138             -17.6551
        29        1.9841           -0.6297305             -17.1358
        30        1.9811           -0.6254922             -17.0205
        31        1.9775           -0.6213115             -16.9067
        32        1.9689           -0.6135268             -16.6949
        33        1.9418           -0.5983377             -16.2816
        34        1.9329           -0.5948631             -16.1870
        35        1.9050           -0.5862650             -15.9531
        36        1.8329           -0.5719198             -15.5627
        37        1.2837           -0.5288956             -14.3920 (HOMO)
        38        1.0546           -0.5176373             -14.0856 (LUMO)
        39        0.1511           -0.4555651             -12.3966
        40        0.0112           -0.3920798             -10.6690
        41        0.0065           -0.3790380             -10.3141
        42        0.0002           -0.2938612              -7.9964
        43        0.0000           -0.1960830              -5.3357
        44        0.0000           -0.1471221              -4.0034
        45                         -0.0987561              -2.6873
        46                         -0.0793988              -2.1606
        47                         -0.0421420              -1.1467
        48                         -0.0329759              -0.8973
       ...                                ...                  ...
        67                          0.5304333              14.4338
      -------------------------------------------------------------
                  HL-Gap            0.0112584 Eh            0.3064 eV

     #   Z          covCN         q      C6AA      α(0)
     1   6 C        3.689    -0.052    21.701     6.667
     2   7 N        1.834    -0.115    24.262     7.299
     3   6 C        2.790     0.017    27.617     8.608
     4   7 N        1.838    -0.096    23.879     7.242
     5   6 C        2.868     0.121    25.334     8.251
     6   6 C        2.887     0.048    26.921     8.506
     7   6 C        2.768     0.264    22.540     7.775
     8   8 O        0.858    -0.324    20.227     6.030
     9   7 N        2.739    -0.059    22.376     7.026
    10   6 C        3.708    -0.061    21.821     6.677
    11   6 C        2.723     0.315    21.652     7.617
    12   8 O        0.860    -0.333    20.388     6.054
    13   7 N        2.752    -0.015    21.538     6.893
    14   6 C        3.706    -0.078    22.140     6.726
    15   1 H        0.924     0.125     1.575     1.963
    16   1 H        0.924     0.125     1.573     1.961
    17   1 H        0.923     0.142     1.448     1.882
    18   1 H        0.924     0.117     1.636     2.000
    19   1 H        0.925     0.124     1.584     1.968
    20   1 H        0.924     0.118     1.634     1.999
    21   1 H        0.924     0.118     1.631     1.997
    22   1 H        0.924     0.115     1.651     2.009
    23   1 H        0.924     0.116     1.644     2.005
    24   1 H        0.925     0.133     1.512     1.923
    25   1 H        0.926     0.135     1.499     1.915

Wiberg/Mayer (AO) data.
largest (>0.10) Wiberg bond orders for each atom

     #   Z sym  total        # sym  WBO       # sym  WBO       # sym  WBO
 ---------------------------------------------------------------------------
     1   6 C    3.841 --     2 N    1.102    15 H    0.909    16 H    0.909
                            17 H    0.872
     2   7 N    2.809 --     6 C    1.546     1 C    1.102
     3   6 C    3.599 --     4 N    1.696    25 H    0.932    18 H    0.878
     4   7 N    3.050 --     3 C    1.696     5 C    1.237
     5   6 C    3.706 --     4 N    1.237    13 N    1.195     6 C    1.140
     6   6 C    3.838 --     2 N    1.546     5 C    1.140     7 C    0.956
     7   6 C    3.842 --     8 O    1.657     9 N    1.145     6 C    0.956
     8   8 O    1.946 --     7 C    1.657     9 N    0.120
     9   7 N    3.493 --     7 C    1.145    11 C    1.089    10 C    0.972
                             8 O    0.120    12 O    0.107
    10   6 C    3.855 --     9 N    0.972    19 H    0.955    21 H    0.943
                            20 H    0.943
    11   6 C    3.924 --    12 O    1.663    13 N    1.091     9 N    1.089
    12   8 O    1.942 --    11 C    1.663     9 N    0.107    13 N    0.102
    13   7 N    3.486 --     5 C    1.195    11 C    1.091    14 C    0.979
                            12 O    0.102
    14   6 C    3.870 --    13 N    0.979    24 H    0.953    22 H    0.946
                            23 H    0.946
    15   1 H    0.940 --     1 C    0.909
    16   1 H    0.939 --     1 C    0.909
    17   1 H    0.908 --     1 C    0.872
    18   1 H    0.924 --     3 C    0.878
    19   1 H    0.972 --    10 C    0.955
    20   1 H    0.961 --    10 C    0.943
    21   1 H    0.961 --    10 C    0.943
    22   1 H    0.963 --    14 C    0.946
    23   1 H    0.963 --    14 C    0.946
    24   1 H    0.972 --    14 C    0.953
    25   1 H    0.950 --     3 C    0.932
 ---------------------------------------------------------------------------

molecular dipole:
                 x           y           z       tot (Debye)
 q only:        1.417      -1.078       0.013
   full:        1.654      -0.870       0.021       4.750

           -------------------------------------------------
          | TOTAL ENERGY              -42.191170109624 Eh   |
          | GRADIENT NORM               0.009361568268 Eh/α |
          | HOMO-LUMO GAP               0.306355992909 eV   |
           -------------------------------------------------

 * finished run on 2024/06/05 at 19:58:57.774
