   * xtb version 6.6.1 (8d0f1dd) compiled by 'conda@1efc2f54142f' on 2023-08-01
          program call               : xtb struc.xyz --opt loose --input .xc1 --gfn2

   ID    Z sym.   atoms
    1    7 N      1, 17
    2    6 C      2-6, 8, 9, 11-16, 18-23, 25, 26, 28-33
    3    8 O      7, 10, 24, 27
    4    1 H      34-72
constraining bond 4 15 to    6.0000000 Å, actual value:    2.8939743 Å

          :  Hamiltonian                  GFN2-xTB          :
 * total energy  :   -97.6815575 Eh     change       -0.4035485E-08 Eh
 * total energy  :   -98.1705674 Eh     change       -0.4890098E+00 Eh
 * total energy  :   -98.4789175 Eh     change       -0.3083501E+00 Eh
 * total energy  :   -98.6683254 Eh     change       -0.1894080E+00 Eh
 * total energy  :   -98.7952876 Eh     change       -0.1269622E+00 Eh
 * total energy  :   -98.8933984 Eh     change       -0.9811078E-01 Eh
 * total energy  :   -98.9800903 Eh     change       -0.8669195E-01 Eh
 * total energy  :   -99.0550061 Eh     change       -0.7491575E-01 Eh
 * total energy  :   -99.1078774 Eh     change       -0.5287128E-01 Eh
 * total energy  :   -99.1452443 Eh     change       -0.3736691E-01 Eh
 * total energy  :   -99.2869479 Eh     change       -0.3612086E-03 Eh
 * total energy  :   -99.2871610 Eh     change       -0.2130679E-03 Eh
 * total energy  :   -99.2873046 Eh     change       -0.1436639E-03 Eh
 * total energy  :   -99.2874388 Eh     change       -0.1341833E-03 Eh
 * total energy  :   -99.2875870 Eh     change       -0.1481854E-03 Eh
 * total energy  :   -99.2876898 Eh     change       -0.1027809E-03 Eh
 * total energy  :   -99.2877793 Eh     change       -0.8950769E-04 Eh
 * total energy  :   -99.2878572 Eh     change       -0.7794059E-04 Eh
 * total energy  :   -99.2878808 Eh     change       -0.2359060E-04 Eh
   *** GEOMETRY OPTIMIZATION CONVERGED AFTER 37 ITERATIONS ***

 final structure:
================
72
 xtb: 6.6.1 (8d0f1dd)
N           -1.80744683757687        2.88599227132048        1.97158553401083
C           -1.93637512044141        2.59344113397076        0.74871823200963
C           -3.15701500375307        2.85766667091882        0.00241054476073
C           -4.76262664549752        0.27966637793453        1.33212039451744
C           -5.34724979786948       -0.13975736922774        0.15193943793737
C           -5.30400848588839       -1.48500538221707       -0.19345486178799
O           -5.83437443494195       -2.02180207903677       -1.31081468651200
C           -6.55274167090875       -1.19790625291150       -2.19956902559187
C           -4.65810365255235       -2.40587464554244        0.67793438401271
O           -4.67923840358937       -3.69090120501393        0.26819906805520
C           -4.16460070002310       -4.69075942087866        1.11736031891225
C           -4.07235366974086       -1.94354285861784        1.84741564662951
C           -4.12195715234428       -0.59349122809031        2.17822983246819
C           -3.21521564212662        2.51989318899422       -1.28952166118428
C           -0.60768464849868        0.85815462228427       -2.95751197668845
C            0.40909482810588        0.98133198298929       -2.09522090977648
N            0.73525735492232        0.12666344191325       -1.08267716877528
C            2.06248533038395        0.19242193631564       -0.52886126513156
C            3.10118722499667       -0.55450640414171       -1.39528186979297
C            4.49086081570465       -0.31063793066668       -0.88755864365557
C            5.11509162264590        0.90804954517614       -1.11989970828227
C            6.38858047663117        1.15943040609353       -0.63872179459873
C            7.07366043431107        0.19239940966946        0.08567382550899
O            8.31195520161313        0.32462076386241        0.59449260397661
C            9.02100680117017        1.52270024717416        0.37680749164933
C            6.44590031058588       -1.06213443761680        0.32556885162882
O            7.18287637618380       -1.94677210671951        1.02442693007099
C            6.66825485037871       -3.23447893130109        1.26834267943095
C            5.16516076339194       -1.28575890407254       -0.15903847701641
C           -0.00272923851082       -1.09922800125027       -0.91271774378177
C           -4.32667538113046        3.53569778283347        0.68338614191469
C           -4.72571678192543        2.85986881646155        1.94961280676176
C           -3.95503371424458        4.99769425630751        1.01204582747819
H           -5.83955949285485        0.57308538864606       -0.48905928357008
H           -7.41239172521409       -0.73167296621797       -1.70825304488033
H           -6.90430894562466       -1.86031683532204       -2.98899394629571
H           -5.91311832100678       -0.42267646833468       -2.63489916618110
H           -4.67797469404191       -4.69687085707842        2.08390795878065
H           -4.35004920986181       -5.63369666847231        0.60459210164899
H           -3.08741604568021       -4.57054104943074        1.27575746371668
H           -3.57715428037501       -2.62689012219792        2.51819366404073
H           -3.66833537411005       -0.24815311929678        3.09296725124253
H           -4.08897427452559        2.71151768410728       -1.88890312650841
H           -2.38267653917174        2.05185850644345       -1.79074914022132
H           -1.25642109687185        0.00097042942711       -2.98345945693325
H           -0.78110330323556        1.62114592607397       -3.69362685713395
H           -1.14296970765111        2.12620375351331        0.14843751643821
H            1.04597164957364        1.85570415842746       -2.14535053598942
H            2.05117742952306       -0.23643304172685        0.47697305330416
H            2.35895555237786        1.24163658082407       -0.44817659567569
H            3.01315618533289       -0.18997719351263       -2.42159490387287
H            2.87631090322826       -1.62152629444411       -1.38835940478337
H            4.61017496450012        1.67045601508234       -1.69342903452373
H            6.84615814694453        2.11456159718226       -0.83811741905832
H            8.51386463571351        2.37690331546162        0.83595606486534
H            9.16565072802111        1.71382089330749       -0.69076317811707
H            9.98946520077775        1.37995641075880        0.85251940737105
H            7.44695546601015       -3.76140961560250        1.81649149024331
H            5.76035907952755       -3.19517911717328        1.87827405056646
H            6.45991873619926       -3.76554834177951        0.33448868080538
H            4.68214743113625       -2.23418765631671        0.01633938394612
H            0.17407986431598       -1.80425124680678       -1.73024604349757
H           -1.06975885817396       -0.88104575646727       -0.86956120340610
H            0.29242877301679       -1.56694461904958        0.02332530395042
H           -5.16853668359544        3.54862221228622       -0.01705976366764
H           -3.95847483121859        2.81838880127370        2.70842883535357
H           -4.80309860115359        1.40511951977766        1.61263679273898
H           -5.72866808740015        3.04671204863006        2.30347806458776
H           -3.11576455013697        5.01900104044889        1.70136058276423
H           -3.68118522656951        5.51855394734470        0.09800132061352
H           -4.80156419416550        5.50674899035656        1.46557244717337
H           -0.91098051597968        2.67735757546742        2.39874475361692

          :  Hamiltonian                  GFN2-xTB          :
         :: total energy             -99.287880829731 Eh    ::
         :: gradient norm              0.002557705026 Eh/a0 ::
         :: HOMO-LUMO gap              1.098538028402 eV    ::
         :: SCC energy              -100.710682369437 Eh    ::
         :: -> dispersion             -0.066572874826 Eh    ::
         :: repulsion energy           1.421430371480 Eh    ::

    * Orbital Energies and Occupations

         #    Occupation            Energy/Eh            Energy/eV
      -------------------------------------------------------------
         1        2.0000           -0.8107857             -22.0626
       ...           ...                  ...                  ...
        78        1.9981           -0.5294346             -14.4066
        79        1.9979           -0.5282136             -14.3734
        80        1.9977           -0.5264244             -14.3247
        81        1.9975           -0.5251543             -14.2902
        82        1.9973           -0.5239201             -14.2566
        83        1.9956           -0.5162283             -14.0473
        84        1.9892           -0.5020774             -13.6622
        85        1.9820           -0.4938880             -13.4394
        86        1.9705           -0.4860073             -13.2249
        87        1.9211           -0.4700268             -12.7901
        88        1.8722           -0.4619840             -12.5712
        89        1.8256           -0.4566609             -12.4264
        90        1.7279           -0.4487460             -12.2110 (HOMO)
        91        0.6631           -0.4083755             -11.1125 (LUMO)
        92        0.0666           -0.3661316              -9.9629
        93        0.0032           -0.3173665              -8.6360
        94        0.0024           -0.3131800              -8.5221
        95        0.0019           -0.3092753              -8.4158
        96        0.0017           -0.3077895              -8.3754
        97        0.0004           -0.2849495              -7.7539
        98        0.0001           -0.2576719              -7.0116
        99        0.0000           -0.1882184              -5.1217
       100        0.0000           -0.1839225              -5.0048
       101                         -0.0911883              -2.4814
       ...                                ...                  ...
       171                          0.5803819              15.7930
      -------------------------------------------------------------
                  HL-Gap            0.0403705 Eh            1.0985 eV

     #   Z          covCN         q      C6AA      α(0)
     1   7 N        1.778    -0.289    28.312     7.880
     2   6 C        2.829     0.090    25.989     8.354
     3   6 C        2.951     0.012    27.756     8.641
     4   6 C        2.907    -0.043    29.056     8.839
     5   6 C        2.913    -0.068    29.692     8.935
     6   6 C        2.866     0.134    25.073     8.208
     7   8 O        1.706    -0.226    17.743     5.687
     8   6 C        3.644     0.026    20.475     6.504
     9   6 C        2.863     0.131    25.120     8.215
    10   8 O        1.706    -0.227    17.771     5.692
    11   6 C        3.644     0.026    20.481     6.505
    12   6 C        2.919    -0.067    29.665     8.931
    13   6 C        2.915    -0.038    28.947     8.823
    14   6 C        2.853    -0.092    30.294     9.021
    15   6 C        2.837    -0.123    31.120     9.142
    16   6 C        2.842     0.021    27.538     8.600
    17   7 N        2.732    -0.056    22.333     7.019
    18   6 C        3.754    -0.005    20.728     6.492
    19   6 C        3.807    -0.070    21.836     6.652
    20   6 C        2.968     0.007    27.867     8.659
    21   6 C        2.922    -0.046    29.134     8.851
    22   6 C        2.913    -0.066    29.643     8.928
    23   6 C        2.865     0.134    25.064     8.206
    24   8 O        1.706    -0.218    17.625     5.668
    25   6 C        3.645     0.024    20.498     6.507
    26   6 C        2.862     0.135    25.057     8.205
    27   8 O        1.706    -0.221    17.667     5.675
    28   6 C        3.645     0.026    20.471     6.503
    29   6 C        2.919    -0.076    29.908     8.968
    30   6 C        3.699    -0.052    21.678     6.659
    31   6 C        3.857    -0.004    20.620     6.458
    32   6 C        3.124    -0.079    29.767     8.934
    33   6 C        3.759    -0.108    22.606     6.778
    34   1 H        0.926     0.057     2.237     2.339
    35   1 H        0.924     0.056     2.251     2.346
    36   1 H        0.925     0.083     1.950     2.184
    37   1 H        0.924     0.050     2.320     2.382
    38   1 H        0.924     0.056     2.242     2.341
    39   1 H        0.925     0.082     1.960     2.190
    40   1 H        0.924     0.049     2.327     2.385
    41   1 H        0.926     0.060     2.200     2.319
    42   1 H        0.926     0.057     2.234     2.337
    43   1 H        0.926     0.054     2.268     2.355
    44   1 H        0.926     0.057     2.238     2.339
    45   1 H        0.926     0.044     2.391     2.418
    46   1 H        0.926     0.050     2.318     2.381
    47   1 H        0.923     0.011     2.872     2.650
    48   1 H        0.925     0.047     2.363     2.404
    49   1 H        0.924     0.051     2.302     2.373
    50   1 H        0.924     0.058     2.228     2.334
    51   1 H        0.924     0.056     2.245     2.343
    52   1 H        0.924     0.051     2.311     2.377
    53   1 H        0.926     0.049     2.335     2.389
    54   1 H        0.926     0.059     2.209     2.324
    55   1 H        0.924     0.056     2.246     2.344
    56   1 H        0.924     0.057     2.230     2.335
    57   1 H        0.925     0.083     1.948     2.182
    58   1 H        0.925     0.082     1.955     2.186
    59   1 H        0.924     0.052     2.296     2.370
    60   1 H        0.924     0.055     2.260     2.351
    61   1 H        0.926     0.052     2.296     2.369
    62   1 H        0.924     0.058     2.220     2.330
    63   1 H        0.925     0.061     2.182     2.310
    64   1 H        0.925     0.058     2.220     2.330
    65   1 H        0.924     0.052     2.296     2.370
    66   1 H        0.926     0.094     1.839     2.121
    67   1 H        1.192     0.113     1.658     2.011
    68   1 H        0.926     0.068     2.102     2.267
    69   1 H        0.925     0.068     2.103     2.268
    70   1 H        0.925     0.056     2.245     2.343
    71   1 H        0.925     0.056     2.245     2.343
    72   1 H        0.860     0.148     1.413     1.862

Wiberg/Mayer (AO) data.
largest (>0.10) Wiberg bond orders for each atom

     #   Z sym  total        # sym  WBO       # sym  WBO       # sym  WBO
 ---------------------------------------------------------------------------
     1   7 N    2.968 --     2 C    1.855    72 H    0.948    14 C    0.108
     2   6 C    3.929 --     1 N    1.855     3 C    1.093    47 H    0.935
     3   6 C    3.954 --    14 C    1.815     2 C    1.093    31 C    0.982
     4   6 C    3.737 --    13 C    1.445     5 C    1.410    67 H    0.677
     5   6 C    3.955 --     4 C    1.410     6 C    1.376    34 H    0.960
     6   6 C    3.894 --     5 C    1.376     9 C    1.226     7 O    1.103
     7   8 O    2.254 --     6 C    1.103     8 C    0.976
     8   6 C    3.929 --    36 H    0.976     7 O    0.976    37 H    0.973
                            35 H    0.973
     9   6 C    3.905 --    12 C    1.394     6 C    1.226    10 O    1.102
    10   8 O    2.253 --     9 C    1.102    11 C    0.977
    11   6 C    3.930 --    10 O    0.977    39 H    0.977    38 H    0.973
                            40 H    0.973
    12   6 C    3.950 --     9 C    1.394    13 C    1.391    41 H    0.961
    13   6 C    3.948 --     4 C    1.445    12 C    1.391    42 H    0.966
    14   6 C    3.930 --     3 C    1.815    43 H    0.975    44 H    0.961
                             1 N    0.108
    15   6 C    3.822 --    16 C    1.738    46 H    0.976    45 H    0.974
    16   6 C    3.943 --    15 C    1.738    17 N    1.193    48 H    0.958
    17   7 N    3.350 --    16 C    1.193    30 C    1.008    18 C    1.004
    18   6 C    3.964 --    17 N    1.004    49 H    0.969    50 H    0.967
                            19 C    0.962
    19   6 C    3.973 --    20 C    1.015    52 H    0.974    51 H    0.966
                            18 C    0.962
    20   6 C    3.931 --    21 C    1.390    29 C    1.387    19 C    1.015
    21   6 C    3.933 --    22 C    1.428    20 C    1.390    53 H    0.967
    22   6 C    3.953 --    21 C    1.428    23 C    1.374    54 H    0.963
    23   6 C    3.877 --    22 C    1.374    26 C    1.215    24 O    1.113
    24   8 O    2.247 --    23 C    1.113    25 C    0.976
    25   6 C    3.926 --    57 H    0.977    24 O    0.976    56 H    0.972
                            55 H    0.972
    26   6 C    3.884 --    29 C    1.387    23 C    1.215    27 O    1.108
    27   8 O    2.249 --    26 C    1.108    28 C    0.977
    28   6 C    3.929 --    27 O    0.977    58 H    0.977    60 H    0.972
                            59 H    0.972
    29   6 C    3.953 --    20 C    1.387    26 C    1.387    61 H    0.961
    30   6 C    3.969 --    17 N    1.008    64 H    0.980    63 H    0.974
                            62 H    0.967
    31   6 C    3.980 --    32 C    1.049     3 C    0.982    65 H    0.961
                            33 C    0.940
    32   6 C    3.403 --    31 C    1.049    68 H    0.975    66 H    0.963
                            67 H    0.286
    33   6 C    3.938 --    71 H    0.983    69 H    0.981    70 H    0.977
                            31 C    0.940
    34   1 H    0.992 --     5 C    0.960
    35   1 H    0.993 --     8 C    0.973
    36   1 H    0.992 --     8 C    0.976
    37   1 H    0.993 --     8 C    0.973
    38   1 H    0.993 --    11 C    0.973
    39   1 H    0.993 --    11 C    0.977
    40   1 H    0.993 --    11 C    0.973
    41   1 H    0.991 --    12 C    0.961
    42   1 H    0.993 --    13 C    0.966
    43   1 H    0.995 --    14 C    0.975
    44   1 H    0.994 --    14 C    0.961
    45   1 H    0.998 --    15 C    0.974
    46   1 H    0.997 --    15 C    0.976
    47   1 H    0.981 --     2 C    0.935
    48   1 H    0.997 --    16 C    0.958
    49   1 H    0.994 --    18 C    0.969
    50   1 H    0.994 --    18 C    0.967
    51   1 H    0.993 --    19 C    0.966
    52   1 H    0.996 --    19 C    0.974
    53   1 H    0.997 --    21 C    0.967
    54   1 H    0.995 --    22 C    0.963
    55   1 H    0.990 --    25 C    0.972
    56   1 H    0.990 --    25 C    0.972
    57   1 H    0.992 --    25 C    0.977
    58   1 H    0.992 --    28 C    0.977
    59   1 H    0.991 --    28 C    0.972
    60   1 H    0.991 --    28 C    0.972
    61   1 H    0.996 --    29 C    0.961
    62   1 H    0.983 --    30 C    0.967
    63   1 H    0.991 --    30 C    0.974
    64   1 H    0.996 --    30 C    0.980
    65   1 H    0.993 --    31 C    0.961
    66   1 H    0.988 --    32 C    0.963
    67   1 H    0.985 --     4 C    0.677    32 C    0.286
    68   1 H    0.991 --    32 C    0.975
    69   1 H    0.994 --    33 C    0.981
    70   1 H    0.988 --    33 C    0.977
    71   1 H    0.995 --    33 C    0.983
    72   1 H    0.971 --     1 N    0.948
 ---------------------------------------------------------------------------

molecular dipole:
                 x           y           z       tot (Debye)
 q only:       -0.626       0.326       0.299
   full:       -0.369       0.284       0.056       1.191

           -------------------------------------------------
          | TOTAL ENERGY              -99.287880829731 Eh   |
          | GRADIENT NORM               0.002557705026 Eh/α |
          | HOMO-LUMO GAP               1.098538028402 eV   |
           -------------------------------------------------

 * finished run on 2024/04/06 at 11:12:14.709
