   * xtb version 6.6.1 (8d0f1dd) compiled by 'conda@1efc2f54142f' on 2023-08-01
          program call               : xtb xtbopt.xyz --opt crude --input .xc2 --gfn2

   ID    Z sym.   atoms
    1    6 C      1, 3, 5-7, 10, 11, 14
    2    7 N      2, 4, 9, 13
    3    8 O      8, 12
    4    1 H      15-25

          :  Hamiltonian                  GFN2-xTB          :
 * total energy  :   -42.1367851 Eh     change       -0.4326495E-10 Eh
   *** GEOMETRY OPTIMIZATION CONVERGED AFTER 1 ITERATIONS ***

 final structure:
================
25
 xtb: 6.6.1 (8d0f1dd)
C            3.45071174908465        2.01419742061939        0.01674639441788
N            2.76342113651436        0.74890359708613        0.01447146627986
C            3.31613018823606       -0.45732658658177        0.02154670044931
N            2.36549878364177       -1.40679568884215        0.01425479092532
C            1.14092204751060       -0.78844516239938        0.00224324590785
C            1.40618076951210        0.58825290767777        0.00199954426203
C            0.30988179903217        1.53312404518435       -0.00254178329646
O            0.42667314778588        2.74302054901635       -0.00014542522027
N           -0.91274507235826        0.88614350782025       -0.00843531872627
C           -2.10962587386026        1.70158848524131       -0.00789322911319
C           -1.12527191622481       -0.52085440185731       -0.01333893848014
O           -2.26015612149080       -0.94138508741667       -0.02206296426343
N           -0.04424066244140       -1.34045846283197       -0.00626986561820
C           -4.01974705364378       -4.15265013649282       -0.01445746318457
H            4.07537300381281        2.10455232781339        0.90566086461271
H            4.08221096924321        2.10383489581392       -0.86740512544293
H            2.70856292797717        2.81266778627248        0.01331974595206
H            4.37267966711384       -0.64742301642062        0.03217012754948
H           -1.81076741129017        2.74810650670368        0.01224758420181
H           -2.70154942430695        1.49339798868716       -0.90056919851969
H           -2.71940932758514        1.46292179027872        0.86472303465287
H           -4.25678679802544       -4.63751360369526        0.91608279227074
H           -4.25238211862840       -4.63964362074934       -0.94128964261503
H           -3.55365271826067       -3.18278765200056       -0.01799093017945
H            2.50851982272700       -2.40718984731225        0.01810521106235

          :  Hamiltonian                  GFN2-xTB          :
         :: total energy             -42.136785076055 Eh    ::
         :: gradient norm              0.003146853747 Eh/a0 ::
         :: HOMO-LUMO gap              1.110735418140 eV    ::
         :: SCC energy               -42.663409281386 Eh    ::
         :: -> dispersion             -0.020246552419 Eh    ::
         :: repulsion energy           0.526622173196 Eh    ::

    * Orbital Energies and Occupations

         #    Occupation            Energy/Eh            Energy/eV
      -------------------------------------------------------------
         1        2.0000           -0.8998791             -24.4870
       ...           ...                  ...                  ...
        25        1.9998           -0.6514024             -17.7256
        26        1.9993           -0.6317562             -17.1910
        27        1.9993           -0.6308472             -17.1662
        28        1.9981           -0.6157901             -16.7565
        29        1.9980           -0.6146746             -16.7261
        30        1.9978           -0.6127748             -16.6745
        31        1.9970           -0.6080050             -16.5447
        32        1.9940           -0.5971757             -16.2500
        33        1.9642           -0.5686496             -15.4737
        34        1.9071           -0.5530876             -15.0503
        35        1.8954           -0.5511164             -14.9966
        36        1.8345           -0.5433293             -14.7847
        37        1.7363           -0.5350801             -14.5603 (HOMO)
        38        0.6666           -0.4942613             -13.4495 (LUMO)
        39        0.0119           -0.4242061             -11.5432
        40        0.0009           -0.3839221             -10.4471
        41        0.0001           -0.3513285              -9.5601
        42        0.0000           -0.2645447              -7.1986
        43                         -0.1818248              -4.9477
        44                         -0.1621043              -4.4111
        45                         -0.1203432              -3.2747
        46                         -0.0708832              -1.9288
        47                         -0.0244711              -0.6659
        48                         -0.0204801              -0.5573
       ...                                ...                  ...
        67                          0.5438560              14.7991
      -------------------------------------------------------------
                  HL-Gap            0.0408188 Eh            1.1107 eV

     #   Z          covCN         q      C6AA      α(0)
     1   6 C        3.692    -0.092    22.456     6.781
     2   7 N        2.827     0.086    19.743     6.599
     3   6 C        3.063     0.064    26.502     8.442
     4   7 N        2.794    -0.054    22.283     7.011
     5   6 C        3.067     0.149    24.712     8.151
     6   6 C        3.131    -0.021    28.320     8.712
     7   6 C        2.767     0.276    22.324     7.738
     8   8 O        0.858    -0.367    21.032     6.149
     9   7 N        2.746    -0.086    22.910     7.109
    10   6 C        3.704    -0.055    21.713     6.662
    11   6 C        2.755     0.339    21.248     7.548
    12   8 O        0.860    -0.353    20.763     6.109
    13   7 N        1.832    -0.253    27.436     7.762
    14   6 C        2.778    -0.072    29.777     8.938
    15   1 H        0.925     0.107     1.723     2.053
    16   1 H        0.925     0.107     1.722     2.052
    17   1 H        0.925     0.136     1.493     1.911
    18   1 H        0.926     0.125     1.573     1.961
    19   1 H        0.925     0.112     1.677     2.025
    20   1 H        0.924     0.103     1.758     2.074
    21   1 H        0.924     0.103     1.758     2.074
    22   1 H        0.926     0.131     1.529     1.934
    23   1 H        0.926     0.131     1.530     1.934
    24   1 H        0.926     0.147     1.414     1.859
    25   1 H        0.860     0.237     0.934     1.514

Wiberg/Mayer (AO) data.
largest (>0.10) Wiberg bond orders for each atom

     #   Z sym  total        # sym  WBO       # sym  WBO       # sym  WBO
 ---------------------------------------------------------------------------
     1   6 C    3.911 --     2 N    0.983    17 H    0.961    15 H    0.959
                            16 H    0.959
     2   7 N    3.710 --     3 C    1.393     6 C    1.182     1 C    0.983
     3   6 C    3.877 --     2 N    1.393     4 N    1.316    18 H    0.951
     4   7 N    3.595 --     3 C    1.316     5 C    1.152    25 H    0.916
     5   6 C    3.948 --    13 N    1.379     6 C    1.259     4 N    1.152
     6   6 C    3.807 --     5 C    1.259     2 N    1.182     7 C    1.076
     7   6 C    3.954 --     8 O    1.638     9 N    1.143     6 C    1.076
     8   8 O    1.942 --     7 C    1.638     9 N    0.140
     9   7 N    3.471 --     7 C    1.143    11 C    1.030    10 C    0.988
                             8 O    0.140
    10   6 C    3.889 --     9 N    0.988    19 H    0.961    21 H    0.950
                            20 H    0.949
    11   6 C    3.943 --    12 O    1.649    13 N    1.179     9 N    1.030
    12   8 O    1.912 --    11 C    1.649
    13   7 N    2.832 --     5 C    1.379    11 C    1.179
    14   6 C    2.935 --    23 H    0.980    22 H    0.980    24 H    0.973
    15   1 H    0.986 --     1 C    0.959
    16   1 H    0.986 --     1 C    0.959
    17   1 H    0.980 --     1 C    0.961
    18   1 H    0.983 --     3 C    0.951
    19   1 H    0.979 --    10 C    0.961
    20   1 H    0.968 --    10 C    0.949
    21   1 H    0.968 --    10 C    0.950
    22   1 H    0.982 --    14 C    0.980
    23   1 H    0.982 --    14 C    0.980
    24   1 H    0.977 --    14 C    0.973
    25   1 H    0.942 --     4 N    0.916
 ---------------------------------------------------------------------------

molecular dipole:
                 x           y           z       tot (Debye)
 q only:        1.839      -1.982       0.024
   full:        2.273      -2.081       0.026       7.833

           -------------------------------------------------
          | TOTAL ENERGY              -42.136785076055 Eh   |
          | GRADIENT NORM               0.003146853747 Eh/α |
          | HOMO-LUMO GAP               1.110735418140 eV   |
           -------------------------------------------------

 * finished run on 2024/06/05 at 19:58:05.234
