   * xtb version 6.6.1 (8d0f1dd) compiled by 'conda@1efc2f54142f' on 2023-08-01
          program call               : xtb struc.xyz --opt loose --input .xc1 --gfn2

   ID    Z sym.   atoms
    1    7 N      1, 17
    2    6 C      2-6, 8, 9, 11-16, 18-23, 25, 26, 28-33
    3    8 O      7, 10, 24, 27
    4    1 H      34-72
constraining bond 17 64 to    2.6866700 Å, actual value:    2.0755639 Å

          :  Hamiltonian                  GFN2-xTB          :
 * total energy  :   -99.4708117 Eh     change       -0.4035485E-08 Eh
 * total energy  :   -99.5819046 Eh     change       -0.1110929E+00 Eh
 * total energy  :   -99.6925558 Eh     change       -0.1106512E+00 Eh
 * total energy  :   -98.6138457 Eh     change        0.1078710E+01 Eh
 * total energy  :   -99.7128575 Eh     change       -0.1099012E+01 Eh
 * total energy  :   -99.7250733 Eh     change       -0.1221571E-01 Eh
 * total energy  :   -99.7388214 Eh     change       -0.1374812E-01 Eh
 * total energy  :   -99.7474009 Eh     change       -0.8579484E-02 Eh
 * total energy  :   -99.7553471 Eh     change       -0.7946263E-02 Eh
 * total energy  :   -99.7667719 Eh     change       -0.1142479E-01 Eh
 * total energy  :   -99.8705778 Eh     change       -0.1010427E-03 Eh
 * total energy  :   -99.8706689 Eh     change       -0.9111915E-04 Eh
 * total energy  :   -99.8707502 Eh     change       -0.8129474E-04 Eh
 * total energy  :   -99.8708243 Eh     change       -0.7411681E-04 Eh
 * total energy  :   -99.8708979 Eh     change       -0.7357498E-04 Eh
 * total energy  :   -99.8709794 Eh     change       -0.8147972E-04 Eh
 * total energy  :   -99.8710674 Eh     change       -0.8804390E-04 Eh
 * total energy  :   -99.8711649 Eh     change       -0.9755217E-04 Eh
 * total energy  :   -99.8712147 Eh     change       -0.4973164E-04 Eh
   *** GEOMETRY OPTIMIZATION CONVERGED AFTER 44 ITERATIONS ***

 final structure:
================
72
 xtb: 6.6.1 (8d0f1dd)
N           -1.72364689459229        3.04797942354502        2.09569128356789
C           -1.91623598715258        2.22929465475333        1.20972256804753
C           -2.98756653141065        1.96018834636741        0.24849804447901
C           -3.41893219201993        0.50444290465305        0.35046253604221
C           -4.37807553354919        0.00079717403893       -0.52952606002887
C           -4.80186904345983       -1.31452886700494       -0.45451175947993
O           -5.72055354786333       -1.88406796380075       -1.26041747453435
C           -6.34553666398997       -1.10432881083753       -2.25264902503268
C           -4.25191108401847       -2.17159067562070        0.53715684773769
O           -4.73637109561443       -3.42920186689602        0.54388298914223
C           -4.30433296365206       -4.32570757076425        1.54043914532538
C           -3.28866411537039       -1.66795363495557        1.39575437576229
C           -2.87637670111044       -0.34430286395923        1.29940815661450
C           -2.41583677608809        2.23718461563880       -1.16872489425402
C           -1.47050832407499        1.14568980146261       -1.67497783372118
C           -0.15244326896810        1.10819433199338       -0.89986377590490
N            0.24650320144093       -0.28467222219810       -0.47861762308676
C            1.68158410335108       -0.26661243641892       -0.01643716927998
C            2.67903490366347       -0.28661587266831       -1.17361882951338
C            4.09370002450935       -0.09150722620643       -0.69159674236471
C            4.71315284416483        1.14078132309224       -0.81111412879905
C            6.03811286368806        1.31166544691403       -0.43792925328507
C            6.76973798662116        0.24938775293865        0.07008915701419
O            8.06868831527065        0.28738771863886        0.42221114327022
C            8.80764108990786        1.46521346152192        0.18895347975089
C            6.13092710313766       -1.01114298946226        0.23383502582956
O            6.91037990867973       -1.98037576778021        0.75456566029731
C            6.38683076756674       -3.27753140813449        0.91051208599189
C            4.80857524784302       -1.15990457847118       -0.15313586934397
C            0.03755973116069       -1.33088776975960       -1.47193804008166
C           -4.23399927125435        2.87811627680532        0.52320092720606
C           -4.84084595515177        2.58045085077558        1.89008313220637
C           -3.92465831402421        4.36452693417445        0.39771047474483
H           -4.80261150403292        0.64868285729859       -1.27824297400687
H           -6.89817356564273       -0.26628106340409       -1.81680882897793
H           -7.04366639511209       -1.77302201960745       -2.75213167482917
H           -5.62228199489904       -0.72799565925151       -2.98347257757054
H           -4.52922653911830       -3.94899983141437        2.54285772911737
H           -4.86133994909687       -5.24433813407403        1.36735268603542
H           -3.23255518808569       -4.53236894903226        1.45800260126547
H           -2.85718078069826       -2.29570644032751        2.15842468090276
H           -2.13886112336338        0.02984528013716        1.99718761662531
H           -3.25137359476677        2.31590872194140       -1.86326493264978
H           -1.89524401047474        3.19552700810071       -1.16730710108665
H           -1.96881283450609        0.17780146842467       -1.59871333061425
H           -1.27522240327331        1.32416543375738       -2.73249572972030
H           -0.27362960609011        1.69305352203870        0.02537426875495
H            0.65478157730604        1.53389941596232       -1.49228066032666
H            1.83294737582441       -1.15483744012020        0.59926571364055
H            1.83604483093945        0.62026791703074        0.60349202553488
H            2.44697488365654        0.50669537646365       -1.88423973426053
H            2.59409404521176       -1.24254465137931       -1.69107542782692
H            4.17361588303269        1.98141620529592       -1.22097887761044
H            6.49638299220310        2.27916076169588       -0.56101385841093
H            8.44730078933494        2.29390806047612        0.80579017817469
H            8.77650086819053        1.75345320402621       -0.86602678628655
H            9.83215069008816        1.22742378348867        0.46774516356927
H            7.19408068812254       -3.86812048368457        1.33952008441144
H            5.53076052576377       -3.28644028324395        1.59273803747527
H            6.09388525519430       -3.70963036608132       -0.05139777254248
H            4.32510311044488       -2.12002919928794       -0.06506898864279
H            0.27728296969121       -1.06082966419810       -2.48286369508457
H           -0.87098726376725       -1.88842547442206       -1.32755374063269
H           -0.21907883269761       -0.48676875005950        0.15812334579812
H           -4.96874374001635        2.61339697615794       -0.24331893500423
H           -4.15069366101638        2.85370605318640        2.68390990128233
H           -5.08963256451837        1.52646825398108        1.98937022747931
H           -5.75103697705594        3.16008482653347        2.01909985954006
H           -3.15837766654339        4.66060415239094        1.10945464039250
H           -3.59989558339719        4.62899282226393       -0.60486490396787
H           -4.82361951291409        4.93445447164473        0.61802928640521
H           -0.90720942455810        3.13119286741613        2.68152877194160

          :  Hamiltonian                  GFN2-xTB          :
         :: total energy             -99.871214680054 Eh    ::
         :: gradient norm              0.002353500538 Eh/a0 ::
         :: HOMO-LUMO gap              0.698222440470 eV    ::
         :: SCC energy              -100.693012412882 Eh    ::
         :: -> dispersion             -0.075232223022 Eh    ::
         :: repulsion energy           1.446476125076 Eh    ::

    * Orbital Energies and Occupations

         #    Occupation            Energy/Eh            Energy/eV
      -------------------------------------------------------------
         1        2.0000           -0.8173034             -22.2400
       ...           ...                  ...                  ...
        78        1.9992           -0.5352468             -14.5648
        79        1.9990           -0.5305482             -14.4370
        80        1.9988           -0.5282638             -14.3748
        81        1.9987           -0.5261133             -14.3163
        82        1.9986           -0.5255421             -14.3007
        83        1.9984           -0.5234587             -14.2440
        84        1.9980           -0.5197072             -14.1420
        85        1.9975           -0.5163737             -14.0512
        86        1.9886           -0.4922523             -13.3949
        87        1.9813           -0.4843252             -13.1792
        88        1.9176           -0.4603290             -12.5262
        89        1.8673           -0.4523543             -12.3092
        90        1.4826           -0.4271564             -11.6235 (HOMO)
        91        0.7235           -0.4014971             -10.9253 (LUMO)
        92        0.0389           -0.3483990              -9.4804
        93        0.0058           -0.3180177              -8.6537
        94        0.0050           -0.3156464              -8.5892
        95        0.0033           -0.3092267              -8.4145
        96        0.0028           -0.3063670              -8.3367
        97        0.0000           -0.1922456              -5.2313
        98        0.0000           -0.1886736              -5.1341
        99        0.0000           -0.1814193              -4.9367
       100                         -0.1192430              -3.2448
       101                         -0.0763940              -2.0788
       ...                                ...                  ...
       171                          0.6014746              16.3670
      -------------------------------------------------------------
                  HL-Gap            0.0256592 Eh            0.6982 eV

     #   Z          covCN         q      C6AA      α(0)
     1   7 N        1.772    -0.190    25.911     7.538
     2   6 C        1.913     0.036    30.183     8.873
     3   6 C        3.905     0.025    20.098     6.372
     4   6 C        2.977    -0.002    28.062     8.689
     5   6 C        2.920    -0.081    30.017     8.984
     6   6 C        2.863     0.131    25.138     8.218
     7   8 O        1.706    -0.231    17.826     5.701
     8   6 C        3.645     0.028    20.435     6.497
     9   6 C        2.864     0.130    25.157     8.222
    10   8 O        1.706    -0.230    17.819     5.699
    11   6 C        3.645     0.028    20.436     6.497
    12   6 C        2.914    -0.075    29.882     8.964
    13   6 C        2.921    -0.058    29.450     8.899
    14   6 C        3.813    -0.064    21.722     6.634
    15   6 C        3.800    -0.071    21.858     6.657
    16   6 C        3.738    -0.035    21.277     6.582
    17   7 N        3.576     0.036    20.608     6.742
    18   6 C        3.747    -0.024    21.070     6.547
    19   6 C        3.807    -0.074    21.918     6.664
    20   6 C        2.967    -0.003    28.098     8.695
    21   6 C        2.922    -0.051    29.260     8.871
    22   6 C        2.914    -0.069    29.715     8.939
    23   6 C        2.865     0.133    25.098     8.212
    24   8 O        1.706    -0.225    17.729     5.685
    25   6 C        3.645     0.025    20.479     6.504
    26   6 C        2.863     0.132    25.101     8.212
    27   8 O        1.706    -0.227    17.761     5.690
    28   6 C        3.645     0.027    20.457     6.501
    29   6 C        2.919    -0.081    30.027     8.986
    30   6 C        2.773    -0.186    32.864     9.389
    31   6 C        3.852    -0.007    20.675     6.467
    32   6 C        3.755    -0.113    22.725     6.797
    33   6 C        3.755    -0.118    22.809     6.810
    34   1 H        0.926     0.050     2.322     2.383
    35   1 H        0.924     0.051     2.305     2.374
    36   1 H        0.925     0.081     1.969     2.195
    37   1 H        0.924     0.047     2.352     2.398
    38   1 H        0.924     0.052     2.292     2.368
    39   1 H        0.925     0.081     1.972     2.196
    40   1 H        0.924     0.048     2.346     2.395
    41   1 H        0.926     0.049     2.331     2.388
    42   1 H        0.925     0.026     2.640     2.541
    43   1 H        0.925     0.063     2.166     2.302
    44   1 H        0.924     0.053     2.287     2.365
    45   1 H        0.924     0.065     2.138     2.286
    46   1 H        0.925     0.063     2.168     2.302
    47   1 H        0.923     0.068     2.105     2.269
    48   1 H        0.925     0.080     1.982     2.202
    49   1 H        0.924     0.078     1.996     2.209
    50   1 H        0.924     0.063     2.160     2.298
    51   1 H        0.925     0.058     2.226     2.333
    52   1 H        0.924     0.079     1.991     2.207
    53   1 H        0.926     0.041     2.429     2.437
    54   1 H        0.926     0.057     2.237     2.339
    55   1 H        0.924     0.053     2.279     2.361
    56   1 H        0.924     0.054     2.268     2.355
    57   1 H        0.925     0.081     1.966     2.193
    58   1 H        0.925     0.081     1.969     2.195
    59   1 H        0.924     0.048     2.348     2.396
    60   1 H        0.924     0.053     2.285     2.364
    61   1 H        0.926     0.049     2.334     2.389
    62   1 H        0.926     0.035     2.515     2.480
    63   1 H        0.926     0.020     2.730     2.584
    64   1 H        0.863     0.222     1.001     1.567
    65   1 H        0.924     0.048     2.340     2.392
    66   1 H        0.925     0.051     2.306     2.375
    67   1 H        0.925     0.039     2.459     2.452
    68   1 H        0.925     0.054     2.270     2.356
    69   1 H        0.925     0.054     2.270     2.356
    70   1 H        0.925     0.040     2.455     2.450
    71   1 H        0.925     0.057     2.231     2.336
    72   1 H        0.860     0.191     1.153     1.682

Wiberg/Mayer (AO) data.
largest (>0.10) Wiberg bond orders for each atom

     #   Z sym  total        # sym  WBO       # sym  WBO       # sym  WBO
 ---------------------------------------------------------------------------
     1   7 N    3.125 --     2 C    2.088    72 H    0.916
     2   6 C    3.258 --     1 N    2.088     3 C    1.032
     3   6 C    3.951 --     2 C    1.032     4 C    0.964    14 C    0.943
                            31 C    0.897
     4   6 C    3.955 --    13 C    1.425     5 C    1.365     3 C    0.964
     5   6 C    3.967 --     6 C    1.405     4 C    1.365    34 H    0.958
     6   6 C    3.916 --     5 C    1.405     9 C    1.224     7 O    1.100
     7   8 O    2.264 --     6 C    1.100     8 C    0.978
     8   6 C    3.933 --     7 O    0.978    36 H    0.977    37 H    0.974
                            35 H    0.974
     9   6 C    3.914 --    12 C    1.397     6 C    1.224    10 O    1.101
    10   8 O    2.262 --     9 C    1.101    11 C    0.978
    11   6 C    3.933 --    10 O    0.978    39 H    0.977    38 H    0.974
                            40 H    0.974
    12   6 C    3.967 --    13 C    1.398     9 C    1.397    41 H    0.964
    13   6 C    3.960 --     4 C    1.425    12 C    1.398    42 H    0.959
    14   6 C    3.985 --    15 C    1.006    44 H    0.973    43 H    0.967
                             3 C    0.943
    15   6 C    3.985 --    14 C    1.006    16 C    1.006    46 H    0.973
                            45 H    0.960
    16   6 C    3.902 --    15 C    1.006    48 H    0.970    47 H    0.937
                            17 N    0.916
    17   7 N    3.748 --    30 C    0.939    64 H    0.927    18 C    0.922
                            16 C    0.916
    18   6 C    3.924 --    19 C    0.999    49 H    0.972    50 H    0.971
                            17 N    0.922
    19   6 C    3.983 --    20 C    1.002    18 C    0.999    51 H    0.966
                            52 H    0.963
    20   6 C    3.950 --    21 C    1.419    29 C    1.377    19 C    1.002
    21   6 C    3.956 --    20 C    1.419    22 C    1.410    53 H    0.968
    22   6 C    3.962 --    21 C    1.410    23 C    1.389    54 H    0.963
    23   6 C    3.902 --    22 C    1.389    26 C    1.221    24 O    1.107
    24   8 O    2.256 --    23 C    1.107    25 C    0.976
    25   6 C    3.930 --    57 H    0.977    24 O    0.976    56 H    0.974
                            55 H    0.973
    26   6 C    3.904 --    29 C    1.399    23 C    1.221    27 O    1.102
    27   8 O    2.256 --    26 C    1.102    28 C    0.979
    28   6 C    3.933 --    27 O    0.979    58 H    0.977    59 H    0.974
                            60 H    0.973
    29   6 C    3.962 --    26 C    1.399    20 C    1.377    61 H    0.963
    30   6 C    2.964 --    62 H    0.982    63 H    0.978    17 N    0.939
    31   6 C    3.935 --    33 C    1.014    32 C    1.013    65 H    0.952
                             3 C    0.897
    32   6 C    3.990 --    31 C    1.013    67 H    0.983    66 H    0.981
                            68 H    0.980
    33   6 C    3.988 --    31 C    1.014    70 H    0.984    71 H    0.978
                            69 H    0.977
    34   1 H    0.996 --     5 C    0.958
    35   1 H    0.995 --     8 C    0.974
    36   1 H    0.993 --     8 C    0.977
    37   1 H    0.995 --     8 C    0.974
    38   1 H    0.994 --    11 C    0.974
    39   1 H    0.993 --    11 C    0.977
    40   1 H    0.995 --    11 C    0.974
    41   1 H    0.996 --    12 C    0.964
    42   1 H    0.999 --    13 C    0.959
    43   1 H    0.995 --    14 C    0.967
    44   1 H    0.996 --    14 C    0.973
    45   1 H    0.995 --    15 C    0.960
    46   1 H    0.995 --    15 C    0.973
    47   1 H    0.993 --    16 C    0.937
    48   1 H    0.993 --    16 C    0.970
    49   1 H    0.993 --    18 C    0.972
    50   1 H    0.995 --    18 C    0.971
    51   1 H    0.996 --    19 C    0.966
    52   1 H    0.992 --    19 C    0.963
    53   1 H    0.998 --    21 C    0.968
    54   1 H    0.995 --    22 C    0.963
    55   1 H    0.992 --    25 C    0.973
    56   1 H    0.993 --    25 C    0.974
    57   1 H    0.993 --    25 C    0.977
    58   1 H    0.993 --    28 C    0.977
    59   1 H    0.994 --    28 C    0.974
    60   1 H    0.993 --    28 C    0.973
    61   1 H    0.996 --    29 C    0.963
    62   1 H    0.993 --    30 C    0.982
    63   1 H    0.993 --    30 C    0.978
    64   1 H    0.950 --    17 N    0.927
    65   1 H    0.988 --    31 C    0.952
    66   1 H    0.996 --    32 C    0.981
    67   1 H    0.998 --    32 C    0.983
    68   1 H    0.994 --    32 C    0.980
    69   1 H    0.996 --    33 C    0.977
    70   1 H    0.998 --    33 C    0.984
    71   1 H    0.993 --    33 C    0.978
    72   1 H    0.939 --     1 N    0.916
 ---------------------------------------------------------------------------

molecular dipole:
                 x           y           z       tot (Debye)
 q only:        0.398       0.885       0.058
   full:        0.158       1.137       0.253       2.988

           -------------------------------------------------
          | TOTAL ENERGY              -99.871214680054 Eh   |
          | GRADIENT NORM               0.002353500538 Eh/α |
          | HOMO-LUMO GAP               0.698222440470 eV   |
           -------------------------------------------------

 * finished run on 2024/04/06 at 11:16:52.174
