   * xtb version 6.6.1 (8d0f1dd) compiled by 'conda@1efc2f54142f' on 2023-08-01
          program call               : xtb xtbopt.xyz --opt crude --input .xc2 --gfn2

   ID    Z sym.   atoms
    1    7 N      1, 17
    2    6 C      2-6, 8, 9, 11-16, 18-23, 25, 26, 28-33
    3    8 O      7, 10, 24, 27
    4    1 H      34-72
########################################################################
[WARNING] Please study the warnings concerning your input carefully
-1- readin_getIntValue: could not parse ''
########################################################################

          :  Hamiltonian                  GFN2-xTB          :
 * total energy  :   -99.2452337 Eh     change       -0.1713829E-10 Eh
 * total energy  :   -99.2973034 Eh     change       -0.5206977E-01 Eh
 * total energy  :   -99.2979485 Eh     change       -0.6450798E-03 Eh
 * total energy  :   -99.2981844 Eh     change       -0.2358664E-03 Eh
   *** GEOMETRY OPTIMIZATION CONVERGED AFTER 4 ITERATIONS ***

 final structure:
================
72
 xtb: 6.6.1 (8d0f1dd)
N           -1.71828494112676        3.05041329443167        2.09435040173608
C           -1.91355373074234        2.23370769758610        1.20704155655504
C           -2.98493119828181        1.96281837854430        0.24724547010152
C           -3.41212061978586        0.50578759997744        0.34881050259901
C           -4.37213037693792        0.00076817582424       -0.52932944018889
C           -4.79436724020959       -1.31507322695734       -0.45351090004782
O           -5.71447464977941       -1.88549982544869       -1.25695565376052
C           -6.34378903754664       -1.10668486954258       -2.24724463324515
C           -4.24174795916601       -2.17168946007337        0.53702796059933
O           -4.72625889385362       -3.42913892332229        0.54505022501167
C           -4.29507375196491       -4.32541091405885        1.54214954387077
C           -3.27668461637054       -1.66736619108944        1.39314975315941
C           -2.86518191044169       -0.34304382067925        1.29555170641112
C           -2.41657933318144        2.24234245315401       -1.17097917735112
C           -1.47275500443420        1.15173406293079       -1.68055736280460
C           -0.15197408413516        1.11301719938418       -0.91041170547278
N            0.25422627138578       -0.27720239382135       -0.50267595747081
C            1.67822251474504       -0.26623171523065       -0.02609410588260
C            2.68102782037650       -0.29041243903824       -1.18307379058472
C            4.09444837826365       -0.09294894264788       -0.70040828061277
C            4.71365646664328        1.13985089689500       -0.81666697136767
C            6.03738728324233        1.31056325004482       -0.43842113721370
C            6.76730194588327        0.24813851769093        0.07177052115769
O            8.06450230358417        0.28813337300028        0.43288522085404
C            8.80307936344788        1.46617516083608        0.20348097050318
C            6.12935586118641       -1.01301277450992        0.23056289736376
O            6.90665280638073       -1.98317436813332        0.75309625491981
C            6.38061232592588       -3.27930397617234        0.90893210714885
C            4.80843543931463       -1.16159853516949       -0.16126622288217
C            0.03455927407290       -1.32776189627409       -1.48224161597494
C           -4.23317887149750        2.87800741859251        0.52342143272466
C           -4.83799403798354        2.57976967493840        1.89110767895715
C           -3.92595463233486        4.36491843883130        0.39738100511887
H           -4.79930319881294        0.64790182070686       -1.27712780660325
H           -6.89568802764837       -0.26899715191267       -1.80979518937637
H           -7.04307605768704       -1.77634687271911       -2.74383579196101
H           -5.62356769978891       -0.73006445552615       -2.98087685216638
H           -4.51961131860087       -3.94800049788791        2.54436134357011
H           -4.85314734115587       -5.24348258407095        1.36950647289897
H           -3.22355951557891       -4.53350604238461        1.45978186312354
H           -2.84483974250819       -2.29476622391350        2.15605190920445
H           -2.13137060831065        0.03396757088179        1.99622622517459
H           -3.25417520095149        2.32269899653537       -1.86283660408758
H           -1.89540486820290        3.20035070681870       -1.16907918776815
H           -1.96851851846523        0.18287965083425       -1.60177445277180
H           -1.28140180253905        1.32911528543648       -2.73936940784217
H           -0.26361320770357        1.69964304236855        0.01355725171506
H            0.65197931243221        1.54167811703684       -1.50810164557984
H            1.83037879109696       -1.15332342433554        0.59056114047358
H            1.83675843571660        0.62173222400521        0.59153487254111
H            2.44832100754660        0.49828544998457       -1.89907301203947
H            2.59676978610612       -1.24965263883199       -1.69528601716856
H            4.17579284206191        1.98090633894110       -1.22772913585106
H            6.49595379656966        2.27833889450991       -0.55810284534218
H            8.43585375554634        2.29628592440241        0.81471253591880
H            8.78151264162838        1.75192918193359       -0.85255627420242
H            9.82567062820173        1.23129532870201        0.49270223505958
H            7.18784681638783       -3.87208708660286        1.33478716700070
H            5.52671022746979       -3.28680056187800        1.59386007965237
H            6.08351583945802       -3.70992366210851       -0.05228951664715
H            4.32485345230659       -2.12182643508292       -0.07586104953981
H            0.29224820602926       -1.06652145566581       -2.49266574334066
H           -0.87826602497665       -1.87953012300173       -1.35129463237480
H           -0.33219319470122       -0.52502681225160        0.29572575510092
H           -4.96860919476424        2.61230348089940       -0.24214007882743
H           -4.14861642993028        2.85757209975600        2.68404167437035
H           -5.08191327462887        1.52483660485563        1.99222074767475
H           -5.75078345112065        3.15536063166614        2.01981500239357
H           -3.16015177677558        4.66222007224703        1.10909165596390
H           -3.60120458066461        4.62920675203780       -0.60520283494051
H           -4.82556078180395        4.93403268526017        0.61712756250763
H           -0.89950728891638        3.13086337036076        2.67741917276933

          :  Hamiltonian                  GFN2-xTB          :
         :: total energy             -99.298184378864 Eh    ::
         :: gradient norm              0.004748446474 Eh/a0 ::
         :: HOMO-LUMO gap              0.687960547234 eV    ::
         :: SCC energy              -100.668592983697 Eh    ::
         :: -> dispersion             -0.075244517224 Eh    ::
         :: repulsion energy           1.369096419924 Eh    ::

    * Orbital Energies and Occupations

         #    Occupation            Energy/Eh            Energy/eV
      -------------------------------------------------------------
         1        2.0000           -0.8091444             -22.0179
       ...           ...                  ...                  ...
        78        1.9993           -0.5353331             -14.5672
        79        1.9990           -0.5301288             -14.4255
        80        1.9989           -0.5285844             -14.3835
        81        1.9987           -0.5262181             -14.3191
        82        1.9986           -0.5252638             -14.2932
        83        1.9984           -0.5235027             -14.2452
        84        1.9980           -0.5198689             -14.1464
        85        1.9975           -0.5161610             -14.0455
        86        1.9891           -0.4926664             -13.4061
        87        1.9814           -0.4840542             -13.1718
        88        1.9210           -0.4606962             -12.5362
        89        1.8682           -0.4521549             -12.3038
        90        1.4747           -0.4265181             -11.6061 (HOMO)
        91        0.7251           -0.4012360             -10.9182 (LUMO)
        92        0.0393           -0.3482532              -9.4765
        93        0.0061           -0.3184574              -8.6657
        94        0.0054           -0.3165344              -8.6133
        95        0.0034           -0.3090323              -8.4092
        96        0.0028           -0.3061327              -8.3303
        97        0.0000           -0.1933339              -5.2609
        98        0.0000           -0.1893003              -5.1511
        99        0.0000           -0.1809067              -4.9227
       100                         -0.1101794              -2.9981
       101                         -0.0765136              -2.0820
       ...                                ...                  ...
       171                          0.6018596              16.3774
      -------------------------------------------------------------
                  HL-Gap            0.0252821 Eh            0.6880 eV

     #   Z          covCN         q      C6AA      α(0)
     1   7 N        1.772    -0.191    25.917     7.538
     2   6 C        1.913     0.035    30.193     8.874
     3   6 C        3.905     0.025    20.100     6.373
     4   6 C        2.977    -0.002    28.061     8.689
     5   6 C        2.920    -0.081    30.017     8.984
     6   6 C        2.863     0.131    25.136     8.218
     7   8 O        1.706    -0.231    17.825     5.700
     8   6 C        3.644     0.028    20.436     6.498
     9   6 C        2.864     0.130    25.160     8.222
    10   8 O        1.706    -0.230    17.821     5.700
    11   6 C        3.645     0.028    20.436     6.497
    12   6 C        2.914    -0.076    29.894     8.966
    13   6 C        2.921    -0.059    29.478     8.904
    14   6 C        3.813    -0.064    21.722     6.634
    15   6 C        3.800    -0.071    21.859     6.657
    16   6 C        3.738    -0.033    21.241     6.576
    17   7 N        3.575     0.050    20.364     6.702
    18   6 C        3.747    -0.022    21.039     6.542
    19   6 C        3.807    -0.074    21.900     6.662
    20   6 C        2.967    -0.003    28.097     8.695
    21   6 C        2.922    -0.051    29.258     8.870
    22   6 C        2.914    -0.069    29.714     8.939
    23   6 C        2.865     0.132    25.102     8.213
    24   8 O        1.706    -0.225    17.734     5.686
    25   6 C        3.645     0.026    20.474     6.503
    26   6 C        2.863     0.132    25.100     8.212
    27   8 O        1.706    -0.227    17.764     5.690
    28   6 C        3.645     0.027    20.455     6.500
    29   6 C        2.919    -0.081    30.027     8.986
    30   6 C        2.772    -0.182    32.736     9.371
    31   6 C        3.852    -0.007    20.675     6.467
    32   6 C        3.755    -0.113    22.725     6.797
    33   6 C        3.755    -0.118    22.809     6.810
    34   1 H        0.926     0.050     2.319     2.381
    35   1 H        0.924     0.051     2.304     2.374
    36   1 H        0.925     0.081     1.969     2.194
    37   1 H        0.924     0.048     2.351     2.398
    38   1 H        0.924     0.052     2.293     2.368
    39   1 H        0.925     0.081     1.972     2.196
    40   1 H        0.924     0.048     2.347     2.396
    41   1 H        0.926     0.049     2.336     2.390
    42   1 H        0.925     0.026     2.648     2.545
    43   1 H        0.925     0.063     2.166     2.301
    44   1 H        0.924     0.053     2.286     2.364
    45   1 H        0.924     0.065     2.143     2.289
    46   1 H        0.924     0.062     2.171     2.304
    47   1 H        0.923     0.068     2.110     2.272
    48   1 H        0.925     0.079     1.987     2.204
    49   1 H        0.924     0.078     2.000     2.212
    50   1 H        0.924     0.063     2.165     2.301
    51   1 H        0.924     0.057     2.234     2.337
    52   1 H        0.924     0.078     2.003     2.213
    53   1 H        0.926     0.041     2.430     2.438
    54   1 H        0.926     0.057     2.237     2.339
    55   1 H        0.924     0.053     2.283     2.363
    56   1 H        0.924     0.054     2.271     2.357
    57   1 H        0.925     0.081     1.968     2.194
    58   1 H        0.925     0.081     1.970     2.195
    59   1 H        0.924     0.048     2.349     2.397
    60   1 H        0.924     0.053     2.288     2.365
    61   1 H        0.926     0.049     2.336     2.390
    62   1 H        0.926     0.036     2.509     2.477
    63   1 H        0.926     0.021     2.723     2.580
    64   1 H        0.860     0.207     1.070     1.621
    65   1 H        0.924     0.048     2.341     2.393
    66   1 H        0.925     0.051     2.306     2.375
    67   1 H        0.925     0.039     2.461     2.453
    68   1 H        0.925     0.054     2.270     2.356
    69   1 H        0.925     0.054     2.270     2.356
    70   1 H        0.925     0.040     2.455     2.450
    71   1 H        0.925     0.057     2.232     2.336
    72   1 H        0.860     0.191     1.154     1.683

Wiberg/Mayer (AO) data.
largest (>0.10) Wiberg bond orders for each atom

     #   Z sym  total        # sym  WBO       # sym  WBO       # sym  WBO
 ---------------------------------------------------------------------------
     1   7 N    3.124 --     2 C    2.088    72 H    0.915
     2   6 C    3.257 --     1 N    2.088     3 C    1.033
     3   6 C    3.951 --     2 C    1.033     4 C    0.964    14 C    0.943
                            31 C    0.897
     4   6 C    3.956 --    13 C    1.424     5 C    1.365     3 C    0.964
     5   6 C    3.967 --     6 C    1.404     4 C    1.365    34 H    0.958
     6   6 C    3.917 --     5 C    1.404     9 C    1.224     7 O    1.101
     7   8 O    2.265 --     6 C    1.101     8 C    0.978
     8   6 C    3.933 --     7 O    0.978    36 H    0.977    37 H    0.974
                            35 H    0.974
     9   6 C    3.915 --    12 C    1.398     6 C    1.224    10 O    1.101
    10   8 O    2.262 --     9 C    1.101    11 C    0.977
    11   6 C    3.933 --    10 O    0.977    39 H    0.977    38 H    0.974
                            40 H    0.974
    12   6 C    3.967 --     9 C    1.398    13 C    1.397    41 H    0.964
    13   6 C    3.960 --     4 C    1.424    12 C    1.397    42 H    0.958
    14   6 C    3.985 --    15 C    1.007    44 H    0.973    43 H    0.967
                             3 C    0.943
    15   6 C    3.985 --    14 C    1.007    16 C    1.006    46 H    0.973
                            45 H    0.960
    16   6 C    3.903 --    15 C    1.006    48 H    0.968    47 H    0.938
                            17 N    0.920
    17   7 N    3.761 --    30 C    0.946    18 C    0.928    64 H    0.923
                            16 C    0.920
    18   6 C    3.925 --    19 C    0.996    49 H    0.972    50 H    0.971
                            17 N    0.928
    19   6 C    3.983 --    20 C    1.002    18 C    0.996    51 H    0.966
                            52 H    0.963
    20   6 C    3.950 --    21 C    1.419    29 C    1.377    19 C    1.002
    21   6 C    3.956 --    20 C    1.419    22 C    1.410    53 H    0.968
    22   6 C    3.962 --    21 C    1.410    23 C    1.390    54 H    0.963
    23   6 C    3.902 --    22 C    1.390    26 C    1.222    24 O    1.106
    24   8 O    2.255 --    23 C    1.106    25 C    0.977
    25   6 C    3.930 --    57 H    0.977    24 O    0.977    56 H    0.974
                            55 H    0.973
    26   6 C    3.905 --    29 C    1.399    23 C    1.222    27 O    1.101
    27   8 O    2.256 --    26 C    1.101    28 C    0.979
    28   6 C    3.933 --    27 O    0.979    58 H    0.977    59 H    0.974
                            60 H    0.973
    29   6 C    3.962 --    26 C    1.399    20 C    1.377    61 H    0.963
    30   6 C    2.966 --    62 H    0.980    63 H    0.979    17 N    0.946
    31   6 C    3.935 --    33 C    1.014    32 C    1.013    65 H    0.952
                             3 C    0.897
    32   6 C    3.990 --    31 C    1.013    67 H    0.983    66 H    0.981
                            68 H    0.980
    33   6 C    3.988 --    31 C    1.014    70 H    0.984    71 H    0.978
                            69 H    0.978
    34   1 H    0.996 --     5 C    0.958
    35   1 H    0.995 --     8 C    0.974
    36   1 H    0.993 --     8 C    0.977
    37   1 H    0.995 --     8 C    0.974
    38   1 H    0.994 --    11 C    0.974
    39   1 H    0.993 --    11 C    0.977
    40   1 H    0.995 --    11 C    0.974
    41   1 H    0.996 --    12 C    0.964
    42   1 H    0.999 --    13 C    0.958
    43   1 H    0.995 --    14 C    0.967
    44   1 H    0.996 --    14 C    0.973
    45   1 H    0.995 --    15 C    0.960
    46   1 H    0.995 --    15 C    0.973
    47   1 H    0.993 --    16 C    0.938
    48   1 H    0.993 --    16 C    0.968
    49   1 H    0.993 --    18 C    0.972
    50   1 H    0.995 --    18 C    0.971
    51   1 H    0.996 --    19 C    0.966
    52   1 H    0.992 --    19 C    0.963
    53   1 H    0.998 --    21 C    0.968
    54   1 H    0.995 --    22 C    0.963
    55   1 H    0.992 --    25 C    0.973
    56   1 H    0.993 --    25 C    0.974
    57   1 H    0.993 --    25 C    0.977
    58   1 H    0.993 --    28 C    0.977
    59   1 H    0.994 --    28 C    0.974
    60   1 H    0.993 --    28 C    0.973
    61   1 H    0.996 --    29 C    0.963
    62   1 H    0.993 --    30 C    0.980
    63   1 H    0.993 --    30 C    0.979
    64   1 H    0.956 --    17 N    0.923
    65   1 H    0.988 --    31 C    0.952
    66   1 H    0.996 --    32 C    0.981
    67   1 H    0.998 --    32 C    0.983
    68   1 H    0.994 --    32 C    0.980
    69   1 H    0.996 --    33 C    0.978
    70   1 H    0.998 --    33 C    0.984
    71   1 H    0.993 --    33 C    0.978
    72   1 H    0.939 --     1 N    0.915
 ---------------------------------------------------------------------------

molecular dipole:
                 x           y           z       tot (Debye)
 q only:        0.362       0.865       0.065
   full:        0.129       1.117       0.252       2.930

           -------------------------------------------------
          | TOTAL ENERGY              -99.298184378864 Eh   |
          | GRADIENT NORM               0.004748446474 Eh/α |
          | HOMO-LUMO GAP               0.687960547234 eV   |
           -------------------------------------------------

 * finished run on 2024/04/06 at 11:16:53.144
