   * xtb version 6.6.1 (8d0f1dd) compiled by 'conda@1efc2f54142f' on 2023-08-01
          program call               : xtb xtbopt.xyz --opt crude --input .xc2 --gfn2

   ID    Z sym.   atoms
    1    7 N      1, 17
    2    6 C      2-6, 8, 9, 11-16, 18-23, 25, 26, 28-33
    3    8 O      7, 10, 24, 27
    4    1 H      34-72

          :  Hamiltonian                  GFN2-xTB          :
 * total energy  :   -99.3358569 Eh     change       -0.2557954E-12 Eh
   *** GEOMETRY OPTIMIZATION CONVERGED AFTER 1 ITERATIONS ***

 final structure:
================
72
 xtb: 6.6.1 (8d0f1dd)
N           -1.29889162731185        1.49343335168635        4.19437968588117
C           -1.50588005777244        0.86774162312981        3.24079211485927
C           -3.73715883841451        1.70492536235580        0.07832534613929
C           -4.18757750336086        0.37185329329606        0.09867636652599
C           -5.39004127433851       -0.04132164525605       -0.53698267262874
C           -5.80693903804874       -1.35223388238095       -0.53334158040497
O           -6.91887735901907       -1.82183413154636       -1.13498212215561
C           -7.76172943046010       -0.92896073350731       -1.82326341236557
C           -5.03454200345670       -2.34551653558669        0.14200224485211
O           -5.52494554383586       -3.59003788622365        0.10017951566448
C           -4.82562905153762       -4.63306375669774        0.74077203350075
C           -3.86008395577741       -1.94990866920831        0.78070897229420
C           -3.44203718706860       -0.64143414300833        0.75611403538645
C           -2.32585576163685        2.01891076904435        0.43791960917750
C           -1.30782098488637        1.32052690679315       -0.48440623282930
C            0.03935007970486        1.12562090252123        0.21712249088004
N            0.90386574638356        0.19979641186713       -0.48462130341935
C            2.31666748274233        0.35025638513317       -0.20866956524215
C            3.18873479916932       -0.04877438809444       -1.41260594126092
C            4.63751840176866        0.08293355018098       -1.04751477051021
C            5.33685695625285        1.25489112046667       -1.29826225367173
C            6.66172333136220        1.38889125878424       -0.91544526752026
C            7.31844966783267        0.35242653430721       -0.26473324323587
O            8.59647918813314        0.37281890718064        0.15509239645513
C            9.38160194045444        1.51854833372031       -0.08165665321912
C            6.61046388750518       -0.85448281329949       -0.00143300862797
O            7.32013428372951       -1.80940456986728        0.63056779118851
C            6.71300755102558       -3.04742237409303        0.91422458182547
C            5.28584456707554       -0.96362949418734       -0.39645959812231
C            0.45510969704287       -1.17115205903428       -0.41523497766574
C           -4.63037530375097        2.86051103900327       -0.24427898354538
C           -4.83227325989295        3.72068891589780        1.01369138338364
C           -4.07264372628941        3.70617795862123       -1.39315624475818
H           -5.97057757028296        0.68334054551192       -1.08089180574745
H           -8.16187040300663       -0.15961478225404       -1.15566599477350
H           -8.58009562435819       -1.53620651836523       -2.20457798285291
H           -7.24323102964047       -0.45358896214553       -2.66212211659080
H           -4.74375116266803       -4.45633908639954        1.81731152170618
H           -5.41476314197216       -5.53141806948153        0.56668707006583
H           -3.82705328259887       -4.76575498698265        0.31399193103933
H           -3.26745460846674       -2.67639656748070        1.31364710132170
H           -2.55522605474605       -0.38259305566614        1.30704657335419
H           -2.15311237967894        3.09281137305711        0.41676126311994
H           -2.14023007372140        1.68592670750954        1.46898246836298
H           -1.70937129933452        0.35614997055025       -0.78630216991294
H           -1.16412653447194        1.91273527880223       -1.38858497667072
H           -0.14158212117358        0.77306521332048        1.24732624911799
H            0.54581701330191        2.09082203680835        0.28262379394398
H            2.61606893117789       -0.25215160841471        0.66353793996835
H            2.52350158525385        1.39661634569346        0.02409395273260
H            2.94326138630617        0.60059941212499       -2.25247493200478
H            2.97585637499433       -1.07777070746298       -1.70236620582959
H            4.84850743267413        2.07332741014122       -1.80423862645570
H            7.17938026653255        2.30972583600292       -1.12910746033319
H            8.97052955041347        2.39718077317680        0.42486243741553
H            9.47585960410593        1.72465873849088       -1.15216500491258
H           10.36281220735375        1.29047953359418        0.33006867510018
H            7.48030563041763       -3.64361755407738        1.40433537384112
H            5.85963124034689       -2.93046202640821        1.58968395733579
H            6.38945581599423       -3.55432865150000        0.00002065655978
H            4.74147781254295       -1.87550092484902       -0.20617565031672
H           -0.50354406658239       -1.28055902483811       -0.91891008738353
H            0.34231079270624       -1.51022020406467        0.62502796857514
H            1.17046574683264       -1.81763714741876       -0.91538907002582
H           -5.61760254175231        2.50214576830639       -0.53941526883756
H           -3.89787129967959        4.16206690191542        1.34858050773465
H           -5.23816222916059        3.11612144221481        1.82133927400146
H           -5.53169351798351        4.52369090979347        0.79712109207203
H           -3.15096565401181        4.20851513340997       -1.11474288871903
H           -3.87962539631687        3.08296605377274       -2.26332034966097
H           -4.79751161934271        4.46694213447535       -1.67031542124795
H           -1.13180985632279        2.00663633970490        5.03146031066577

          :  Hamiltonian                  GFN2-xTB          :
         :: total energy             -99.335856938016 Eh    ::
         :: gradient norm              0.003124170745 Eh/a0 ::
         :: HOMO-LUMO gap              1.175805040199 eV    ::
         :: SCC energy              -100.739652544777 Eh    ::
         :: -> dispersion             -0.069046042563 Eh    ::
         :: repulsion energy           1.403217142053 Eh    ::

    * Orbital Energies and Occupations

         #    Occupation            Energy/Eh            Energy/eV
      -------------------------------------------------------------
         1        2.0000           -0.8140033             -22.1502
       ...           ...                  ...                  ...
        78        1.9980           -0.5284603             -14.3801
        79        1.9979           -0.5273434             -14.3497
        80        1.9974           -0.5243975             -14.2696
        81        1.9967           -0.5205663             -14.1653
        82        1.9961           -0.5179155             -14.0932
        83        1.9948           -0.5132771             -13.9670
        84        1.9935           -0.5095202             -13.8648
        85        1.9920           -0.5063493             -13.7785
        86        1.9843           -0.4956259             -13.4867
        87        1.9649           -0.4827184             -13.1354
        88        1.9043           -0.4663279             -12.6894
        89        1.8207           -0.4556816             -12.3997
        90        1.7444           -0.4493890             -12.2285 (HOMO)
        91        0.6166           -0.4061789             -11.0527 (LUMO)
        92        0.0029           -0.3153467              -8.5810
        93        0.0027           -0.3146598              -8.5623
        94        0.0021           -0.3103402              -8.4448
        95        0.0017           -0.3066904              -8.3455
        96        0.0014           -0.3041381              -8.2760
        97        0.0006           -0.2902203              -7.8973
        98        0.0000           -0.1825149              -4.9665
        99        0.0000           -0.1817178              -4.9448
       100                         -0.0922974              -2.5115
       101                         -0.0645398              -1.7562
       ...                                ...                  ...
       171                          0.9325482              25.3759
      -------------------------------------------------------------
                  HL-Gap            0.0432100 Eh            1.1758 eV

     #   Z          covCN         q      C6AA      α(0)
     1   7 N        1.771    -0.077    23.458     7.172
     2   6 C        0.910    -0.116    39.119    10.467
     3   6 C        2.959     0.024    27.460     8.595
     4   6 C        2.963     0.005    27.913     8.666
     5   6 C        2.917    -0.075    29.870     8.962
     6   6 C        2.858     0.135    25.053     8.204
     7   8 O        1.706    -0.229    17.794     5.695
     8   6 C        3.644     0.026    20.469     6.503
     9   6 C        2.865     0.140    24.939     8.186
    10   8 O        1.706    -0.208    17.458     5.641
    11   6 C        3.646     0.023    20.520     6.510
    12   6 C        2.908    -0.067    29.659     8.930
    13   6 C        2.922    -0.045    29.124     8.850
    14   6 C        3.807    -0.078    21.983     6.674
    15   6 C        3.802    -0.066    21.768     6.643
    16   6 C        3.753    -0.007    20.760     6.497
    17   7 N        2.726    -0.112    23.440     7.191
    18   6 C        3.757     0.002    20.600     6.471
    19   6 C        3.808    -0.072    21.861     6.656
    20   6 C        2.969     0.010    27.788     8.647
    21   6 C        2.922    -0.044    29.097     8.846
    22   6 C        2.913    -0.066    29.631     8.926
    23   6 C        2.864     0.134    25.064     8.206
    24   8 O        1.706    -0.218    17.618     5.667
    25   6 C        3.645     0.024    20.501     6.507
    26   6 C        2.862     0.134    25.059     8.205
    27   8 O        1.706    -0.221    17.667     5.675
    28   6 C        3.645     0.026    20.467     6.502
    29   6 C        2.920    -0.076    29.905     8.968
    30   6 C        3.708    -0.049    21.593     6.642
    31   6 C        3.854    -0.014    20.789     6.485
    32   6 C        3.757    -0.108    22.614     6.780
    33   6 C        3.755    -0.109    22.630     6.783
    34   1 H        0.926     0.058     2.225     2.333
    35   1 H        0.924     0.053     2.283     2.363
    36   1 H        0.925     0.082     1.956     2.187
    37   1 H        0.924     0.053     2.288     2.366
    38   1 H        0.924     0.059     2.209     2.324
    39   1 H        0.925     0.085     1.928     2.171
    40   1 H        0.924     0.057     2.239     2.340
    41   1 H        0.926     0.056     2.242     2.342
    42   1 H        0.926     0.082     1.956     2.187
    43   1 H        0.925     0.058     2.225     2.333
    44   1 H        0.923     0.091     1.867     2.137
    45   1 H        0.925     0.055     2.253     2.347
    46   1 H        0.924     0.054     2.271     2.357
    47   1 H        0.923     0.045     2.378     2.412
    48   1 H        0.924     0.047     2.360     2.403
    49   1 H        0.923     0.035     2.519     2.482
    50   1 H        0.924     0.049     2.339     2.392
    51   1 H        0.925     0.061     2.183     2.311
    52   1 H        0.925     0.054     2.268     2.355
    53   1 H        0.926     0.054     2.275     2.359
    54   1 H        0.926     0.060     2.200     2.320
    55   1 H        0.924     0.056     2.244     2.342
    56   1 H        0.924     0.058     2.224     2.332
    57   1 H        0.925     0.083     1.949     2.183
    58   1 H        0.925     0.082     1.958     2.188
    59   1 H        0.924     0.052     2.301     2.372
    60   1 H        0.924     0.055     2.259     2.351
    61   1 H        0.926     0.052     2.298     2.371
    62   1 H        0.925     0.056     2.247     2.344
    63   1 H        0.923     0.038     2.470     2.458
    64   1 H        0.925     0.057     2.229     2.335
    65   1 H        0.924     0.049     2.330     2.387
    66   1 H        0.925     0.046     2.376     2.411
    67   1 H        0.925     0.043     2.413     2.429
    68   1 H        0.925     0.057     2.238     2.339
    69   1 H        0.925     0.047     2.352     2.398
    70   1 H        0.925     0.043     2.414     2.430
    71   1 H        0.925     0.053     2.281     2.362
    72   1 H        0.861     0.196     1.127     1.663

Wiberg/Mayer (AO) data.
largest (>0.10) Wiberg bond orders for each atom

     #   Z sym  total        # sym  WBO       # sym  WBO       # sym  WBO
 ---------------------------------------------------------------------------
     1   7 N    3.635 --     2 C    2.702    72 H    0.912
     2   6 C    2.838 --     1 N    2.702
     3   6 C    3.570 --     4 C    1.340    14 C    1.052    31 C    1.031
     4   6 C    3.971 --     3 C    1.340    13 C    1.246     5 C    1.241
     5   6 C    3.875 --     6 C    1.457     4 C    1.241    34 H    0.952
     6   6 C    3.911 --     5 C    1.457     9 C    1.186     7 O    1.100
     7   8 O    2.253 --     6 C    1.100     8 C    0.977
     8   6 C    3.930 --     7 O    0.977    36 H    0.976    35 H    0.973
                            37 H    0.972
     9   6 C    3.809 --    12 C    1.332     6 C    1.186    10 O    1.135
    10   8 O    2.262 --     9 C    1.135    11 C    0.973
    11   6 C    3.926 --    39 H    0.977    10 O    0.973    40 H    0.972
                            38 H    0.972
    12   6 C    3.968 --    13 C    1.497     9 C    1.332    41 H    0.962
    13   6 C    3.842 --    12 C    1.497     4 C    1.246    42 H    0.955
    14   6 C    3.980 --     3 C    1.052    15 C    0.974    43 H    0.967
                            44 H    0.892
    15   6 C    3.961 --    16 C    0.996    46 H    0.975    14 C    0.974
                            45 H    0.963
    16   6 C    3.966 --    17 N    1.004    15 C    0.996    48 H    0.970
                            47 H    0.941
    17   7 N    3.093 --    30 C    1.017    18 C    1.006    16 C    1.004
    18   6 C    3.965 --    17 N    1.006    19 C    0.973    50 H    0.970
                            49 H    0.957
    19   6 C    3.979 --    20 C    1.014    18 C    0.973    51 H    0.971
                            52 H    0.964
    20   6 C    3.926 --    21 C    1.393    29 C    1.383    19 C    1.014
    21   6 C    3.929 --    22 C    1.423    20 C    1.393    53 H    0.967
    22   6 C    3.950 --    21 C    1.423    23 C    1.375    54 H    0.962
    23   6 C    3.873 --    22 C    1.375    26 C    1.211    24 O    1.113
    24   8 O    2.245 --    23 C    1.113    25 C    0.976
    25   6 C    3.926 --    57 H    0.977    24 O    0.976    55 H    0.971
                            56 H    0.971
    26   6 C    3.880 --    29 C    1.390    23 C    1.211    27 O    1.107
    27   8 O    2.246 --    26 C    1.107    28 C    0.978
    28   6 C    3.930 --    27 O    0.978    58 H    0.977    59 H    0.972
                            60 H    0.972
    29   6 C    3.952 --    26 C    1.390    20 C    1.383    61 H    0.962
    30   6 C    3.970 --    17 N    1.017    64 H    0.976    62 H    0.972
                            63 H    0.963
    31   6 C    3.984 --     3 C    1.031    33 C    0.984    32 C    0.970
                            65 H    0.955
    32   6 C    3.964 --    67 H    0.986    66 H    0.983    68 H    0.980
                            31 C    0.970
    33   6 C    3.971 --    70 H    0.986    31 C    0.984    71 H    0.981
                            69 H    0.981
    34   1 H    0.995 --     5 C    0.952
    35   1 H    0.993 --     8 C    0.973
    36   1 H    0.992 --     8 C    0.976
    37   1 H    0.993 --     8 C    0.972
    38   1 H    0.990 --    11 C    0.972
    39   1 H    0.992 --    11 C    0.977
    40   1 H    0.991 --    11 C    0.972
    41   1 H    0.995 --    12 C    0.962
    42   1 H    0.992 --    13 C    0.955
    43   1 H    0.995 --    14 C    0.967
    44   1 H    0.968 --    14 C    0.892
    45   1 H    0.996 --    15 C    0.963
    46   1 H    0.993 --    15 C    0.975
    47   1 H    0.975 --    16 C    0.941
    48   1 H    0.997 --    16 C    0.970
    49   1 H    0.978 --    18 C    0.957
    50   1 H    0.997 --    18 C    0.970
    51   1 H    0.993 --    19 C    0.971
    52   1 H    0.994 --    19 C    0.964
    53   1 H    0.996 --    21 C    0.967
    54   1 H    0.994 --    22 C    0.962
    55   1 H    0.990 --    25 C    0.971
    56   1 H    0.990 --    25 C    0.971
    57   1 H    0.992 --    25 C    0.977
    58   1 H    0.992 --    28 C    0.977
    59   1 H    0.991 --    28 C    0.972
    60   1 H    0.991 --    28 C    0.972
    61   1 H    0.996 --    29 C    0.962
    62   1 H    0.992 --    30 C    0.972
    63   1 H    0.978 --    30 C    0.963
    64   1 H    0.995 --    30 C    0.976
    65   1 H    0.995 --    31 C    0.955
    66   1 H    0.997 --    32 C    0.983
    67   1 H    0.997 --    32 C    0.986
    68   1 H    0.993 --    32 C    0.980
    69   1 H    0.997 --    33 C    0.981
    70   1 H    0.997 --    33 C    0.986
    71   1 H    0.994 --    33 C    0.981
    72   1 H    0.960 --     1 N    0.912
 ---------------------------------------------------------------------------

molecular dipole:
                 x           y           z       tot (Debye)
 q only:       -0.230       0.355       0.423
   full:       -0.183       0.645       1.054       3.175

           -------------------------------------------------
          | TOTAL ENERGY              -99.335856938016 Eh   |
          | GRADIENT NORM               0.003124170745 Eh/α |
          | HOMO-LUMO GAP               1.175805040199 eV   |
           -------------------------------------------------

 * finished run on 2024/04/06 at 11:11:46.869
