   * xtb version 6.6.1 (8d0f1dd) compiled by 'conda@1efc2f54142f' on 2023-08-01
          program call               : xtb struc.xyz --opt loose --input .xc1 --gfn2

   ID    Z sym.   atoms
    1    7 N      1, 17
    2    6 C      2-6, 8, 9, 11-16, 18-23, 25, 26, 28-33
    3    8 O      7, 10, 24, 27
    4    1 H      34-72
constraining bond 50 52 to    4.2800000 Å, actual value:    3.0573149 Å

          :  Hamiltonian                  GFN2-xTB          :
 * total energy  :   -99.1372012 Eh     change       -0.4035485E-08 Eh
 * total energy  :   -99.2639123 Eh     change       -0.1267111E+00 Eh
 * total energy  :   -99.3042856 Eh     change       -0.4037328E-01 Eh
 * total energy  :   -99.3088939 Eh     change       -0.4608331E-02 Eh
 * total energy  :   -99.3093691 Eh     change       -0.4751576E-03 Eh
 * total energy  :   -99.3100218 Eh     change       -0.6527692E-03 Eh
 * total energy  :   -99.3102561 Eh     change       -0.2342849E-03 Eh
 * total energy  :   -99.3105080 Eh     change       -0.2518867E-03 Eh
 * total energy  :   -99.3106779 Eh     change       -0.1699011E-03 Eh
 * total energy  :   -99.3107841 Eh     change       -0.1061959E-03 Eh
 * total energy  :   -99.3108669 Eh     change       -0.8280212E-04 Eh
 * total energy  :   -99.3109596 Eh     change       -0.9264770E-04 Eh
 * total energy  :   -99.3110647 Eh     change       -0.1051419E-03 Eh
 * total energy  :   -99.3111508 Eh     change       -0.8613693E-04 Eh
 * total energy  :   -99.3111981 Eh     change       -0.4724786E-04 Eh
   *** GEOMETRY OPTIMIZATION CONVERGED AFTER 15 ITERATIONS ***

 final structure:
================
72
 xtb: 6.6.1 (8d0f1dd)
N           -1.91667787963201        2.80290001024218        2.24251334989366
C           -1.84703479424720        2.12970582135007        1.19316452717802
C           -2.99183977798333        1.91641830355592        0.24016193901260
C           -3.46819150840053        0.47287297060936        0.32363067137254
C           -4.42587604134357        0.00850912883087       -0.58105615378346
C           -4.90191718537565       -1.29073787265690       -0.52901397812909
O           -5.83285918407789       -1.81664974699016       -1.35111376387818
C           -6.46894583837655       -0.99172443642322       -2.29862344525376
C           -4.39655420939753       -2.18251546452465        0.45563647313359
O           -4.90851795937077       -3.42909160027073        0.42488163934079
C           -4.51603207422415       -4.35510441892132        1.41077940037683
C           -3.44661369264393       -1.71627363183696        1.34970100048340
C           -2.99157836919966       -0.40470522901716        1.28488700476436
C           -2.44249402659029        2.19859663338892       -1.18304319158812
C           -1.49964969434372        1.11015702398303       -1.73034089599331
C           -0.16212419025659        1.13542834617562       -1.09791187718242
N            0.51478833158412        0.07941917892987       -0.65960627412745
C            1.87153116340543        0.22071654254374       -0.20994095995102
C            2.88078215915757       -0.43674103561300       -1.44095430300963
C            4.28098755886790       -0.20274361965866       -0.96903605293143
C            4.90369747058645        1.02246181532137       -1.16188417871410
C            6.19392942105037        1.24479731271714       -0.70805642604824
C            6.88723132760375        0.25057097608341       -0.03233793045063
O            8.13886869011486        0.35579185978508        0.45058251722968
C            8.86156830481771        1.54544005885003        0.23066548991314
C            6.25342746044225       -1.00411611220702        0.18680592184624
O            6.99730608552040       -1.91167960797299        0.85021660773678
C            6.46322214095187       -3.18848485747111        1.10647449549138
C            4.96543417222886       -1.20544894536101       -0.28315991271961
C           -0.05050141200578       -1.25011071359078       -0.70350351761961
C           -4.20126152372990        2.85318881881515        0.53426182375904
C           -4.84553856366907        2.52801217175444        1.87983665454018
C           -3.83935279646497        4.33495586921162        0.47674136632019
H           -4.81727009521331        0.67847801276895       -1.32841234559283
H           -6.97963966916108       -0.15050130416268       -1.82045621346492
H           -7.20431741715629       -1.62679763943847       -2.78897296501833
H           -5.76240311498627       -0.61632162086705       -3.04592744902607
H           -4.75479314636210       -3.99537544282525        2.41592879180125
H           -5.08623785413721       -5.25909173056786        1.20622549128007
H           -3.44646557330030       -4.57977969003230        1.34679261975214
H           -3.05921509013555       -2.36473512927836        2.11873987031419
H           -2.27472963984069       -0.07129637826083        2.01943206811808
H           -3.28511211744877        2.29185414062724       -1.86722978958536
H           -1.91630272866260        3.15386337445915       -1.17716902155297
H           -1.97420699316705        0.13455131155472       -1.64095015470766
H           -1.36335560676629        1.31842426900883       -2.79985445380333
H           -0.91824274330225        1.64885973627797        0.83081579488912
H            0.36580432045435        2.07820484183197       -1.09799367626312
H            2.03653755136837       -0.43082428597182        0.65181621062921
H            1.89332444131641        1.39743338683023        0.31441257490093
H            2.66734210013430        0.19164136684906       -2.30664977211797
H            2.88236824894698       -1.62388801171877       -1.93391948646522
H            4.38777144558245        1.81318186580153       -1.68450022963362
H            6.65623868907178        2.20097697144929       -0.89108015862351
H            8.38602794284349        2.40023818643964        0.72128872249984
H            8.97368477928976        1.75256927256250       -0.83768686552220
H            9.84244629688533        1.37701978009106        0.67080106862033
H            7.24420526987569       -3.72998537348647        1.63678847238944
H            5.57073994973765       -3.13047486295208        1.73775105401621
H            6.22272306547634       -3.71775302523931        0.17912172321419
H            4.47938241570209       -2.15682493524213       -0.13215292093691
H           -0.21672554523916       -1.57482262583193       -1.73233904249783
H           -1.00409913542790       -1.27332095365673       -0.16903248678976
H            0.63480547767021       -1.94603308493277       -0.22758353891092
H           -4.94304172220649        2.65914851060355       -0.24842497398684
H           -4.14294666695781        2.71684942726795        2.68488207299590
H           -5.16072205792840        1.48834237350264        1.92297614470953
H           -5.71870754034912        3.15808811003384        2.02650216833147
H           -3.07128403931202        4.56823647263208        1.20766819883979
H           -3.49670237986514        4.63091470529267       -0.51140711455775
H           -4.72070844908639        4.92499461210425        0.71342546321199
H           -1.07887063634124        2.90427933934375        2.80628097013171

          :  Hamiltonian                  GFN2-xTB          :
         :: total energy             -99.311198092582 Eh    ::
         :: gradient norm              0.001982052352 Eh/a0 ::
         :: HOMO-LUMO gap              1.657331254570 eV    ::
         :: SCC energy              -100.682220133556 Eh    ::
         :: -> dispersion             -0.074944363416 Eh    ::
         :: repulsion energy           1.343090388096 Eh    ::

    * Orbital Energies and Occupations

         #    Occupation            Energy/Eh            Energy/eV
      -------------------------------------------------------------
         1        2.0000           -0.8083605             -21.9966
       ...           ...                  ...                  ...
        78        1.9983           -0.5283432             -14.3770
        79        1.9982           -0.5277581             -14.3610
        80        1.9981           -0.5265782             -14.3289
        81        1.9975           -0.5224414             -14.2164
        82        1.9968           -0.5184096             -14.1066
        83        1.9960           -0.5147009             -14.0057
        84        1.9952           -0.5118292             -13.9276
        85        1.9943           -0.5092082             -13.8563
        86        1.9810           -0.4899163             -13.3313
        87        1.9783           -0.4878274             -13.2745
        88        1.9376           -0.4707762             -12.8105
        89        1.8727           -0.4589389             -12.4884
        90        1.8408           -0.4551264             -12.3846 (HOMO)
        91        0.3960           -0.3942206             -10.7273 (LUMO)
        92        0.0156           -0.3396015              -9.2410
        93        0.0035           -0.3160451              -8.6000
        94        0.0033           -0.3148665              -8.5680
        95        0.0029           -0.3130102              -8.5174
        96        0.0025           -0.3103477              -8.4450
        97        0.0002           -0.2724209              -7.4130
        98        0.0000           -0.1903653              -5.1801
        99        0.0000           -0.1879552              -5.1145
       100                         -0.1466800              -3.9914
       101                         -0.1261770              -3.4335
       ...                                ...                  ...
       171                          0.5759959              15.6736
      -------------------------------------------------------------
                  HL-Gap            0.0609058 Eh            1.6573 eV

     #   Z          covCN         q      C6AA      α(0)
     1   7 N        1.774    -0.268    27.776     7.804
     2   6 C        2.825     0.101    25.748     8.315
     3   6 C        3.907     0.006    20.414     6.422
     4   6 C        2.973     0.003    27.954     8.673
     5   6 C        2.920    -0.079    29.985     8.980
     6   6 C        2.861     0.130    25.153     8.221
     7   8 O        1.706    -0.230    17.806     5.697
     8   6 C        3.644     0.027    20.453     6.501
     9   6 C        2.864     0.129    25.179     8.225
    10   8 O        1.706    -0.228    17.787     5.694
    11   6 C        3.645     0.027    20.454     6.500
    12   6 C        2.914    -0.075    29.869     8.962
    13   6 C        2.921    -0.054    29.333     8.882
    14   6 C        3.811    -0.065    21.739     6.637
    15   6 C        3.802    -0.069    21.817     6.650
    16   6 C        2.846     0.006    27.882     8.654
    17   7 N        2.727     0.012    21.043     6.813
    18   6 C        3.557    -0.015    21.790     6.812
    19   6 C        3.615    -0.055    22.087     6.782
    20   6 C        2.965    -0.000    28.031     8.684
    21   6 C        2.922    -0.048    29.203     8.862
    22   6 C        2.913    -0.067    29.677     8.933
    23   6 C        2.865     0.134    25.079     8.209
    24   8 O        1.706    -0.221    17.673     5.676
    25   6 C        3.646     0.025    20.490     6.505
    26   6 C        2.862     0.133    25.091     8.210
    27   8 O        1.706    -0.225    17.730     5.685
    28   6 C        3.645     0.027    20.453     6.500
    29   6 C        2.920    -0.080    29.993     8.981
    30   6 C        3.700    -0.071    22.020     6.711
    31   6 C        3.853    -0.008    20.676     6.467
    32   6 C        3.756    -0.119    22.842     6.815
    33   6 C        3.755    -0.118    22.815     6.811
    34   1 H        0.926     0.052     2.293     2.368
    35   1 H        0.924     0.054     2.271     2.357
    36   1 H        0.925     0.081     1.966     2.193
    37   1 H        0.924     0.048     2.350     2.397
    38   1 H        0.924     0.055     2.259     2.350
    39   1 H        0.925     0.081     1.967     2.193
    40   1 H        0.924     0.048     2.348     2.396
    41   1 H        0.926     0.051     2.302     2.373
    42   1 H        0.926     0.037     2.488     2.467
    43   1 H        0.925     0.060     2.197     2.318
    44   1 H        0.924     0.053     2.278     2.360
    45   1 H        0.925     0.066     2.134     2.285
    46   1 H        0.923     0.079     1.987     2.204
    47   1 H        0.922     0.005     2.978     2.699
    48   1 H        0.926     0.070     2.089     2.260
    49   1 H        0.924     0.067     2.117     2.275
    50   1 H        0.789     0.058     2.267     2.368
    51   1 H        0.924     0.054     2.275     2.359
    52   1 H        0.794     0.052     2.337     2.403
    53   1 H        0.926     0.045     2.377     2.411
    54   1 H        0.926     0.059     2.213     2.326
    55   1 H        0.924     0.054     2.265     2.354
    56   1 H        0.924     0.056     2.248     2.345
    57   1 H        0.925     0.083     1.953     2.185
    58   1 H        0.925     0.082     1.959     2.189
    59   1 H        0.924     0.049     2.338     2.391
    60   1 H        0.924     0.052     2.292     2.368
    61   1 H        0.926     0.047     2.351     2.398
    62   1 H        0.924     0.077     2.014     2.219
    63   1 H        0.924     0.080     1.977     2.199
    64   1 H        0.925     0.081     1.969     2.194
    65   1 H        0.924     0.037     2.485     2.465
    66   1 H        0.925     0.071     2.079     2.255
    67   1 H        0.925     0.036     2.509     2.477
    68   1 H        0.925     0.051     2.306     2.375
    69   1 H        0.925     0.058     2.217     2.328
    70   1 H        0.925     0.034     2.527     2.486
    71   1 H        0.925     0.055     2.263     2.352
    72   1 H        0.860     0.156     1.358     1.826

Wiberg/Mayer (AO) data.
largest (>0.10) Wiberg bond orders for each atom

     #   Z sym  total        # sym  WBO       # sym  WBO       # sym  WBO
 ---------------------------------------------------------------------------
     1   7 N    3.040 --     2 C    1.956    72 H    0.942
     2   6 C    3.928 --     1 N    1.956     3 C    0.995    47 H    0.900
     3   6 C    3.976 --     2 C    0.995     4 C    0.968    14 C    0.959
                            31 C    0.943
     4   6 C    3.949 --    13 C    1.415     5 C    1.368     3 C    0.968
     5   6 C    3.962 --     6 C    1.402     4 C    1.368    34 H    0.958
     6   6 C    3.906 --     5 C    1.402     9 C    1.221     7 O    1.100
     7   8 O    2.255 --     6 C    1.100     8 C    0.978
     8   6 C    3.932 --     7 O    0.978    36 H    0.977    35 H    0.974
                            37 H    0.973
     9   6 C    3.902 --    12 C    1.393     6 C    1.221    10 O    1.102
    10   8 O    2.253 --     9 C    1.102    11 C    0.978
    11   6 C    3.931 --    10 O    0.978    39 H    0.977    40 H    0.974
                            38 H    0.973
    12   6 C    3.962 --    13 C    1.402     9 C    1.393    41 H    0.964
    13   6 C    3.955 --     4 C    1.415    12 C    1.402    42 H    0.963
    14   6 C    3.971 --    15 C    0.980    44 H    0.972    43 H    0.969
                             3 C    0.959
    15   6 C    3.987 --    16 C    1.060    14 C    0.980    45 H    0.962
                            46 H    0.929
    16   6 C    3.595 --    17 N    1.395    15 C    1.060    48 H    0.956
    17   7 N    3.491 --    16 C    1.395    18 C    1.015    30 C    0.993
    18   6 C    3.928 --    17 N    1.015    49 H    0.968    50 H    0.954
                            19 C    0.900
    19   6 C    3.944 --    20 C    1.033    51 H    0.977    52 H    0.960
                            18 C    0.900
    20   6 C    3.944 --    21 C    1.396    29 C    1.373    19 C    1.033
    21   6 C    3.947 --    22 C    1.422    20 C    1.396    53 H    0.968
    22   6 C    3.960 --    21 C    1.422    23 C    1.381    54 H    0.963
    23   6 C    3.892 --    22 C    1.381    26 C    1.218    24 O    1.111
    24   8 O    2.254 --    23 C    1.111    25 C    0.976
    25   6 C    3.928 --    57 H    0.977    24 O    0.976    56 H    0.973
                            55 H    0.972
    26   6 C    3.898 --    29 C    1.398    23 C    1.218    27 O    1.103
    27   8 O    2.254 --    26 C    1.103    28 C    0.979
    28   6 C    3.932 --    27 O    0.979    58 H    0.977    59 H    0.974
                            60 H    0.973
    29   6 C    3.958 --    26 C    1.398    20 C    1.373    61 H    0.962
    30   6 C    3.956 --    17 N    0.993    64 H    0.978    62 H    0.968
                            63 H    0.960
    31   6 C    3.973 --    33 C    1.009    32 C    1.008    65 H    0.960
                             3 C    0.943
    32   6 C    3.978 --    31 C    1.008    67 H    0.982    68 H    0.981
                            66 H    0.973
    33   6 C    3.984 --    31 C    1.009    70 H    0.983    71 H    0.980
                            69 H    0.977
    34   1 H    0.996 --     5 C    0.958
    35   1 H    0.993 --     8 C    0.974
    36   1 H    0.993 --     8 C    0.977
    37   1 H    0.994 --     8 C    0.973
    38   1 H    0.993 --    11 C    0.973
    39   1 H    0.993 --    11 C    0.977
    40   1 H    0.993 --    11 C    0.974
    41   1 H    0.996 --    12 C    0.964
    42   1 H    0.998 --    13 C    0.963
    43   1 H    0.995 --    14 C    0.969
    44   1 H    0.996 --    14 C    0.972
    45   1 H    0.995 --    15 C    0.962
    46   1 H    0.971 --    15 C    0.929
    47   1 H    0.987 --     2 C    0.900
    48   1 H    0.995 --    16 C    0.956
    49   1 H    0.990 --    18 C    0.968
    50   1 H    0.996 --    18 C    0.954
    51   1 H    0.996 --    19 C    0.977
    52   1 H    0.996 --    19 C    0.960
    53   1 H    0.997 --    21 C    0.968
    54   1 H    0.995 --    22 C    0.963
    55   1 H    0.991 --    25 C    0.972
    56   1 H    0.992 --    25 C    0.973
    57   1 H    0.992 --    25 C    0.977
    58   1 H    0.993 --    28 C    0.977
    59   1 H    0.993 --    28 C    0.974
    60   1 H    0.993 --    28 C    0.973
    61   1 H    0.996 --    29 C    0.962
    62   1 H    0.986 --    30 C    0.968
    63   1 H    0.987 --    30 C    0.960
    64   1 H    0.993 --    30 C    0.978
    65   1 H    0.992 --    31 C    0.960
    66   1 H    0.990 --    32 C    0.973
    67   1 H    0.997 --    32 C    0.982
    68   1 H    0.994 --    32 C    0.981
    69   1 H    0.994 --    33 C    0.977
    70   1 H    0.997 --    33 C    0.983
    71   1 H    0.994 --    33 C    0.980
    72   1 H    0.970 --     1 N    0.942
 ---------------------------------------------------------------------------

molecular dipole:
                 x           y           z       tot (Debye)
 q only:        0.734      -0.071      -0.839
   full:        1.033      -0.121      -1.009       3.683

           -------------------------------------------------
          | TOTAL ENERGY              -99.311198092582 Eh   |
          | GRADIENT NORM               0.001982052352 Eh/α |
          | HOMO-LUMO GAP               1.657331254570 eV   |
           -------------------------------------------------

 * finished run on 2024/04/06 at 11:15:08.426
