   * xtb version 6.6.1 (8d0f1dd) compiled by 'conda@1efc2f54142f' on 2023-08-01
          program call               : xtb xtbopt.xyz --opt crude --input .xc2 --gfn2

   ID    Z sym.   atoms
    1    7 N      1, 17
    2    6 C      2-6, 8, 9, 11-16, 18-23, 25, 26, 28-33
    3    8 O      7, 10, 24, 27
    4    1 H      34-72
########################################################################
[WARNING] Please study the warnings concerning your input carefully
-1- readin_getIntValue: could not parse ''
########################################################################

          :  Hamiltonian                  GFN2-xTB          :
 * total energy  :   -99.3378309 Eh     change        0.4263256E-13 Eh
 * total energy  :   -99.3855197 Eh     change       -0.4768875E-01 Eh
 * total energy  :   -99.3999179 Eh     change       -0.1439825E-01 Eh
 * total energy  :   -99.4050077 Eh     change       -0.5089718E-02 Eh
 * total energy  :   -99.4064865 Eh     change       -0.1478899E-02 Eh
 * total energy  :   -99.4066217 Eh     change       -0.1351559E-03 Eh
   *** GEOMETRY OPTIMIZATION CONVERGED AFTER 6 ITERATIONS ***

 final structure:
================
72
 xtb: 6.6.1 (8d0f1dd)
N           -1.90814567986224        2.80166737873234        2.24157249819869
C           -1.84612408207239        2.12748107084668        1.19240535586086
C           -2.99230110298986        1.91683626155046        0.24165637480600
C           -3.46841996250056        0.47347320110375        0.32468871384713
C           -4.42314091307326        0.00741379761610       -0.58189792417356
C           -4.89837054024413       -1.29208879854551       -0.52916691019602
O           -5.82753204041396       -1.81776184756207       -1.35334386929237
C           -6.46243032893749       -0.98927861834510       -2.29861676044863
C           -4.39427868508544       -2.18240095808293        0.45757415118200
O           -4.90558975118202       -3.42916408523423        0.42754335557298
C           -4.51511911012220       -4.35453096800896        1.41485794668194
C           -3.44637394180186       -1.71437944529932        1.35296775875139
C           -2.99328655991276       -0.40214194921373        1.28839005220085
C           -2.43362741838533        2.19978219349726       -1.17732942407090
C           -1.49025887136121        1.10964404774918       -1.71930225749426
C           -0.15210910663243        1.11167778168783       -1.08628034614649
N            0.51084460720371        0.03353427750140       -0.68482681999559
C            1.89126206785403        0.12326137782401       -0.27581078250548
C            2.85117602721051       -0.34669933640972       -1.38183213974951
C            4.27360053793776       -0.15719497814663       -0.93759610391767
C            4.91268023079486        1.05431116280208       -1.14871659176399
C            6.20951913736942        1.26137974632646       -0.70741838360283
C            6.89370636510999        0.25807349887760       -0.03640327751310
O            8.14830002421174        0.35095957892034        0.44149441408837
C            8.87324321321787        1.54125637878872        0.23260278161414
C            6.24777144313912       -0.99015613633861        0.18406978368716
O            6.98946843716859       -1.90564606333903        0.83874052821830
C            6.45267779686809       -3.18137273649748        1.09453322548798
C            4.95002225626150       -1.17412267092701       -0.26795930776055
C           -0.08134491833303       -1.28315385471102       -0.71832362025284
C           -4.20389371412312        2.85254873305648        0.53199295070736
C           -4.85096727081140        2.52692547838681        1.87618901339757
C           -3.84395851441623        4.33470732008040        0.47607450077563
H           -4.81276385069829        0.67649192697746       -1.33091502404517
H           -6.97088582496838       -0.14825665932631       -1.81765271207597
H           -7.19930029353863       -1.62112152943896       -2.79069957285308
H           -5.75519448641140       -0.61305479511904       -3.04491607897920
H           -4.75615187064075       -3.99476721670792        2.41945045319468
H           -5.08485282120777       -5.25852536164089        1.20905445100195
H           -3.44541973033498       -4.57935887268593        1.35355228012962
H           -3.05899053511446       -2.36174388725228        2.12295687543128
H           -2.27961577135742       -0.06614278455061        2.02478195576017
H           -3.27028201934155        2.29298013818780       -1.86880329798700
H           -1.90697052645540        3.15465736560860       -1.16659341642817
H           -1.97269681683691        0.13712555637278       -1.63859679223437
H           -1.34588231621565        1.32314307826004       -2.78656001525787
H           -0.91942768623843        1.64364720236391        0.82702039258323
H            0.39069385851334        2.04576221557568       -1.07470282578572
H            2.04132589593050       -0.49222448348146        0.61563166023165
H            2.12945065887757        1.15584064447028       -0.01975423346021
H            2.66178713995502        0.24637192338064       -2.27829817728193
H            2.66277761688617       -1.39073770393537       -1.61555943194887
H            4.40126354274917        1.84676032247720       -1.67375804418656
H            6.68063006876697        2.21219669641321       -0.89381756144755
H            8.39520610456793        2.39289148081898        0.72646676534544
H            8.99078745497884        1.75542724268528       -0.83382333441347
H            9.85166624303199        1.36987607959601        0.67678568156838
H            7.23400747085644       -3.72509918107955        1.62234981701989
H            5.56244756402347       -3.12324150629283        1.72903334519488
H            6.20903792443914       -3.70884042004281        0.16714283652431
H            4.45690821915683       -2.12152869863809       -0.11446506057862
H           -0.25933745843828       -1.61028362528718       -1.74467072077504
H           -1.03124101200600       -1.28862027745056       -0.17788314949255
H            0.59264377528303       -1.98978801311593       -0.24113031269444
H           -4.94355294830615        2.65717072946244       -0.25252376765987
H           -4.15152409390786        2.72107635868889        2.68270957425958
H           -5.16140369960321        1.48585527919214        1.92092989429371
H           -5.72793224944135        3.15262524038642        2.01945322919867
H           -3.08099204282936        4.56796067306556        1.21231926340245
H           -3.49496629604012        4.63070339940143       -0.50980694824454
H           -4.72720348566241        4.92448759274884        0.70657300524508
H           -1.06452973750768        2.89958255372579        2.79745495385137

          :  Hamiltonian                  GFN2-xTB          :
         :: total energy             -99.406621709551 Eh    ::
         :: gradient norm              0.004683941588 Eh/a0 ::
         :: HOMO-LUMO gap              1.669200691693 eV    ::
         :: SCC energy              -100.786661183072 Eh    ::
         :: -> dispersion             -0.075017548546 Eh    ::
         :: repulsion energy           1.378806862767 Eh    ::

    * Orbital Energies and Occupations

         #    Occupation            Energy/Eh            Energy/eV
      -------------------------------------------------------------
         1        2.0000           -0.8087843             -22.0081
       ...           ...                  ...                  ...
        78        1.9983           -0.5290430             -14.3960
        79        1.9983           -0.5286179             -14.3844
        80        1.9982           -0.5280036             -14.3677
        81        1.9975           -0.5228108             -14.2264
        82        1.9971           -0.5200868             -14.1523
        83        1.9960           -0.5150542             -14.0153
        84        1.9952           -0.5122240             -13.9383
        85        1.9943           -0.5095325             -13.8651
        86        1.9810           -0.4903859             -13.3441
        87        1.9788           -0.4886618             -13.2972
        88        1.9380           -0.4713389             -12.8258
        89        1.8723           -0.4593543             -12.4997
        90        1.8436           -0.4558974             -12.4056 (HOMO)
        91        0.3933           -0.3945554             -10.7364 (LUMO)
        92        0.0150           -0.3395072              -9.2385
        93        0.0035           -0.3164710              -8.6116
        94        0.0029           -0.3135183              -8.5313
        95        0.0027           -0.3125149              -8.5040
        96        0.0024           -0.3102310              -8.4418
        97        0.0000           -0.1907835              -5.1915
        98        0.0000           -0.1877203              -5.1081
        99                         -0.1359690              -3.6999
       100                         -0.0690151              -1.8780
       101                         -0.0644020              -1.7525
       ...                                ...                  ...
       171                          0.5757186              15.6661
      -------------------------------------------------------------
                  HL-Gap            0.0613420 Eh            1.6692 eV

     #   Z          covCN         q      C6AA      α(0)
     1   7 N        1.774    -0.268    27.765     7.803
     2   6 C        2.826     0.101    25.751     8.315
     3   6 C        3.907     0.006    20.412     6.422
     4   6 C        2.974     0.003    27.956     8.673
     5   6 C        2.920    -0.080    29.988     8.980
     6   6 C        2.862     0.130    25.154     8.221
     7   8 O        1.706    -0.230    17.805     5.697
     8   6 C        3.644     0.027    20.451     6.500
     9   6 C        2.864     0.129    25.180     8.225
    10   8 O        1.706    -0.228    17.786     5.694
    11   6 C        3.645     0.027    20.456     6.500
    12   6 C        2.914    -0.075    29.869     8.962
    13   6 C        2.921    -0.054    29.333     8.882
    14   6 C        3.812    -0.065    21.738     6.636
    15   6 C        3.802    -0.069    21.822     6.651
    16   6 C        2.843     0.007    27.846     8.648
    17   7 N        2.729     0.011    21.063     6.816
    18   6 C        3.756    -0.016    20.917     6.521
    19   6 C        3.809    -0.071    21.845     6.653
    20   6 C        2.969    -0.000    28.036     8.685
    21   6 C        2.923    -0.049    29.219     8.864
    22   6 C        2.914    -0.067    29.680     8.934
    23   6 C        2.866     0.133    25.079     8.209
    24   8 O        1.706    -0.222    17.678     5.677
    25   6 C        3.646     0.025    20.488     6.505
    26   6 C        2.862     0.133    25.088     8.210
    27   8 O        1.706    -0.225    17.726     5.684
    28   6 C        3.644     0.027    20.457     6.501
    29   6 C        2.919    -0.079    29.981     8.979
    30   6 C        3.700    -0.071    22.024     6.711
    31   6 C        3.853    -0.007    20.674     6.467
    32   6 C        3.756    -0.119    22.838     6.814
    33   6 C        3.755    -0.118    22.815     6.811
    34   1 H        0.926     0.052     2.293     2.368
    35   1 H        0.924     0.054     2.271     2.357
    36   1 H        0.925     0.081     1.965     2.192
    37   1 H        0.924     0.048     2.350     2.397
    38   1 H        0.924     0.055     2.258     2.350
    39   1 H        0.925     0.081     1.966     2.193
    40   1 H        0.924     0.048     2.348     2.396
    41   1 H        0.926     0.051     2.301     2.372
    42   1 H        0.926     0.038     2.479     2.462
    43   1 H        0.925     0.060     2.199     2.319
    44   1 H        0.924     0.054     2.276     2.359
    45   1 H        0.925     0.066     2.129     2.282
    46   1 H        0.923     0.080     1.981     2.201
    47   1 H        0.922     0.007     2.945     2.684
    48   1 H        0.926     0.070     2.090     2.261
    49   1 H        0.924     0.067     2.117     2.275
    50   1 H        0.925     0.068     2.112     2.273
    51   1 H        0.924     0.055     2.258     2.350
    52   1 H        0.925     0.056     2.246     2.344
    53   1 H        0.926     0.045     2.384     2.415
    54   1 H        0.926     0.059     2.214     2.327
    55   1 H        0.924     0.054     2.267     2.355
    56   1 H        0.924     0.056     2.247     2.344
    57   1 H        0.925     0.082     1.954     2.186
    58   1 H        0.925     0.082     1.959     2.189
    59   1 H        0.924     0.048     2.339     2.392
    60   1 H        0.924     0.053     2.286     2.364
    61   1 H        0.926     0.047     2.356     2.400
    62   1 H        0.924     0.076     2.018     2.222
    63   1 H        0.924     0.080     1.980     2.201
    64   1 H        0.925     0.080     1.979     2.200
    65   1 H        0.924     0.037     2.483     2.464
    66   1 H        0.925     0.070     2.083     2.257
    67   1 H        0.925     0.036     2.508     2.477
    68   1 H        0.925     0.051     2.306     2.375
    69   1 H        0.925     0.059     2.213     2.327
    70   1 H        0.925     0.034     2.526     2.485
    71   1 H        0.925     0.055     2.262     2.352
    72   1 H        0.860     0.157     1.354     1.823

Wiberg/Mayer (AO) data.
largest (>0.10) Wiberg bond orders for each atom

     #   Z sym  total        # sym  WBO       # sym  WBO       # sym  WBO
 ---------------------------------------------------------------------------
     1   7 N    3.042 --     2 C    1.957    72 H    0.942
     2   6 C    3.928 --     1 N    1.957     3 C    0.995    47 H    0.898
     3   6 C    3.976 --     2 C    0.995     4 C    0.968    14 C    0.958
                            31 C    0.942
     4   6 C    3.949 --    13 C    1.415     5 C    1.368     3 C    0.968
     5   6 C    3.962 --     6 C    1.402     4 C    1.368    34 H    0.958
     6   6 C    3.906 --     5 C    1.402     9 C    1.221     7 O    1.100
     7   8 O    2.255 --     6 C    1.100     8 C    0.978
     8   6 C    3.932 --     7 O    0.978    36 H    0.977    35 H    0.974
                            37 H    0.973
     9   6 C    3.902 --    12 C    1.393     6 C    1.221    10 O    1.102
    10   8 O    2.253 --     9 C    1.102    11 C    0.978
    11   6 C    3.931 --    10 O    0.978    39 H    0.977    40 H    0.974
                            38 H    0.973
    12   6 C    3.962 --    13 C    1.402     9 C    1.393    41 H    0.964
    13   6 C    3.954 --     4 C    1.415    12 C    1.402    42 H    0.963
    14   6 C    3.972 --    15 C    0.981    44 H    0.972    43 H    0.969
                             3 C    0.958
    15   6 C    3.987 --    16 C    1.060    14 C    0.981    45 H    0.962
                            46 H    0.927
    16   6 C    3.595 --    17 N    1.401    15 C    1.060    48 H    0.957
    17   7 N    3.479 --    16 C    1.401    30 C    0.998    18 C    0.989
    18   6 C    3.956 --    17 N    0.989    50 H    0.968    19 C    0.967
                            49 H    0.963
    19   6 C    3.976 --    20 C    1.008    52 H    0.972    51 H    0.971
                            18 C    0.967
    20   6 C    3.944 --    21 C    1.408    29 C    1.381    19 C    1.008
    21   6 C    3.950 --    22 C    1.418    20 C    1.408    53 H    0.968
    22   6 C    3.960 --    21 C    1.418    23 C    1.383    54 H    0.963
    23   6 C    3.895 --    22 C    1.383    26 C    1.220    24 O    1.110
    24   8 O    2.255 --    23 C    1.110    25 C    0.976
    25   6 C    3.928 --    57 H    0.977    24 O    0.976    56 H    0.973
                            55 H    0.972
    26   6 C    3.898 --    29 C    1.394    23 C    1.220    27 O    1.104
    27   8 O    2.255 --    26 C    1.104    28 C    0.978
    28   6 C    3.932 --    27 O    0.978    58 H    0.977    59 H    0.973
                            60 H    0.973
    29   6 C    3.959 --    26 C    1.394    20 C    1.381    61 H    0.963
    30   6 C    3.957 --    17 N    0.998    64 H    0.978    62 H    0.967
                            63 H    0.960
    31   6 C    3.973 --    33 C    1.009    32 C    1.008    65 H    0.960
                             3 C    0.942
    32   6 C    3.978 --    31 C    1.008    67 H    0.982    68 H    0.981
                            66 H    0.973
    33   6 C    3.984 --    31 C    1.009    70 H    0.983    71 H    0.980
                            69 H    0.977
    34   1 H    0.996 --     5 C    0.958
    35   1 H    0.993 --     8 C    0.974
    36   1 H    0.993 --     8 C    0.977
    37   1 H    0.994 --     8 C    0.973
    38   1 H    0.993 --    11 C    0.973
    39   1 H    0.993 --    11 C    0.977
    40   1 H    0.993 --    11 C    0.974
    41   1 H    0.996 --    12 C    0.964
    42   1 H    0.998 --    13 C    0.963
    43   1 H    0.995 --    14 C    0.969
    44   1 H    0.996 --    14 C    0.972
    45   1 H    0.995 --    15 C    0.962
    46   1 H    0.970 --    15 C    0.927
    47   1 H    0.987 --     2 C    0.898
    48   1 H    0.995 --    16 C    0.957
    49   1 H    0.990 --    18 C    0.963
    50   1 H    0.994 --    18 C    0.968
    51   1 H    0.996 --    19 C    0.971
    52   1 H    0.996 --    19 C    0.972
    53   1 H    0.997 --    21 C    0.968
    54   1 H    0.995 --    22 C    0.963
    55   1 H    0.992 --    25 C    0.972
    56   1 H    0.992 --    25 C    0.973
    57   1 H    0.992 --    25 C    0.977
    58   1 H    0.993 --    28 C    0.977
    59   1 H    0.993 --    28 C    0.973
    60   1 H    0.993 --    28 C    0.973
    61   1 H    0.997 --    29 C    0.963
    62   1 H    0.985 --    30 C    0.967
    63   1 H    0.987 --    30 C    0.960
    64   1 H    0.993 --    30 C    0.978
    65   1 H    0.992 --    31 C    0.960
    66   1 H    0.991 --    32 C    0.973
    67   1 H    0.997 --    32 C    0.982
    68   1 H    0.994 --    32 C    0.981
    69   1 H    0.994 --    33 C    0.977
    70   1 H    0.997 --    33 C    0.983
    71   1 H    0.994 --    33 C    0.980
    72   1 H    0.970 --     1 N    0.942
 ---------------------------------------------------------------------------

molecular dipole:
                 x           y           z       tot (Debye)
 q only:        0.681      -0.057      -0.813
   full:        0.981      -0.103      -0.991       3.554

           -------------------------------------------------
          | TOTAL ENERGY              -99.406621709551 Eh   |
          | GRADIENT NORM               0.004683941588 Eh/α |
          | HOMO-LUMO GAP               1.669200691693 eV   |
           -------------------------------------------------

 * finished run on 2024/04/06 at 11:15:09.692
