   * xtb version 6.6.1 (8d0f1dd) compiled by 'conda@1efc2f54142f' on 2023-08-01
          program call               : xtb xtbopt.xyz --opt crude --input .xc2 --gfn2

   ID    Z sym.   atoms
    1    6 C      1, 3, 5-7, 10, 11, 14
    2    7 N      2, 4, 9, 13
    3    8 O      8, 12
    4    1 H      15-25
########################################################################
[WARNING] Please study the warnings concerning your input carefully
-1- readin_getIntValue: could not parse ''
########################################################################

          :  Hamiltonian                  GFN2-xTB          :
 * total energy  :   -42.0982445 Eh     change       -0.2842171E-13 Eh
   *** GEOMETRY OPTIMIZATION CONVERGED AFTER 1 ITERATIONS ***

 final structure:
================
25
 xtb: 6.6.1 (8d0f1dd)
C            2.29134863014411       -0.15680927009966        1.32291978645499
N            1.81812006451750       -0.38040547531569       -0.02887115025008
C            2.56893607783455       -1.08894995242795       -0.92902255987051
N            2.39860301961283       -1.24589904901660       -2.16109147547222
C           -0.57484584380476        0.16876355025367       -0.03529432220954
C            0.73085976525088        0.44415196630798       -0.46569729156538
C            1.01561897518132        1.48798818964013       -1.26865740630473
O            1.32956332889649        2.34230750116049       -1.96988953084285
N           -1.77343355191234        0.81022052389135       -0.20978103896128
C           -2.19536562653568        2.11000575703570       -0.64272381805896
C           -2.40067500900327       -0.22281078278961        0.54984651508990
O           -3.49698488040190       -0.47071968935884        0.89117181478872
N           -1.12205093046385       -0.84222933671082        0.71400479896306
C           -0.75069964117985       -2.17793172277375        1.08291448869685
H            2.90199216544799       -1.00015959815173        1.63676237699203
H            2.89473930549278        0.75250662225712        1.38747297125001
H            1.44510052349000       -0.05751847166976        2.00143860154541
H            3.41026127982434       -1.60528464756060       -0.47785747577806
H           -1.80492584571500        2.32664627551357       -1.63770667368731
H           -3.28361651318509        2.10565294297458       -0.68239989736158
H           -1.86815637982206        2.88789918662743        0.05203720501303
H            0.12768646353262       -2.17177890920792        1.72783188534532
H           -0.54814108182308       -2.79319680320308        0.20224023724305
H           -1.59110736782211       -2.60442026862999        1.62812831731403
H            1.63760458655034       -0.79978999715542       -2.65660474043712

          :  Hamiltonian                  GFN2-xTB          :
         :: total energy             -42.098244533224 Eh    ::
         :: gradient norm              0.003624008205 Eh/a0 ::
         :: HOMO-LUMO gap              1.835330799471 eV    ::
         :: SCC energy               -42.653583919991 Eh    ::
         :: -> dispersion             -0.021860125025 Eh    ::
         :: repulsion energy           0.555056009274 Eh    ::

    * Orbital Energies and Occupations

         #    Occupation            Energy/Eh            Energy/eV
      -------------------------------------------------------------
         1        2.0000           -0.9544991             -25.9732
       ...           ...                  ...                  ...
        25        2.0000           -0.6870747             -18.6963
        26        1.9999           -0.6801174             -18.5069
        27        1.9997           -0.6497816             -17.6815
        28        1.9996           -0.6478156             -17.6280
        29        1.9994           -0.6403807             -17.4256
        30        1.9993           -0.6391646             -17.3926
        31        1.9992           -0.6375339             -17.3482
        32        1.9991           -0.6339920             -17.2518
        33        1.9941           -0.6048269             -16.4582
        34        1.9889           -0.5948665             -16.1871
        35        1.9500           -0.5707090             -15.5298
        36        1.8956           -0.5585974             -15.2002
        37        1.8153           -0.5488713             -14.9355 (HOMO)
        38        0.2438           -0.4814241             -13.1002 (LUMO)
        39        0.1151           -0.4684261             -12.7465
        40        0.0007           -0.3860109             -10.5039
        41        0.0003           -0.3739731             -10.1763
        42        0.0000           -0.3322020              -9.0397
        43                         -0.2184775              -5.9451
        44                         -0.1977863              -5.3820
        45                         -0.1651375              -4.4936
        46                         -0.1298560              -3.5336
        47                         -0.0892358              -2.4282
        48                         -0.0668124              -1.8181
       ...                                ...                  ...
        67                          0.9119809              24.8163
      -------------------------------------------------------------
                  HL-Gap            0.0674472 Eh            1.8353 eV

     #   Z          covCN         q      C6AA      α(0)
     1   6 C        3.697    -0.069    22.005     6.710
     2   7 N        2.740    -0.048    22.175     6.994
     3   6 C        2.763     0.122    25.299     8.237
     4   7 N        1.774    -0.251    27.362     7.746
     5   6 C        3.398     0.140    21.522     7.173
     6   6 C        2.888     0.005    27.899     8.660
     7   6 C        1.860     0.259    25.183     8.106
     8   8 O        0.856    -0.078    16.191     5.395
     9   7 N        2.993    -0.088    22.946     7.115
    10   6 C        3.683    -0.063    21.923     6.705
    11   6 C        3.252     0.342    20.400     7.308
    12   8 O        0.856    -0.250    18.900     5.829
    13   7 N        2.993    -0.080    22.798     7.092
    14   6 C        3.683    -0.063    21.922     6.705
    15   1 H        0.925     0.097     1.815     2.107
    16   1 H        0.924     0.083     1.951     2.184
    17   1 H        0.925     0.079     1.989     2.205
    18   1 H        0.925     0.108     1.713     2.047
    19   1 H        0.924     0.087     1.909     2.161
    20   1 H        0.925     0.116     1.646     2.007
    21   1 H        0.924     0.090     1.883     2.146
    22   1 H        0.925     0.092     1.858     2.132
    23   1 H        0.924     0.088     1.895     2.153
    24   1 H        0.925     0.112     1.678     2.026
    25   1 H        0.860     0.170     1.270     1.766

Wiberg/Mayer (AO) data.
largest (>0.10) Wiberg bond orders for each atom

     #   Z sym  total        # sym  WBO       # sym  WBO       # sym  WBO
 ---------------------------------------------------------------------------
     1   6 C    3.935 --     2 N    0.984    17 H    0.973    15 H    0.968
                            16 H    0.963
     2   7 N    3.376 --     3 C    1.172     1 C    0.984     6 C    0.969
                             4 N    0.146
     3   6 C    3.947 --     4 N    1.801     2 N    1.172    18 H    0.924
     4   7 N    2.921 --     3 C    1.801    25 H    0.929     2 N    0.146
     5   6 C    3.813 --     6 C    1.251     9 N    1.173    13 N    1.172
     6   6 C    3.908 --     7 C    1.397     5 C    1.251     2 N    0.969
                             8 O    0.140
     7   6 C    3.686 --     8 O    2.149     6 C    1.397
     8   8 O    2.409 --     7 C    2.149     6 C    0.140
     9   7 N    3.474 --     5 C    1.173    10 C    0.992    11 C    0.977
                            13 N    0.120    12 O    0.107
    10   6 C    3.929 --     9 N    0.992    20 H    0.967    19 H    0.966
                            21 H    0.959
    11   6 C    3.901 --    12 O    1.859     9 N    0.977    13 N    0.972
    12   8 O    2.152 --    11 C    1.859     9 N    0.107    13 N    0.106
    13   7 N    3.468 --     5 C    1.172    14 C    0.990    11 C    0.972
                             9 N    0.120    12 O    0.106
    14   6 C    3.927 --    13 N    0.990    24 H    0.968    22 H    0.964
                            23 H    0.960
    15   1 H    0.988 --     1 C    0.968
    16   1 H    0.980 --     1 C    0.963
    17   1 H    0.988 --     1 C    0.973
    18   1 H    0.974 --     3 C    0.924
    19   1 H    0.987 --    10 C    0.966
    20   1 H    0.985 --    10 C    0.967
    21   1 H    0.982 --    10 C    0.959
    22   1 H    0.985 --    14 C    0.964
    23   1 H    0.982 --    14 C    0.960
    24   1 H    0.986 --    14 C    0.968
    25   1 H    0.961 --     4 N    0.929
 ---------------------------------------------------------------------------

molecular dipole:
                 x           y           z       tot (Debye)
 q only:        0.743       0.185       0.237
   full:        0.774       0.454       0.319       2.422

           -------------------------------------------------
          | TOTAL ENERGY              -42.098244533224 Eh   |
          | GRADIENT NORM               0.003624008205 Eh/α |
          | HOMO-LUMO GAP               1.835330799471 eV   |
           -------------------------------------------------

 * finished run on 2024/06/05 at 19:58:19.436
