   * xtb version 6.6.1 (8d0f1dd) compiled by 'conda@1efc2f54142f' on 2023-08-01
          program call               : xtb xtbopt.xyz --opt crude --input .xc2 --gfn2

   ID    Z sym.   atoms
    1    7 N      1, 17
    2    6 C      2-6, 8, 9, 11-16, 18-23, 25, 26, 28-33
    3    8 O      7, 10, 24, 27
    4    1 H      34-72

          :  Hamiltonian                  GFN2-xTB          :
 * total energy  :   -99.3403842 Eh     change       -0.1080025E-11 Eh
   *** GEOMETRY OPTIMIZATION CONVERGED AFTER 1 ITERATIONS ***

 final structure:
================
72
 xtb: 6.6.1 (8d0f1dd)
N           -2.52375075829216        2.99369104876586        2.61517605998168
C           -2.37309353753093        2.02809580711944        1.83617985953466
C           -3.21266135682595        1.80589165840793        0.60530962639488
C           -3.86835916414774        0.43706230066314        0.67221915023871
C           -4.46868189530582       -0.10682917390839       -0.46408130246386
C           -5.10323189334927       -1.33793384971449       -0.42838548516331
O           -5.71617522661368       -1.92896859880602       -1.47510088834655
C           -5.86259329740678       -1.21808591441337       -2.68246731693947
C           -5.13438208515980       -2.07486144472726        0.78764881392922
O           -5.75596380895463       -3.26722796142444        0.72854766361527
C           -5.85060887228502       -4.05192647739855        1.89570820036347
C           -4.54878377156104       -1.52024403498782        1.91610365924817
C           -3.93247136665988       -0.27924613202290        1.85887235284151
C           -2.18687865141560        1.85601028835901       -0.57250493535232
C           -1.31770804596900        0.64868861905587       -0.61069544800211
C            0.00483417661153        0.67771914163709       -0.37647844627912
N            0.85452773483339       -0.40867315416224       -0.34704378059621
C            2.25071914018347       -0.16390248325652       -0.03548458966300
C            3.09175700748287       -0.02938549900356       -1.31769907200328
C            4.54588727731239        0.13510854843606       -0.97645711822559
C            5.15650312013553        1.37787889921178       -1.02363719268312
C            6.49549995860995        1.52355059236313       -0.69581573680078
C            7.25280060258253        0.42743606966113       -0.30597633817038
O            8.55517540819764        0.45311046783321        0.02793914311662
C            9.25493932799639        1.67531837411830       -0.02311158891814
C            6.63278223468743       -0.85248508055639       -0.24636752690701
O            7.43523992300291       -1.86214957459503        0.14267521767197
C            6.91332944118470       -3.16739042315345        0.22403361391978
C            5.29358216261581       -0.97283911958846       -0.58203423540868
C            0.49670974582565       -1.64675859482764       -0.65011963952710
C           -4.33056255872776        2.86533903522654        0.39972420980792
C           -5.32733037368343        2.84577192786211        1.55679550170908
C           -3.79764898192853        4.28097679104136        0.19980660786769
H           -4.44599559791959        0.44314029230095       -1.39083361363319
H           -6.38934270493977       -0.27168046214341       -2.52759587359391
H           -6.45816568679543       -1.86035547463316       -3.32828847929085
H           -4.89548244628065       -1.02677214830153       -3.15901362185445
H           -6.41836381876506       -3.53925429300195        2.67810483332169
H           -6.38082540880374       -4.95457086984351        1.59821711532568
H           -4.86138183203962       -4.32098378746734        2.27868612587081
H           -4.57800180671445       -2.04445399620045        2.85736855134166
H           -3.51569561796530        0.13295138398605        2.76447263073841
H           -2.74560222383617        1.92930687662792       -1.50759237468418
H           -1.57960335550169        2.75525222286617       -0.46703357454616
H           -1.82579021240353       -0.28230662867806       -0.80779152777967
H           -0.03850915333069        0.06371967340284       -3.62224422934397
H           -1.58180243460372        1.26876963698159        1.94225239680391
H            0.49266082466432        1.61968266155675       -0.16908695764541
H            2.63224499041544       -0.99694312498506        0.55931983647630
H            2.33978888946543        0.74806083365931        0.55726490196217
H            2.74176926154579        0.82968328065130       -1.89145384879709
H            2.94885062873147       -0.92576055602506       -1.92475952342598
H            4.59336837900967        2.24605203522709       -1.33006126249063
H            6.94397499941272        2.50183785618991       -0.75035580233681
H            8.84903799895899        2.39786201045350        0.69161115062340
H            9.23708377961760        2.10577103107405       -1.02847856363357
H           10.28099614597929        1.43602950051157        0.24939724621612
H            7.73924494196429       -3.79236675028731        0.55822836285348
H            6.09747955447690       -3.22854051041247        0.95164133813311
H            6.56380888843972       -3.52106116215848       -0.75082347257505
H            4.81893815829540       -1.94137367067368       -0.55497104430850
H            0.22018373051357       -0.64932843216942       -3.79369971905476
H           -0.50371746268972       -1.86950196979203       -0.95841513669502
H            1.21999665173005       -2.43460640085797       -0.57886161532348
H           -4.86906416008336        2.57326836979696       -0.50998061165188
H           -4.84509687921767        3.18341029141166        2.46892820544056
H           -5.72520161312020        1.84628448098599        1.71611381932418
H           -6.15685096849842        3.51286035406464        1.33624836108528
H           -3.19097830527753        4.57734215563444        1.04986511695782
H           -3.21076905433066        4.36837981096789       -0.71093085316774
H           -4.63555509211900        4.96899623689923        0.12268018118686
H           -1.88451800641917        3.07259671163070        3.39985733591361

          :  Hamiltonian                  GFN2-xTB          :
         :: total energy             -99.340384213717 Eh    ::
         :: gradient norm              0.001509188253 Eh/a0 ::
         :: HOMO-LUMO gap              1.391429566929 eV    ::
         :: SCC energy              -100.762982911649 Eh    ::
         :: -> dispersion             -0.072496032317 Eh    ::
         :: repulsion energy           1.421658804620 Eh    ::

    * Orbital Energies and Occupations

         #    Occupation            Energy/Eh            Energy/eV
      -------------------------------------------------------------
         1        2.0000           -0.8096885             -22.0327
       ...           ...                  ...                  ...
        78        1.9977           -0.5287368             -14.3877
        79        1.9975           -0.5278048             -14.3623
        80        1.9967           -0.5232926             -14.2395
        81        1.9963           -0.5213560             -14.1868
        82        1.9950           -0.5167911             -14.0626
        83        1.9933           -0.5119294             -13.9303
        84        1.9927           -0.5107524             -13.8983
        85        1.9901           -0.5058464             -13.7648
        86        1.9734           -0.4900408             -13.3347
        87        1.9716           -0.4890128             -13.3067
        88        1.8973           -0.4680285             -12.7357
        89        1.8173           -0.4582274             -12.4690
        90        1.8155           -0.4580574             -12.4644 (HOMO)
        91        0.5605           -0.4069233             -11.0729 (LUMO)
        92        0.0089           -0.3361773              -9.1479
        93        0.0024           -0.3153737              -8.5818
        94        0.0023           -0.3148528              -8.5676
        95        0.0019           -0.3118807              -8.4867
        96        0.0019           -0.3117430              -8.4830
        97        0.0009           -0.2999184              -8.1612
        98        0.0000           -0.1894041              -5.1539
        99        0.0000           -0.1891460              -5.1469
       100                         -0.1201768              -3.2702
       101                         -0.0648764              -1.7654
       ...                                ...                  ...
       171                          0.5745667              15.6348
      -------------------------------------------------------------
                  HL-Gap            0.0511341 Eh            1.3914 eV

     #   Z          covCN         q      C6AA      α(0)
     1   7 N        1.774    -0.266    27.736     7.799
     2   6 C        2.829     0.104    25.695     8.306
     3   6 C        3.909     0.011    20.338     6.410
     4   6 C        2.974     0.006    27.891     8.663
     5   6 C        2.920    -0.076    29.908     8.968
     6   6 C        2.862     0.131    25.130     8.217
     7   8 O        1.706    -0.227    17.770     5.692
     8   6 C        3.644     0.027    20.451     6.501
     9   6 C        2.864     0.132    25.105     8.213
    10   8 O        1.706    -0.223    17.693     5.679
    11   6 C        3.645     0.025    20.484     6.505
    12   6 C        2.913    -0.069    29.708     8.938
    13   6 C        2.922    -0.046    29.139     8.852
    14   6 C        3.818    -0.061    21.660     6.624
    15   6 C        2.890    -0.045    29.113     8.846
    16   6 C        2.851    -0.016    28.403     8.735
    17   7 N        2.733     0.062    20.164     6.669
    18   6 C        3.768    -0.020    20.961     6.525
    19   6 C        3.808    -0.069    21.812     6.648
    20   6 C        2.968     0.003    27.960     8.673
    21   6 C        2.921    -0.046    29.146     8.853
    22   6 C        2.914    -0.066    29.650     8.929
    23   6 C        2.865     0.135    25.053     8.204
    24   8 O        1.706    -0.218    17.622     5.668
    25   6 C        3.645     0.024    20.507     6.508
    26   6 C        2.862     0.134    25.062     8.206
    27   8 O        1.706    -0.222    17.681     5.677
    28   6 C        3.645     0.026    20.467     6.502
    29   6 C        2.920    -0.079    29.975     8.978
    30   6 C        2.804    -0.070    29.725     8.932
    31   6 C        3.853    -0.007    20.669     6.466
    32   6 C        3.756    -0.118    22.805     6.809
    33   6 C        3.755    -0.120    22.846     6.815
    34   1 H        0.926     0.053     2.288     2.365
    35   1 H        0.924     0.055     2.263     2.353
    36   1 H        0.925     0.082     1.959     2.189
    37   1 H        0.924     0.049     2.338     2.391
    38   1 H        0.924     0.057     2.230     2.335
    39   1 H        0.925     0.082     1.954     2.186
    40   1 H        0.924     0.053     2.287     2.365
    41   1 H        0.926     0.057     2.230     2.335
    42   1 H        0.926     0.046     2.371     2.408
    43   1 H        0.924     0.068     2.107     2.270
    44   1 H        0.925     0.056     2.250     2.346
    45   1 H        0.926     0.051     2.302     2.372
    46   1 H        0.811    -0.003     3.165     2.794
    47   1 H        0.923     0.009     2.905     2.666
    48   1 H        0.926     0.060     2.201     2.320
    49   1 H        0.924     0.072     2.062     2.246
    50   1 H        0.924     0.071     2.076     2.253
    51   1 H        0.924     0.057     2.230     2.335
    52   1 H        0.924     0.058     2.220     2.330
    53   1 H        0.926     0.050     2.318     2.381
    54   1 H        0.926     0.061     2.188     2.313
    55   1 H        0.924     0.056     2.241     2.341
    56   1 H        0.924     0.057     2.229     2.335
    57   1 H        0.925     0.084     1.941     2.179
    58   1 H        0.925     0.083     1.947     2.182
    59   1 H        0.924     0.050     2.323     2.384
    60   1 H        0.924     0.054     2.270     2.356
    61   1 H        0.926     0.048     2.343     2.394
    62   1 H        0.811     0.004     3.041     2.738
    63   1 H        0.927     0.076     2.019     2.222
    64   1 H        0.926     0.076     2.022     2.223
    65   1 H        0.924     0.038     2.473     2.459
    66   1 H        0.925     0.068     2.104     2.268
    67   1 H        0.925     0.036     2.507     2.476
    68   1 H        0.925     0.052     2.298     2.370
    69   1 H        0.925     0.065     2.139     2.287
    70   1 H        0.925     0.036     2.500     2.473
    71   1 H        0.925     0.055     2.254     2.348
    72   1 H        0.860     0.160     1.338     1.812

Wiberg/Mayer (AO) data.
largest (>0.10) Wiberg bond orders for each atom

     #   Z sym  total        # sym  WBO       # sym  WBO       # sym  WBO
 ---------------------------------------------------------------------------
     1   7 N    3.012 --     2 C    1.956    72 H    0.940
     2   6 C    3.941 --     1 N    1.956     3 C    0.991    47 H    0.930
     3   6 C    3.959 --     2 C    0.991     4 C    0.976    31 C    0.948
                            14 C    0.921
     4   6 C    3.936 --    13 C    1.404     5 C    1.374     3 C    0.976
     5   6 C    3.956 --     6 C    1.397     4 C    1.374    34 H    0.957
     6   6 C    3.892 --     5 C    1.397     9 C    1.217     7 O    1.101
     7   8 O    2.246 --     6 C    1.101     8 C    0.978
     8   6 C    3.931 --     7 O    0.978    36 H    0.976    35 H    0.973
                            37 H    0.973
     9   6 C    3.888 --    12 C    1.383     6 C    1.217    10 O    1.109
    10   8 O    2.249 --     9 C    1.109    11 C    0.976
    11   6 C    3.928 --    39 H    0.977    10 O    0.976    40 H    0.973
                            38 H    0.972
    12   6 C    3.956 --    13 C    1.415     9 C    1.383    41 H    0.963
    13   6 C    3.943 --    12 C    1.415     4 C    1.404    42 H    0.962
    14   6 C    3.986 --    15 C    1.045    44 H    0.970    43 H    0.947
                             3 C    0.921
    15   6 C    3.815 --    16 C    1.711    14 C    1.045    45 H    0.956
    16   6 C    3.929 --    15 C    1.711    17 N    1.122    48 H    0.956
    17   7 N    3.574 --    30 C    1.413    16 C    1.122    18 C    0.979
    18   6 C    3.953 --    17 N    0.979    19 C    0.970    50 H    0.968
                            49 H    0.966
    19   6 C    3.978 --    20 C    1.009    51 H    0.973    18 C    0.970
                            52 H    0.967
    20   6 C    3.938 --    21 C    1.407    29 C    1.378    19 C    1.009
    21   6 C    3.943 --    22 C    1.417    20 C    1.407    53 H    0.967
    22   6 C    3.955 --    21 C    1.417    23 C    1.381    54 H    0.963
    23   6 C    3.888 --    22 C    1.381    26 C    1.214    24 O    1.114
    24   8 O    2.254 --    23 C    1.114    25 C    0.975
    25   6 C    3.926 --    57 H    0.976    24 O    0.975    56 H    0.972
                            55 H    0.972
    26   6 C    3.892 --    29 C    1.395    23 C    1.214    27 O    1.107
    27   8 O    2.253 --    26 C    1.107    28 C    0.978
    28   6 C    3.930 --    27 O    0.978    58 H    0.976    59 H    0.973
                            60 H    0.973
    29   6 C    3.956 --    26 C    1.395    20 C    1.378    61 H    0.962
    30   6 C    3.506 --    17 N    1.413    64 H    0.972    63 H    0.968
    31   6 C    3.971 --    33 C    1.008    32 C    1.006    65 H    0.958
                             3 C    0.948
    32   6 C    3.975 --    31 C    1.006    68 H    0.981    67 H    0.981
                            66 H    0.973
    33   6 C    3.977 --    31 C    1.008    70 H    0.982    71 H    0.979
                            69 H    0.974
    34   1 H    0.996 --     5 C    0.957
    35   1 H    0.992 --     8 C    0.973
    36   1 H    0.992 --     8 C    0.976
    37   1 H    0.992 --     8 C    0.973
    38   1 H    0.991 --    11 C    0.972
    39   1 H    0.992 --    11 C    0.977
    40   1 H    0.991 --    11 C    0.973
    41   1 H    0.995 --    12 C    0.963
    42   1 H    0.997 --    13 C    0.962
    43   1 H    0.987 --    14 C    0.947
    44   1 H    0.996 --    14 C    0.970
    45   1 H    0.997 --    15 C    0.956
    46   1 H    0.999 --    62 H    0.999
    47   1 H    0.979 --     2 C    0.930
    48   1 H    0.996 --    16 C    0.956
    49   1 H    0.991 --    18 C    0.966
    50   1 H    0.994 --    18 C    0.968
    51   1 H    0.996 --    19 C    0.973
    52   1 H    0.994 --    19 C    0.967
    53   1 H    0.997 --    21 C    0.967
    54   1 H    0.994 --    22 C    0.963
    55   1 H    0.990 --    25 C    0.972
    56   1 H    0.991 --    25 C    0.972
    57   1 H    0.992 --    25 C    0.976
    58   1 H    0.992 --    28 C    0.976
    59   1 H    0.992 --    28 C    0.973
    60   1 H    0.992 --    28 C    0.973
    61   1 H    0.996 --    29 C    0.962
    62   1 H    0.999 --    46 H    0.999
    63   1 H    0.994 --    30 C    0.968
    64   1 H    0.994 --    30 C    0.972
    65   1 H    0.990 --    31 C    0.958
    66   1 H    0.990 --    32 C    0.973
    67   1 H    0.996 --    32 C    0.981
    68   1 H    0.993 --    32 C    0.981
    69   1 H    0.991 --    33 C    0.974
    70   1 H    0.996 --    33 C    0.982
    71   1 H    0.993 --    33 C    0.979
    72   1 H    0.967 --     1 N    0.940
 ---------------------------------------------------------------------------

molecular dipole:
                 x           y           z       tot (Debye)
 q only:        0.931      -0.211      -0.104
   full:        1.133      -0.447      -0.039       3.098

           -------------------------------------------------
          | TOTAL ENERGY              -99.340384213717 Eh   |
          | GRADIENT NORM               0.001509188253 Eh/α |
          | HOMO-LUMO GAP               1.391429566929 eV   |
           -------------------------------------------------

 * finished run on 2024/04/06 at 11:13:14.967
