   * xtb version 6.6.1 (8d0f1dd) compiled by 'conda@1efc2f54142f' on 2023-08-01
          program call               : xtb struc.xyz --opt loose --input .xc1 --gfn2

   ID    Z sym.   atoms
    1    6 C      1, 3, 5-7, 10, 11, 14
    2    7 N      2, 4, 9, 13
    3    8 O      8, 12
    4    1 H      15-25
constraining bond 5 8 to    5.7600000 Å, actual value:    3.6017282 Å

          :  Hamiltonian                  GFN2-xTB          :
 * total energy  :   -33.9427973 Eh     change       -0.2401919E-09 Eh
 * total energy  :   -37.4499192 Eh     change       -0.3507122E+01 Eh
 * total energy  :   -39.9307593 Eh     change       -0.2480840E+01 Eh
 * total energy  :   -41.2614883 Eh     change       -0.1330729E+01 Eh
 * total energy  :   -41.7219602 Eh     change       -0.4604718E+00 Eh
 * total energy  :   -41.7757761 Eh     change       -0.5381593E-01 Eh
 * total energy  :   -41.7950220 Eh     change       -0.1924591E-01 Eh
 * total energy  :   -41.8332116 Eh     change       -0.3818960E-01 Eh
 * total energy  :   -41.8469795 Eh     change       -0.1376794E-01 Eh
 * total energy  :   -41.8614129 Eh     change       -0.1443340E-01 Eh
 * total energy  :   -42.1392848 Eh     change       -0.2183822E-03 Eh
 * total energy  :   -42.1394066 Eh     change       -0.1217455E-03 Eh
 * total energy  :   -42.1395147 Eh     change       -0.1081189E-03 Eh
 * total energy  :   -42.1396425 Eh     change       -0.1277853E-03 Eh
 * total energy  :   -42.1397575 Eh     change       -0.1150364E-03 Eh
 * total energy  :   -42.1399049 Eh     change       -0.1474151E-03 Eh
 * total energy  :   -42.1400101 Eh     change       -0.1052112E-03 Eh
 * total energy  :   -42.1400605 Eh     change       -0.5036029E-04 Eh
 * total energy  :   -42.1401046 Eh     change       -0.4413782E-04 Eh
   *** GEOMETRY OPTIMIZATION CONVERGED AFTER 105 ITERATIONS ***

 final structure:
================
25
 xtb: 6.6.1 (8d0f1dd)
C            3.40902765313871        0.83873092079839       -0.09241583927286
N            2.42964286841571       -0.20936790387236       -0.08032523486813
C            2.66654230746817       -1.52835601170791       -0.09822228466500
N            1.49184597741008       -2.22494491216262       -0.03238733839142
C            0.49809181879003       -1.32569910540156        0.03970610114986
C            1.06426617101999       -0.00778244536719        0.00905873142193
C            0.35448086588914        1.20344569450244        0.00912860644482
O           -2.44214616270286        3.58001641268342        0.38444752439517
N           -0.99317155444648        1.19333712414047        0.11061344873214
C           -1.88093489097948        2.48975362303462       -0.35005423633976
C           -1.64031300993970       -0.05534805531818        0.20932952301043
O           -2.83610588816608       -0.13626286532980        0.32456997434271
N           -0.86792303009261       -1.29344474258883        0.14533041397063
C           -1.62299258449096       -2.53204054070878        0.20456749832728
H            3.81058569333308        1.00056205715825        0.91033428784822
H            4.22878669611857        0.58734713883328       -0.76352493177226
H            2.92323788918177        1.75528716367041       -0.42332973792852
H            3.63223026475432       -1.98455951750402       -0.16674153910592
H           -3.15745976168358        3.28379298371264        0.96525264854900
H           -1.17404469883462        2.96935693555340       -1.03205875879217
H           -2.68411798390488        1.96811584637047       -0.88467115739255
H           -1.32524368512971       -3.11406581674162        1.07821225614583
H           -1.45754998775804       -3.11638332927309       -0.70192224891508
H           -2.68159184903958       -2.29083840052074        0.28481026537142
H            1.41528839574953       -3.23241371236372       -0.01853635436625

          :  Hamiltonian                  GFN2-xTB          :
         :: total energy             -42.140104632439 Eh    ::
         :: gradient norm              0.003913098973 Eh/a0 ::
         :: HOMO-LUMO gap              1.585894722705 eV    ::
         :: SCC energy               -42.615967789221 Eh    ::
         :: -> dispersion             -0.021554923143 Eh    ::
         :: repulsion energy           0.474167765253 Eh    ::

    * Orbital Energies and Occupations

         #    Occupation            Energy/Eh            Energy/eV
      -------------------------------------------------------------
         1        2.0000           -0.8913957             -24.2561
       ...           ...                  ...                  ...
        25        1.9994           -0.6631259             -18.0446
        26        1.9991           -0.6541514             -17.8004
        27        1.9991           -0.6525704             -17.7573
        28        1.9973           -0.6267471             -17.0547
        29        1.9969           -0.6237438             -16.9729
        30        1.9960           -0.6175630             -16.8047
        31        1.9940           -0.6080396             -16.5456
        32        1.9919           -0.6007830             -16.3481
        33        1.9893           -0.5940331             -16.1645
        34        1.9829           -0.5829011             -15.8615
        35        1.9635           -0.5646202             -15.3641
        36        1.9257           -0.5472974             -14.8927
        37        1.5616           -0.5001472             -13.6097 (HOMO)
        38        0.4689           -0.4418666             -12.0238 (LUMO)
        39        0.0963           -0.3991105             -10.8604
        40        0.0356           -0.3746863             -10.1957
        41        0.0033           -0.3178428              -8.6489
        42        0.0010           -0.2888169              -7.8591
        43        0.0000           -0.2119449              -5.7673
        44        0.0000           -0.1737911              -4.7291
        45        0.0000           -0.1367350              -3.7207
        46        0.0000           -0.0834163              -2.2699
        47        0.0000           -0.0799895              -2.1766
        48                         -0.0581779              -1.5831
       ...                                ...                  ...
        67                          0.4962984              13.5050
      -------------------------------------------------------------
                  HL-Gap            0.0582806 Eh            1.5859 eV

     #   Z          covCN         q      C6AA      α(0)
     1   6 C        3.691    -0.087    22.348     6.765
     2   7 N        2.814     0.057    20.242     6.682
     3   6 C        3.044     0.038    27.119     8.541
     4   7 N        2.752    -0.052    22.252     7.006
     5   6 C        3.032     0.106    25.622     8.303
     6   6 C        3.068     0.019    27.523     8.602
     7   6 C        1.919    -0.086    33.454     9.341
     8   8 O        1.652    -0.355    20.007     6.038
     9   7 N        2.697    -0.061    22.424     7.033
    10   6 C        3.566     0.118    19.425     6.419
    11   6 C        2.707     0.311    21.716     7.628
    12   8 O        0.858    -0.360    20.893     6.128
    13   7 N        2.744    -0.060    22.407     7.030
    14   6 C        3.695    -0.067    21.964     6.705
    15   1 H        0.924     0.106     1.735     2.060
    16   1 H        0.925     0.101     1.779     2.086
    17   1 H        0.925     0.117     1.636     2.001
    18   1 H        0.927     0.112     1.680     2.027
    19   1 H        0.805     0.326     0.647     1.263
    20   1 H        0.924     0.119     1.623     1.992
    21   1 H        0.924     0.095     1.835     2.119
    22   1 H        0.924     0.081     1.973     2.196
    23   1 H        0.924     0.080     1.978     2.199
    24   1 H        0.925     0.123     1.593     1.974
    25   1 H        0.860     0.221     1.004     1.570

Wiberg/Mayer (AO) data.
largest (>0.10) Wiberg bond orders for each atom

     #   Z sym  total        # sym  WBO       # sym  WBO       # sym  WBO
 ---------------------------------------------------------------------------
     1   6 C    3.922 --     2 N    0.994    16 H    0.967    17 H    0.966
                            15 H    0.953
     2   7 N    3.578 --     3 C    1.338     6 C    1.128     1 C    0.994
     3   6 C    3.697 --     2 N    1.338     4 N    1.219    18 H    0.956
     4   7 N    3.555 --     5 C    1.230     3 C    1.219    25 H    0.921
     5   6 C    3.806 --     4 N    1.230     6 C    1.212    13 N    1.201
     6   6 C    3.855 --     7 C    1.299     5 C    1.212     2 N    1.128
     7   6 C    2.727 --     9 N    1.299     6 C    1.299
     8   8 O    2.054 --    10 C    1.088    19 H    0.879
     9   7 N    3.479 --     7 C    1.299    11 C    1.096    10 C    0.838
                            12 O    0.112
    10   6 C    3.885 --     8 O    1.088    20 H    0.958    21 H    0.954
                             9 N    0.838
    11   6 C    3.888 --    12 O    1.697     9 N    1.096    13 N    1.012
    12   8 O    2.008 --    11 C    1.697    13 N    0.120     9 N    0.112
    13   7 N    3.471 --     5 C    1.201    11 C    1.012    14 C    0.983
                            12 O    0.120
    14   6 C    3.920 --    13 N    0.983    23 H    0.967    22 H    0.967
                            24 H    0.961
    15   1 H    0.978 --     1 C    0.953
    16   1 H    0.984 --     1 C    0.967
    17   1 H    0.983 --     1 C    0.966
    18   1 H    0.986 --     3 C    0.956
    19   1 H    0.892 --     8 O    0.879
    20   1 H    0.980 --    10 C    0.958
    21   1 H    0.978 --    10 C    0.954
    22   1 H    0.985 --    14 C    0.967
    23   1 H    0.985 --    14 C    0.967
    24   1 H    0.982 --    14 C    0.961
    25   1 H    0.949 --     4 N    0.921
 ---------------------------------------------------------------------------

molecular dipole:
                 x           y           z       tot (Debye)
 q only:        2.266      -1.472      -0.251
   full:        2.301      -2.325      -0.109       8.320

           -------------------------------------------------
          | TOTAL ENERGY              -42.140104632439 Eh   |
          | GRADIENT NORM               0.003913098973 Eh/α |
          | HOMO-LUMO GAP               1.585894722705 eV   |
           -------------------------------------------------

 * finished run on 2024/06/05 at 19:58:48.447
