   * xtb version 6.6.1 (8d0f1dd) compiled by 'conda@1efc2f54142f' on 2023-08-01
          program call               : xtb xtbopt.xyz --opt crude --input .xc2 --gfn2

   ID    Z sym.   atoms
    1    6 C      1, 3, 5-7, 10, 11, 14
    2    7 N      2, 4, 9, 13
    3    8 O      8, 12
    4    1 H      15-25
########################################################################
[WARNING] Please study the warnings concerning your input carefully
-1- readin_getIntValue: could not parse ''
########################################################################

          :  Hamiltonian                  GFN2-xTB          :
 * total energy  :   -42.1417398 Eh     change       -0.2131628E-12 Eh
 * total energy  :   -42.1646211 Eh     change       -0.2288125E-01 Eh
 * total energy  :   -42.1783654 Eh     change       -0.1374435E-01 Eh
 * total energy  :   -42.1823630 Eh     change       -0.3997574E-02 Eh
 * total energy  :   -42.1836702 Eh     change       -0.1307240E-02 Eh
 * total energy  :   -42.1847875 Eh     change       -0.1117312E-02 Eh
 * total energy  :   -42.1856737 Eh     change       -0.8861289E-03 Eh
 * total energy  :   -42.1863038 Eh     change       -0.6301775E-03 Eh
 * total energy  :   -42.1866549 Eh     change       -0.3511021E-03 Eh
 * total energy  :   -42.1870704 Eh     change       -0.4154552E-03 Eh
   *** GEOMETRY OPTIMIZATION CONVERGED AFTER 10 ITERATIONS ***

 final structure:
================
25
 xtb: 6.6.1 (8d0f1dd)
C            3.45824043743536        0.83627762741916       -0.13734514802131
N            2.41938904978721       -0.15218548317321       -0.09756383803586
C            2.57548449611891       -1.47752109599110        0.02191119759973
N            1.35563540009517       -2.07959087032252        0.09518998846711
C            0.40346681453487       -1.10759036260097        0.02961300327268
C            1.06818803312633        0.12519232480487       -0.10635100606715
C            0.35892402976201        1.30569300557552       -0.28858820999027
O           -2.21193025819874        2.89541633202808        0.79136017701026
N           -0.97600887006546        1.17152171487022       -0.24445014946368
C           -1.80888643080672        2.38509739357773       -0.41721439665554
C           -1.68908709838917        0.00012240757860        0.01878417065706
O           -2.88651108695711        0.00047341432914        0.16458322535086
N           -0.94277815675183       -1.18592007436788        0.08790389052067
C           -1.63397623722709       -2.45032221077323        0.24513030052909
H            3.84871347499679        1.01992953419021        0.86625668163718
H            4.27532307907288        0.50555001575291       -0.77687427000918
H            3.03535166808086        1.76237021727768       -0.52273640645251
H            3.51245509234115       -1.99593117062688        0.05549427800630
H           -2.92745742247248        2.37442076526923        1.18748380709779
H           -1.16936514052450        3.13297587419664       -0.89022107356314
H           -2.64375863522415        2.10945238575846       -1.08440596849589
H           -1.29293425517612       -2.96198778305549        1.14574081099515
H           -1.46946613125225       -3.08340660544135       -0.62905060240033
H           -2.69829719427216       -2.23786907100488        0.33589571954259
H            1.19971685606651       -3.07392974367311        0.18062543636785

          :  Hamiltonian                  GFN2-xTB          :
         :: total energy             -42.187070394545 Eh    ::
         :: gradient norm              0.008223618466 Eh/a0 ::
         :: HOMO-LUMO gap              1.727922930234 eV    ::
         :: SCC energy               -42.687820361142 Eh    ::
         :: -> dispersion             -0.022194772442 Eh    ::
         :: repulsion energy           0.500651473878 Eh    ::

    * Orbital Energies and Occupations

         #    Occupation            Energy/Eh            Energy/eV
      -------------------------------------------------------------
         1        2.0000           -0.8959674             -24.3805
       ...           ...                  ...                  ...
        25        1.9995           -0.6698640             -18.2279
        26        1.9992           -0.6605843             -17.9754
        27        1.9990           -0.6527272             -17.7616
        28        1.9973           -0.6301955             -17.1485
        29        1.9971           -0.6286945             -17.1076
        30        1.9967           -0.6254834             -17.0203
        31        1.9947           -0.6141914             -16.7130
        32        1.9911           -0.6017445             -16.3743
        33        1.9846           -0.5887385             -16.0204
        34        1.9801           -0.5826757             -15.8554
        35        1.9570           -0.5640349             -15.3482
        36        1.9383           -0.5552368             -15.1088
        37        1.6031           -0.5065232             -13.7832 (HOMO)
        38        0.4360           -0.4430232             -12.0553 (LUMO)
        39        0.0975           -0.4027870             -10.9604
        40        0.0298           -0.3738535             -10.1731
        41        0.0007           -0.2856768              -7.7737
        42        0.0000           -0.2018826              -5.4935
        43        0.0000           -0.1885398              -5.1304
        44        0.0000           -0.1346607              -3.6643
        45        0.0000           -0.1261685              -3.4332
        46                         -0.0696017              -1.8940
        47                         -0.0417954              -1.1373
        48                         -0.0368719              -1.0033
       ...                                ...                  ...
        67                          0.5155916              14.0300
      -------------------------------------------------------------
                  HL-Gap            0.0635000 Eh            1.7279 eV

     #   Z          covCN         q      C6AA      α(0)
     1   6 C        3.691    -0.086    22.345     6.764
     2   7 N        2.819     0.058    20.226     6.679
     3   6 C        3.026     0.042    27.039     8.529
     4   7 N        2.772    -0.066    22.510     7.047
     5   6 C        3.035     0.105    25.649     8.307
     6   6 C        3.096     0.028    27.268     8.558
     7   6 C        1.922    -0.093    33.653     9.369
     8   8 O        1.657    -0.373    20.336     6.088
     9   7 N        2.754    -0.040    22.017     6.969
    10   6 C        3.628     0.134    18.793     6.244
    11   6 C        2.726     0.311    21.707     7.627
    12   8 O        0.859    -0.379    21.263     6.182
    13   7 N        2.737    -0.046    22.132     6.987
    14   6 C        3.696    -0.068    21.979     6.706
    15   1 H        0.924     0.106     1.731     2.058
    16   1 H        0.925     0.102     1.767     2.079
    17   1 H        0.925     0.119     1.622     1.992
    18   1 H        0.926     0.114     1.660     2.015
    19   1 H        0.804     0.331     0.634     1.251
    20   1 H        0.924     0.110     1.694     2.035
    21   1 H        0.923     0.078     1.997     2.210
    22   1 H        0.924     0.083     1.947     2.182
    23   1 H        0.924     0.085     1.932     2.173
    24   1 H        0.925     0.124     1.583     1.968
    25   1 H        0.860     0.221     1.006     1.571

Wiberg/Mayer (AO) data.
largest (>0.10) Wiberg bond orders for each atom

     #   Z sym  total        # sym  WBO       # sym  WBO       # sym  WBO
 ---------------------------------------------------------------------------
     1   6 C    3.921 --     2 N    0.993    17 H    0.967    16 H    0.966
                            15 H    0.953
     2   7 N    3.582 --     3 C    1.337     6 C    1.128     1 C    0.993
     3   6 C    3.705 --     2 N    1.337     4 N    1.237    18 H    0.956
     4   7 N    3.544 --     3 C    1.237     5 C    1.199    25 H    0.921
     5   6 C    3.816 --     6 C    1.246    13 N    1.203     4 N    1.199
     6   6 C    3.865 --     7 C    1.280     5 C    1.246     2 N    1.128
     7   6 C    2.715 --     9 N    1.294     6 C    1.280
     8   8 O    2.002 --    10 C    1.055    19 H    0.870
     9   7 N    3.523 --     7 C    1.294    11 C    1.082    10 C    0.918
                            12 O    0.113
    10   6 C    3.901 --     8 O    1.055    20 H    0.951    21 H    0.944
                             9 N    0.918
    11   6 C    3.901 --    12 O    1.666     9 N    1.082    13 N    1.062
    12   8 O    1.980 --    11 C    1.666    13 N    0.120     9 N    0.113
    13   7 N    3.506 --     5 C    1.203    11 C    1.062    14 C    0.976
                            12 O    0.120
    14   6 C    3.918 --    13 N    0.976    22 H    0.968    23 H    0.966
                            24 H    0.964
    15   1 H    0.978 --     1 C    0.953
    16   1 H    0.984 --     1 C    0.966
    17   1 H    0.983 --     1 C    0.967
    18   1 H    0.986 --     3 C    0.956
    19   1 H    0.888 --     8 O    0.870
    20   1 H    0.980 --    10 C    0.951
    21   1 H    0.976 --    10 C    0.944
    22   1 H    0.986 --    14 C    0.968
    23   1 H    0.985 --    14 C    0.966
    24   1 H    0.982 --    14 C    0.964
    25   1 H    0.949 --     4 N    0.921
 ---------------------------------------------------------------------------

molecular dipole:
                 x           y           z       tot (Debye)
 q only:        2.349      -1.610      -0.189
   full:        2.340      -2.480      -0.159       8.675

           -------------------------------------------------
          | TOTAL ENERGY              -42.187070394545 Eh   |
          | GRADIENT NORM               0.008223618466 Eh/α |
          | HOMO-LUMO GAP               1.727922930234 eV   |
           -------------------------------------------------

 * finished run on 2024/06/05 at 19:58:48.854
