   * xtb version 6.6.1 (8d0f1dd) compiled by 'conda@1efc2f54142f' on 2023-08-01
          program call               : xtb struc.xyz --opt loose --input .xc1 --gfn2

   ID    Z sym.   atoms
    1    6 C      1, 3, 5-7, 10, 11, 14
    2    7 N      2, 4, 9, 13
    3    8 O      8, 12
    4    1 H      15-25
constraining bond 2 25 to    3.6866700 Å, actual value:    3.1552271 Å

          :  Hamiltonian                  GFN2-xTB          :
 * total energy  :   -42.7495739 Eh     change       -0.6633627E-10 Eh
 * total energy  :   -44.6699952 Eh     change       -0.1920421E+01 Eh
 * total energy  :   -47.3130070 Eh     change       -0.2643012E+01 Eh
 * total energy  :   -50.8243922 Eh     change       -0.3511385E+01 Eh
 * total energy  :   -54.2777946 Eh     change       -0.3453402E+01 Eh
 * total energy  :   -56.4749870 Eh     change       -0.2197192E+01 Eh
 * total energy  :   -57.4003520 Eh     change       -0.9253650E+00 Eh
 * total energy  :   -58.2490946 Eh     change       -0.8487426E+00 Eh
 * total energy  :   -58.2407806 Eh     change        0.8313985E-02 Eh
 * total energy  :   -58.5234457 Eh     change       -0.2826651E+00 Eh
 * total energy  :   -59.3519305 Eh     change       -0.3203098E-03 Eh
 * total energy  :   -59.3522431 Eh     change       -0.3126756E-03 Eh
 * total energy  :   -59.3524164 Eh     change       -0.1732767E-03 Eh
 * total energy  :   -59.3525552 Eh     change       -0.1388239E-03 Eh
 * total energy  :   -59.3526437 Eh     change       -0.8845812E-04 Eh
 * total energy  :   -59.3527144 Eh     change       -0.7071596E-04 Eh
 * total energy  :   -59.3527951 Eh     change       -0.8064843E-04 Eh
 * total energy  :   -59.3528417 Eh     change       -0.4667051E-04 Eh
 * total energy  :   -59.3528755 Eh     change       -0.3377073E-04 Eh
   *** GEOMETRY OPTIMIZATION CONVERGED AFTER 81 ITERATIONS ***

 final structure:
================
25
 xtb: 6.6.1 (8d0f1dd)
C            3.29085075717766        0.87070674274128        0.32178411885727
N            2.00959864576701       -0.85093857354178       -1.01535954401255
C            2.34081521850634       -0.28129084258878        0.32070331781010
N            1.16223286011815       -2.06754750795281       -0.79884293893135
C            0.22636558924470       -1.36062594068532       -0.21855154287772
C            0.96682958802037       -0.08170287971209       -0.22622865991528
C            0.17624380099062        1.17362157389673       -0.44272519632956
O            0.61251523864165        2.20732192360573       -0.85954736642933
N           -1.11444471419434        0.95812063255846       -0.00958575914629
C           -1.99559045738279        2.12700130479949        0.04079261718001
C           -1.75458050575109       -0.24359858119041        0.33399743858441
O           -2.88603598253348       -0.26323516589203        0.70561531308879
N           -1.03530398669467       -1.45678683184941        0.14755031269619
C           -1.74607207724905       -2.72220846620769        0.20285242019751
H            3.30527684065627        1.32295664874522        1.31068752129930
H            4.30052586572168        0.52463765107972        0.10587913446163
H            3.00591185630422        1.63254037913970       -0.40161362154454
H            2.48492481543410       -1.03309930518305        1.09474705615571
H           -1.39884589701378        3.01504774845597       -0.14727051207667
H           -2.77564337450060        2.03886572197030       -0.71419019281688
H           -2.46337089895044        2.18373913224159        1.02187372730315
H           -1.57051116293891       -3.20567772828522        1.16335779928997
H           -1.38464043223315       -3.36588452817680       -0.59681831373152
H           -2.81065535709216       -2.52866774297775        0.09205529393130
H            2.21403528402200       -0.77505682338513       -1.39999080515924

          :  Hamiltonian                  GFN2-xTB          :
         :: total energy             -59.352875512239 Eh    ::
         :: gradient norm              0.003766771341 Eh/a0 ::
         :: HOMO-LUMO gap              2.898162573408 eV    ::
         :: SCC energy               -42.620008675161 Eh    ::
         :: -> dispersion             -0.022133143984 Eh    ::
         :: repulsion energy           2.063130950891 Eh    ::

    * Orbital Energies and Occupations

         #    Occupation            Energy/Eh            Energy/eV
      -------------------------------------------------------------
         1        2.0000           -0.9521906             -25.9104
       ...           ...                  ...                  ...
        25        2.0000           -0.6804042             -18.5147
        26        2.0000           -0.6734466             -18.3254
        27        2.0000           -0.6526948             -17.7607
        28        2.0000           -0.6448725             -17.5479
        29        2.0000           -0.6442019             -17.5296
        30        2.0000           -0.6382830             -17.3686
        31        2.0000           -0.6294401             -17.1279
        32        2.0000           -0.6194269             -16.8555
        33        2.0000           -0.6169530             -16.7881
        34        1.9999           -0.6006422             -16.3443
        35        1.9996           -0.5928918             -16.1334
        36        1.9995           -0.5897455             -16.0478
        37        1.9981           -0.5795635             -15.7707 (HOMO)
        38        0.0030           -0.4730580             -12.8726 (LUMO)
        39        0.0000           -0.4189758             -11.4009
        40                         -0.3837485             -10.4423
        41                         -0.3360770              -9.1451
        42                         -0.3122235              -8.4960
        43                         -0.2570092              -6.9936
        44                         -0.2142084              -5.8289
        45                         -0.1511266              -4.1124
        46                         -0.1394626              -3.7950
        47                         -0.0918917              -2.5005
        48                         -0.0752157              -2.0467
       ...                                ...                  ...
        67                          5.3118304             144.5423
      -------------------------------------------------------------
                  HL-Gap            0.1065055 Eh            2.8982 eV

     #   Z          covCN         q      C6AA      α(0)
     1   6 C        3.753    -0.144    23.342     6.889
     2   7 N        3.954     0.107    19.404     6.542
     3   6 C        3.802     0.047    19.784     6.333
     4   7 N        2.103    -0.247    27.107     7.724
     5   6 C        3.173     0.159    24.222     8.039
     6   6 C        4.074     0.024    20.088     6.366
     7   6 C        2.760     0.277    22.311     7.735
     8   8 O        0.857    -0.320    20.139     6.017
     9   7 N        2.745    -0.089    22.974     7.119
    10   6 C        3.710    -0.066    21.907     6.689
    11   6 C        2.733     0.323    21.507     7.593
    12   8 O        0.859    -0.305    19.877     5.978
    13   7 N        2.732    -0.040    22.024     6.970
    14   6 C        3.697    -0.072    22.051     6.717
    15   1 H        0.925     0.116     1.643     2.005
    16   1 H        0.925     0.114     1.664     2.017
    17   1 H        0.925     0.108     1.710     2.045
    18   1 H        0.925     0.121     1.609     1.983
    19   1 H        0.925     0.113     1.669     2.020
    20   1 H        0.925     0.102     1.770     2.081
    21   1 H        0.925     0.107     1.724     2.053
    22   1 H        0.925     0.105     1.738     2.062
    23   1 H        0.925     0.106     1.729     2.056
    24   1 H        0.925     0.121     1.607     1.982
    25   1 H        0.867     0.233     0.950     1.527

Wiberg/Mayer (AO) data.
largest (>0.10) Wiberg bond orders for each atom

     #   Z sym  total        # sym  WBO       # sym  WBO       # sym  WBO
 ---------------------------------------------------------------------------
     1   6 C    3.959 --     3 C    1.031    17 H    0.970    15 H    0.955
                            16 H    0.951
     2   7 N    3.682 --     4 N    0.948    25 H    0.928     3 C    0.867
                             6 C    0.832
     3   6 C    3.890 --     1 C    1.031    18 H    0.952     6 C    0.924
                             2 N    0.867
     4   7 N    2.811 --     5 C    1.552     2 N    0.948    13 N    0.147
     5   6 C    3.972 --     4 N    1.552    13 N    1.302     6 C    0.989
     6   6 C    3.869 --     5 C    0.989     7 C    0.950     3 C    0.924
                             2 N    0.832
     7   6 C    3.967 --     8 O    1.762     9 N    1.157     6 C    0.950
     8   8 O    2.126 --     7 C    1.762     9 N    0.172
     9   7 N    3.567 --     7 C    1.157    11 C    1.077    10 C    0.955
                             8 O    0.172    12 O    0.120
    10   6 C    3.910 --    19 H    0.971    21 H    0.968    20 H    0.967
                             9 N    0.955
    11   6 C    3.959 --    12 O    1.777     9 N    1.077    13 N    1.010
    12   8 O    2.139 --    11 C    1.777     9 N    0.120    13 N    0.103
    13   7 N    3.605 --     5 C    1.302    11 C    1.010    14 C    0.958
                             4 N    0.147    12 O    0.103
    14   6 C    3.911 --    23 H    0.969    24 H    0.968    22 H    0.963
                            13 N    0.958
    15   1 H    0.986 --     1 C    0.955
    16   1 H    0.984 --     1 C    0.951
    17   1 H    0.988 --     1 C    0.970
    18   1 H    0.985 --     3 C    0.952
    19   1 H    0.987 --    10 C    0.971
    20   1 H    0.988 --    10 C    0.967
    21   1 H    0.987 --    10 C    0.968
    22   1 H    0.988 --    14 C    0.963
    23   1 H    0.988 --    14 C    0.969
    24   1 H    0.985 --    14 C    0.968
    25   1 H    0.945 --     2 N    0.928
 ---------------------------------------------------------------------------

molecular dipole:
                 x           y           z       tot (Debye)
 q only:        1.601      -0.793       0.106
   full:        1.851      -0.795      -0.033       5.121

           -------------------------------------------------
          | TOTAL ENERGY              -59.352875512239 Eh   |
          | GRADIENT NORM               0.003766771341 Eh/α |
          | HOMO-LUMO GAP               2.898162573408 eV   |
           -------------------------------------------------

 * finished run on 2024/06/05 at 19:58:11.438
