   * xtb version 6.6.1 (8d0f1dd) compiled by 'conda@1efc2f54142f' on 2023-08-01
          program call               : xtb xtbopt.xyz --opt crude --input .xc2 --gfn2

   ID    Z sym.   atoms
    1    6 C      1, 3, 5-7, 10, 11, 14
    2    7 N      2, 4, 9, 13
    3    8 O      8, 12
    4    1 H      15-25
########################################################################
[WARNING] Please study the warnings concerning your input carefully
-1- readin_getIntValue: could not parse ''
########################################################################

          :  Hamiltonian                  GFN2-xTB          :
 * total energy  :   -40.5567006 Eh     change        0.5684342E-13 Eh
 * total energy  :   -42.0490918 Eh     change       -0.1492391E+01 Eh
 * total energy  :   -42.0832031 Eh     change       -0.3411130E-01 Eh
 * total energy  :   -42.0890470 Eh     change       -0.5843870E-02 Eh
 * total energy  :   -42.0895889 Eh     change       -0.5419921E-03 Eh
 * total energy  :   -42.0896901 Eh     change       -0.1011836E-03 Eh
 * total energy  :   -42.0897476 Eh     change       -0.5746666E-04 Eh
 * total energy  :   -42.0897931 Eh     change       -0.4547879E-04 Eh
   *** GEOMETRY OPTIMIZATION CONVERGED AFTER 8 ITERATIONS ***

 final structure:
================
25
 xtb: 6.6.1 (8d0f1dd)
C            3.28760902641246        0.86208026638771        0.35110248302520
N            1.98542118673789       -0.87005698215119       -0.94076743650025
C            2.33433930240257       -0.28827126572527        0.35281288794266
N            1.15006836028586       -2.06905017118269       -0.80244008048086
C            0.21733715164948       -1.36881471470813       -0.20803309494483
C            0.95907145902522       -0.08485767714534       -0.20876082842449
C            0.17041051364518        1.16556909363406       -0.43128543561539
O            0.60676304939838        2.19756650712172       -0.85566059364233
N           -1.12293210796158        0.95577224569865       -0.00123932484024
C           -2.00452689536814        2.12419171414876        0.03624092612078
C           -1.76111632962626       -0.24352270372385        0.35183339071135
O           -2.88937373024882       -0.26228271528990        0.73307872106008
N           -1.04523987444305       -1.45876066265288        0.16005983274012
C           -1.76375078615934       -2.72078131363636        0.22291934269390
H            3.28046518922982        1.33659662281334        1.33040569573663
H            4.30037539773221        0.50782858460287        0.16444430560896
H            3.01850783627625        1.60782193378043       -0.39446829677592
H            2.46644693485880       -1.02972442737381        1.13849509928367
H           -1.40713895335864        3.00959049201653       -0.16307708021355
H           -2.78531023676044        2.02692533307244       -0.71686279901541
H           -2.47072241370463        2.19328449188176        1.01727027886945
H           -1.59803291797103       -3.19526728438239        1.18987969943656
H           -1.40087104419546       -3.37307171746214       -0.56882830077699
H           -2.82712077904250       -2.52289350961156        0.10339703243124
H            2.45975217525610       -0.68163359850678       -1.82934480654592

          :  Hamiltonian                  GFN2-xTB          :
         :: total energy             -42.089793077730 Eh    ::
         :: gradient norm              0.009149652540 Eh/a0 ::
         :: HOMO-LUMO gap              2.928537327609 eV    ::
         :: SCC energy               -42.584136211572 Eh    ::
         :: -> dispersion             -0.022045729607 Eh    ::
         :: repulsion energy           0.494164864788 Eh    ::

    * Orbital Energies and Occupations

         #    Occupation            Energy/Eh            Energy/eV
      -------------------------------------------------------------
         1        2.0000           -0.9415863             -25.6219
       ...           ...                  ...                  ...
        25        2.0000           -0.6762340             -18.4013
        26        2.0000           -0.6682639             -18.1844
        27        2.0000           -0.6496709             -17.6784
        28        2.0000           -0.6421129             -17.4728
        29        2.0000           -0.6413634             -17.4524
        30        2.0000           -0.6346601             -17.2700
        31        2.0000           -0.6268489             -17.0574
        32        2.0000           -0.6167230             -16.7819
        33        2.0000           -0.6121259             -16.6568
        34        1.9999           -0.5971131             -16.2483
        35        1.9997           -0.5896587             -16.0454
        36        1.9996           -0.5860884             -15.9483
        37        1.9982           -0.5748912             -15.6436 (HOMO)
        38        0.0027           -0.4672694             -12.7150 (LUMO)
        39        0.0000           -0.4137873             -11.2597
        40                         -0.3759227             -10.2294
        41                         -0.3294770              -8.9655
        42                         -0.3001842              -8.1684
        43                         -0.2382818              -6.4840
        44                         -0.2093717              -5.6973
        45                         -0.1679000              -4.5688
        46                         -0.1319806              -3.5914
        47                         -0.0906175              -2.4658
        48                         -0.0755574              -2.0560
       ...                                ...                  ...
        67                          0.5418649              14.7449
      -------------------------------------------------------------
                  HL-Gap            0.1076218 Eh            2.9285 eV

     #   Z          covCN         q      C6AA      α(0)
     1   6 C        3.753    -0.142    23.304     6.884
     2   7 N        4.038     0.114    19.280     6.521
     3   6 C        3.799     0.052    19.701     6.320
     4   7 N        2.100    -0.230    26.707     7.667
     5   6 C        3.247     0.161    23.635     7.874
     6   6 C        4.070     0.023    20.106     6.369
     7   6 C        2.760     0.278    22.304     7.734
     8   8 O        0.857    -0.326    20.250     6.033
     9   7 N        2.745    -0.091    23.008     7.124
    10   6 C        3.710    -0.065    21.889     6.686
    11   6 C        2.731     0.324    21.500     7.591
    12   8 O        0.859    -0.308    19.920     5.984
    13   7 N        2.732    -0.043    22.069     6.977
    14   6 C        3.697    -0.071    22.037     6.715
    15   1 H        0.925     0.114     1.660     2.015
    16   1 H        0.925     0.110     1.700     2.039
    17   1 H        0.925     0.105     1.742     2.064
    18   1 H        0.925     0.119     1.621     1.991
    19   1 H        0.925     0.112     1.677     2.025
    20   1 H        0.925     0.100     1.788     2.091
    21   1 H        0.925     0.106     1.734     2.059
    22   1 H        0.925     0.104     1.749     2.068
    23   1 H        0.925     0.105     1.739     2.062
    24   1 H        0.925     0.120     1.616     1.988
    25   1 H        0.859     0.229     0.970     1.543

Wiberg/Mayer (AO) data.
largest (>0.10) Wiberg bond orders for each atom

     #   Z sym  total        # sym  WBO       # sym  WBO       # sym  WBO
 ---------------------------------------------------------------------------
     1   6 C    3.961 --     3 C    1.029    17 H    0.971    15 H    0.957
                            16 H    0.954
     2   7 N    3.717 --     4 N    0.955    25 H    0.912     3 C    0.892
                             6 C    0.857
     3   6 C    3.892 --     1 C    1.029    18 H    0.950     6 C    0.907
                             2 N    0.892
     4   7 N    2.817 --     5 C    1.554     2 N    0.955    13 N    0.146
     5   6 C    3.971 --     4 N    1.554    13 N    1.300     6 C    0.979
     6   6 C    3.875 --     5 C    0.979     7 C    0.955     3 C    0.907
                             2 N    0.857
     7   6 C    3.966 --     8 O    1.758     9 N    1.156     6 C    0.955
     8   8 O    2.120 --     7 C    1.758     9 N    0.170
     9   7 N    3.565 --     7 C    1.156    11 C    1.078    10 C    0.955
                             8 O    0.170    12 O    0.120
    10   6 C    3.912 --    19 H    0.971    20 H    0.968    21 H    0.968
                             9 N    0.955
    11   6 C    3.959 --    12 O    1.775     9 N    1.078    13 N    1.010
    12   8 O    2.136 --    11 C    1.775     9 N    0.120    13 N    0.103
    13   7 N    3.602 --     5 C    1.300    11 C    1.010    14 C    0.958
                             4 N    0.146    12 O    0.103
    14   6 C    3.912 --    23 H    0.970    24 H    0.968    22 H    0.963
                            13 N    0.958
    15   1 H    0.987 --     1 C    0.957
    16   1 H    0.986 --     1 C    0.954
    17   1 H    0.989 --     1 C    0.971
    18   1 H    0.986 --     3 C    0.950
    19   1 H    0.987 --    10 C    0.971
    20   1 H    0.988 --    10 C    0.968
    21   1 H    0.988 --    10 C    0.968
    22   1 H    0.988 --    14 C    0.963
    23   1 H    0.988 --    14 C    0.970
    24   1 H    0.985 --    14 C    0.968
    25   1 H    0.947 --     2 N    0.912
 ---------------------------------------------------------------------------

molecular dipole:
                 x           y           z       tot (Debye)
 q only:        1.727      -0.871      -0.057
   full:        2.007      -0.829      -0.225       5.550

           -------------------------------------------------
          | TOTAL ENERGY              -42.089793077730 Eh   |
          | GRADIENT NORM               0.009149652540 Eh/α |
          | HOMO-LUMO GAP               2.928537327609 eV   |
           -------------------------------------------------

 * finished run on 2024/06/05 at 19:58:11.794
