   * xtb version 6.6.1 (8d0f1dd) compiled by 'conda@1efc2f54142f' on 2023-08-01
          program call               : xtb xtbopt.xyz --opt crude --input .xc2 --gfn2

   ID    Z sym.   atoms
    1    7 N      1, 17
    2    6 C      2-6, 8, 9, 11-16, 18-23, 25, 26, 28-33
    3    8 O      7, 10, 24, 27
    4    1 H      34-72

          :  Hamiltonian                  GFN2-xTB          :
 * total energy  :   -99.3890860 Eh     change       -0.6252776E-12 Eh
   *** GEOMETRY OPTIMIZATION CONVERGED AFTER 1 ITERATIONS ***

 final structure:
================
72
 xtb: 6.6.1 (8d0f1dd)
N           -1.39563038500124        3.07759962797379        0.83696293675138
C           -1.46075864287441        1.66003827172340        0.59988571382429
C           -2.84198707357572        1.46610181160248       -0.05741857805591
C           -3.49362097202853        0.11697517773191        0.14048507113028
C           -4.52784150073004       -0.26996760009077       -0.71372556346760
C           -5.18195839003085       -1.48344183839900       -0.57273437116167
O           -6.17923178495512       -1.92583441723863       -1.35958553027412
C           -6.62228763938010       -1.13241643517181       -2.43581304371050
C           -4.80545313785566       -2.36467986621375        0.47955151815481
O           -5.48537379850843       -3.52094186268148        0.54062827035661
C           -5.20375076332608       -4.43546670717441        1.57531381702686
C           -3.79993343078150       -1.96324483681042        1.34559807818132
C           -3.16140347381232       -0.74267409959979        1.18147553937695
C           -2.48104441147182        1.73365211492613       -1.53423124280026
C           -1.17919054219177        0.96914192006396       -1.74025713993315
C           -0.37723471403745        1.24234597617376       -0.45538523954549
N            0.46259168111998        0.18276395650303        0.02100628603136
C            1.87381939943039        0.39675367808619        0.13694260438142
C            2.67258762560487        0.17280177031298       -1.17261712767897
C            4.13608510839302        0.26160512331897       -0.87280682694211
C            4.84449779397654        1.43929514015711       -1.07050146394883
C            6.18172346456300        1.53219883492138       -0.72100887004998
C            6.84105448279496        0.44914168901622       -0.15282821959564
O            8.12292291669721        0.43031558578182        0.24570566110777
C            8.90653653258027        1.59443045164096        0.11535404731752
C            6.12608054387322       -0.76816107832614        0.04586736334947
O            6.84081879615627       -1.76711621122119        0.59368926911010
C            6.22402277160417       -3.00995520121027        0.83370157063713
C            4.79002423069785       -0.83618228177495       -0.31670522138990
C            0.02279350522260       -1.18174399601968       -0.07286910558983
C           -3.71068067604299        2.61914584908059        0.52255677348251
C           -4.54801670659359        2.19843911499080        1.72828813032984
C           -2.68995554430302        3.69567210406952        0.93390036646226
H           -4.84696134790465        0.40155391657361       -1.49237285867718
H           -7.03975082622273       -0.18235803705535       -2.08875117345622
H           -7.40416992222417       -1.71255765957143       -2.92183365661220
H           -5.81652182655064       -0.94063069520665       -3.15091294775252
H           -5.38650473441770       -3.99456464859672        2.55984692772921
H           -5.88577131850633       -5.26959723900076        1.42138995828178
H           -4.17204280038026       -4.79610476760898        1.52100059656447
H           -3.50476176550387       -2.59723949110982        2.16608781751333
H           -2.40972076729708       -0.47823323896791        1.90689571790187
H           -3.24791923468166        1.42586932788061       -2.23811558399946
H           -2.30408440859632        2.80160922793466       -1.66198848841095
H           -1.39403637421753       -0.09295206860855       -1.84515874513780
H           -0.64091233920406        1.30053809935314       -2.62576501146514
H           -1.30914968853570        1.09285014859899        1.52374399993460
H            0.25457365963855        2.12095578637399       -0.61154846648476
H            2.26152854335000       -0.29062409080263        0.89445329498595
H            2.05036292536441        1.41650972254661        0.48478804967034
H            2.38125723144723        0.92362603868758       -1.90655468881780
H            2.42926352799075       -0.81493847593337       -1.56623014634795
H            4.35271291267486        2.29488859544401       -1.50690810830466
H            6.70663091367081        2.45758297239409       -0.89270075617815
H            8.47875971151114        2.42889127217983        0.67918665215065
H            9.02266312868291        1.88283574456033       -0.93360667841286
H            9.87994055095240        1.33926022991566        0.52983200953082
H            6.99428367746974       -3.63754999935967        1.27810504131750
H            5.38756325762629       -2.91395194909985        1.53335828667378
H            5.87360313329929       -3.46963956914841       -0.09536757899968
H            4.23941698373304       -1.75287664575792       -0.17456968147922
H            0.25005322327555       -1.63750778140521       -1.04614492199710
H           -1.05246630038002       -1.23611391462085        0.08992703719734
H            0.52295947557209       -1.76880112230392        0.69849982099051
H           -4.38292098340975        2.99346716648555       -0.25140096034904
H           -3.91692004671200        1.79986770040055        2.51930860674632
H           -5.27473410928346        1.43821772879565        1.45468258758635
H           -5.08655792198500        3.05902366564964        2.11649006965709
H           -2.72137550039987        4.60017293945610        0.28677485437104
H           -2.68953226973057        6.58405776539437       -0.04993457698373
H           -2.89605713344605        4.05355176135625        1.95050427067241
H           -0.69639090486190        3.39845934057129        1.48782880010700

          :  Hamiltonian                  GFN2-xTB          :
         :: total energy             -99.389086042026 Eh    ::
         :: gradient norm              0.006184909621 Eh/a0 ::
         :: HOMO-LUMO gap              0.602515131159 eV    ::
         :: SCC energy              -100.712467735512 Eh    ::
         :: -> dispersion             -0.075914323715 Eh    ::
         :: repulsion energy           1.322375748140 Eh    ::

    * Orbital Energies and Occupations

         #    Occupation            Energy/Eh            Energy/eV
      -------------------------------------------------------------
         1        2.0000           -0.8156272             -22.1943
       ...           ...                  ...                  ...
        78        1.9973           -0.5346735             -14.5492
        79        1.9968           -0.5324990             -14.4900
        80        1.9964           -0.5302157             -14.4279
        81        1.9962           -0.5293357             -14.4040
        82        1.9950           -0.5250681             -14.2878
        83        1.9945           -0.5235496             -14.2465
        84        1.9923           -0.5183845             -14.1060
        85        1.9666           -0.4948813             -13.4664
        86        1.9637           -0.4935206             -13.4294
        87        1.8714           -0.4727464             -12.8641
        88        1.7857           -0.4639227             -12.6240
        89        1.7743           -0.4630003             -12.5989
        90        1.6330           -0.4539875             -12.3536 (HOMO)
        91        1.0471           -0.4318454             -11.7511 (LUMO)
        92        0.0019           -0.3205765              -8.7233
        93        0.0017           -0.3187819              -8.6745
        94        0.0016           -0.3170727              -8.6280
        95        0.0013           -0.3145205              -8.5585
        96        0.0000           -0.1961285              -5.3369
        97        0.0000           -0.1925169              -5.2387
        98                         -0.1246195              -3.3911
        99                         -0.0948406              -2.5807
       100                         -0.0776793              -2.1138
       101                         -0.0748723              -2.0374
       ...                                ...                  ...
       171                          0.5707104              15.5298
      -------------------------------------------------------------
                  HL-Gap            0.0221420 Eh            0.6025 eV

     #   Z          covCN         q      C6AA      α(0)
     1   7 N        2.701    -0.186    25.020     7.429
     2   6 C        3.835     0.033    19.999     6.362
     3   6 C        3.941     0.009    20.359     6.412
     4   6 C        2.964     0.007    27.850     8.656
     5   6 C        2.922    -0.076    29.891     8.966
     6   6 C        2.861     0.134    25.063     8.206
     7   8 O        1.706    -0.219    17.637     5.670
     8   6 C        3.644     0.025    20.500     6.508
     9   6 C        2.864     0.134    25.061     8.206
    10   8 O        1.706    -0.217    17.598     5.664
    11   6 C        3.645     0.024    20.508     6.508
    12   6 C        2.913    -0.070    29.749     8.944
    13   6 C        2.922    -0.048    29.193     8.860
    14   6 C        3.841    -0.071    21.824     6.646
    15   6 C        3.820    -0.070    21.814     6.647
    16   6 C        3.806     0.021    20.225     6.402
    17   7 N        2.727    -0.096    23.128     7.143
    18   6 C        3.749    -0.006    20.745     6.496
    19   6 C        3.807    -0.072    21.867     6.657
    20   6 C        2.969     0.010    27.788     8.647
    21   6 C        2.921    -0.043    29.069     8.841
    22   6 C        2.913    -0.064    29.605     8.922
    23   6 C        2.864     0.136    25.020     8.199
    24   8 O        1.706    -0.212    17.525     5.652
    25   6 C        3.645     0.022    20.533     6.512
    26   6 C        2.862     0.136    25.024     8.200
    27   8 O        1.706    -0.216    17.594     5.663
    28   6 C        3.645     0.025    20.492     6.506
    29   6 C        2.920    -0.077    29.920     8.970
    30   6 C        3.695    -0.054    21.729     6.669
    31   6 C        3.865    -0.020    20.880     6.498
    32   6 C        3.754    -0.112    22.708     6.795
    33   6 C        3.755     0.000    20.632     6.477
    34   1 H        0.926     0.057     2.230     2.335
    35   1 H        0.924     0.057     2.236     2.338
    36   1 H        0.925     0.085     1.929     2.172
    37   1 H        0.924     0.054     2.269     2.356
    38   1 H        0.924     0.058     2.219     2.330
    39   1 H        0.925     0.085     1.930     2.172
    40   1 H        0.924     0.055     2.254     2.348
    41   1 H        0.926     0.057     2.235     2.338
    42   1 H        0.926     0.047     2.353     2.399
    43   1 H        0.925     0.051     2.310     2.377
    44   1 H        0.925     0.060     2.199     2.319
    45   1 H        0.925     0.050     2.320     2.382
    46   1 H        0.925     0.051     2.304     2.374
    47   1 H        0.924     0.043     2.412     2.429
    48   1 H        0.924     0.063     2.164     2.300
    49   1 H        0.924     0.056     2.252     2.347
    50   1 H        0.924     0.053     2.285     2.364
    51   1 H        0.925     0.053     2.287     2.365
    52   1 H        0.924     0.055     2.253     2.347
    53   1 H        0.926     0.055     2.264     2.353
    54   1 H        0.926     0.063     2.165     2.301
    55   1 H        0.924     0.059     2.214     2.327
    56   1 H        0.924     0.061     2.189     2.314
    57   1 H        0.925     0.086     1.921     2.167
    58   1 H        0.925     0.085     1.931     2.173
    59   1 H        0.924     0.053     2.285     2.364
    60   1 H        0.924     0.057     2.235     2.338
    61   1 H        0.926     0.053     2.280     2.361
    62   1 H        0.923     0.049     2.329     2.387
    63   1 H        0.925     0.066     2.134     2.284
    64   1 H        0.924     0.059     2.216     2.328
    65   1 H        0.924     0.052     2.297     2.370
    66   1 H        0.925     0.044     2.400     2.422
    67   1 H        0.925     0.046     2.365     2.405
    68   1 H        0.925     0.055     2.262     2.352
    69   1 H        0.921     0.077     2.014     2.219
    70   1 H        0.000    -0.111    14.821     7.039
    71   1 H        0.924     0.057     2.236     2.338
    72   1 H        0.860     0.157     1.351     1.821

Wiberg/Mayer (AO) data.
largest (>0.10) Wiberg bond orders for each atom

     #   Z sym  total        # sym  WBO       # sym  WBO       # sym  WBO
 ---------------------------------------------------------------------------
     1   7 N    3.066 --    33 C    1.023     2 C    1.016    72 H    0.950
     2   6 C    3.937 --     1 N    1.016     3 C    0.968    47 H    0.941
                            16 C    0.926
     3   6 C    3.979 --     4 C    0.996    14 C    0.974     2 C    0.968
                            31 C    0.948
     4   6 C    3.930 --    13 C    1.393     5 C    1.376     3 C    0.996
     5   6 C    3.951 --     6 C    1.392     4 C    1.376    34 H    0.955
     6   6 C    3.886 --     5 C    1.392     9 C    1.208     7 O    1.112
     7   8 O    2.252 --     6 C    1.112     8 C    0.976
     8   6 C    3.927 --    36 H    0.976     7 O    0.976    37 H    0.972
                            35 H    0.971
     9   6 C    3.880 --    12 C    1.379     6 C    1.208    10 O    1.116
    10   8 O    2.252 --     9 C    1.116    11 C    0.975
    11   6 C    3.925 --    39 H    0.976    10 O    0.975    40 H    0.972
                            38 H    0.972
    12   6 C    3.951 --    13 C    1.414     9 C    1.379    41 H    0.963
    13   6 C    3.933 --    12 C    1.414     4 C    1.393    42 H    0.957
    14   6 C    3.984 --    15 C    1.007     3 C    0.974    44 H    0.973
                            43 H    0.969
    15   6 C    3.970 --    14 C    1.007    46 H    0.975    16 C    0.973
                            45 H    0.971
    16   6 C    3.949 --    17 N    1.018    15 C    0.973    48 H    0.960
                             2 C    0.926
    17   7 N    3.142 --    18 C    1.021    30 C    1.019    16 C    1.018
    18   6 C    3.960 --    17 N    1.021    50 H    0.968    49 H    0.964
                            19 C    0.947
    19   6 C    3.959 --    20 C    1.020    51 H    0.973    52 H    0.966
                            18 C    0.947
    20   6 C    3.921 --    21 C    1.388    29 C    1.377    19 C    1.020
    21   6 C    3.922 --    22 C    1.426    20 C    1.388    53 H    0.967
    22   6 C    3.946 --    21 C    1.426    23 C    1.371    54 H    0.962
    23   6 C    3.867 --    22 C    1.371    26 C    1.204    24 O    1.121
    24   8 O    2.248 --    23 C    1.121    25 C    0.974
    25   6 C    3.923 --    57 H    0.976    24 O    0.974    55 H    0.971
                            56 H    0.970
    26   6 C    3.877 --    29 C    1.391    23 C    1.204    27 O    1.113
    27   8 O    2.249 --    26 C    1.113    28 C    0.977
    28   6 C    3.927 --    27 O    0.977    58 H    0.976    59 H    0.972
                            60 H    0.971
    29   6 C    3.947 --    26 C    1.391    20 C    1.377    61 H    0.961
    30   6 C    3.963 --    17 N    1.019    64 H    0.974    63 H    0.966
                            62 H    0.958
    31   6 C    3.976 --    32 C    1.009    33 C    0.987    65 H    0.967
                             3 C    0.948
    32   6 C    3.984 --    31 C    1.009    66 H    0.985    68 H    0.982
                            67 H    0.980
    33   6 C    3.917 --     1 N    1.023    31 C    0.987    71 H    0.952
                            69 H    0.911
    34   1 H    0.995 --     5 C    0.955
    35   1 H    0.990 --     8 C    0.971
    36   1 H    0.992 --     8 C    0.976
    37   1 H    0.991 --     8 C    0.972
    38   1 H    0.990 --    11 C    0.972
    39   1 H    0.992 --    11 C    0.976
    40   1 H    0.990 --    11 C    0.972
    41   1 H    0.995 --    12 C    0.963
    42   1 H    0.996 --    13 C    0.957
    43   1 H    0.995 --    14 C    0.969
    44   1 H    0.994 --    14 C    0.973
    45   1 H    0.996 --    15 C    0.971
    46   1 H    0.994 --    15 C    0.975
    47   1 H    0.975 --     2 C    0.941
    48   1 H    0.994 --    16 C    0.960
    49   1 H    0.990 --    18 C    0.964
    50   1 H    0.993 --    18 C    0.968
    51   1 H    0.995 --    19 C    0.973
    52   1 H    0.994 --    19 C    0.966
    53   1 H    0.996 --    21 C    0.967
    54   1 H    0.994 --    22 C    0.962
    55   1 H    0.989 --    25 C    0.971
    56   1 H    0.988 --    25 C    0.970
    57   1 H    0.992 --    25 C    0.976
    58   1 H    0.992 --    28 C    0.976
    59   1 H    0.990 --    28 C    0.972
    60   1 H    0.990 --    28 C    0.971
    61   1 H    0.995 --    29 C    0.961
    62   1 H    0.971 --    30 C    0.958
    63   1 H    0.992 --    30 C    0.966
    64   1 H    0.990 --    30 C    0.974
    65   1 H    0.994 --    31 C    0.967
    66   1 H    0.997 --    32 C    0.985
    67   1 H    0.995 --    32 C    0.980
    68   1 H    0.995 --    32 C    0.982
    69   1 H    0.972 --    33 C    0.911
    70   1 H    0.069
    71   1 H    0.971 --    33 C    0.952
    72   1 H    0.972 --     1 N    0.950
 ---------------------------------------------------------------------------

molecular dipole:
                 x           y           z       tot (Debye)
 q only:        0.623      -0.666       0.157
   full:        0.673      -0.548       0.324       2.353

           -------------------------------------------------
          | TOTAL ENERGY              -99.389086042026 Eh   |
          | GRADIENT NORM               0.006184909621 Eh/α |
          | HOMO-LUMO GAP               0.602515131159 eV   |
           -------------------------------------------------

 * finished run on 2024/04/06 at 11:12:17.311
