   * xtb version 6.6.1 (8d0f1dd) compiled by 'conda@1efc2f54142f' on 2023-08-01
          program call               : xtb struc.xyz --opt loose --input .xc1 --gfn2

   ID    Z sym.   atoms
    1    6 C      1, 3, 5-7, 10, 11, 14
    2    7 N      2, 4, 9, 13
    3    8 O      8, 12
    4    1 H      15-25
constraining bond 8 16 to    5.6333300 Å, actual value:    3.8788743 Å

          :  Hamiltonian                  GFN2-xTB          :
 * total energy  :   -53.2400042 Eh     change       -0.6650680E-10 Eh
 * total energy  :   -64.4958181 Eh     change       -0.1125581E+02 Eh
 * total energy  :   -79.5420135 Eh     change       -0.1504620E+02 Eh
 * total energy  :   -98.7156177 Eh     change       -0.1917360E+02 Eh
 * total energy  :  -121.9100265 Eh     change       -0.2319441E+02 Eh
 * total energy  :  -132.0565241 Eh     change       -0.1014650E+02 Eh
 * total energy  :  -133.0531125 Eh     change       -0.9965884E+00 Eh
 * total energy  :  -135.5087095 Eh     change       -0.2455597E+01 Eh
 * total energy  :  -136.1544488 Eh     change       -0.6457393E+00 Eh
 * total energy  :  -123.2519976 Eh     change        0.1290245E+02 Eh
 * total energy  :  -139.2621983 Eh     change       -0.2853604E-04 Eh
 * total energy  :  -139.2622153 Eh     change       -0.1693462E-04 Eh
 * total energy  :  -139.2622325 Eh     change       -0.1721542E-04 Eh
 * total energy  :  -139.2622449 Eh     change       -0.1241032E-04 Eh
 * total energy  :  -139.2622529 Eh     change       -0.8022588E-05 Eh
 * total energy  :  -139.2622577 Eh     change       -0.4822141E-05 Eh
 * total energy  :  -139.2622611 Eh     change       -0.3367418E-05 Eh
 * total energy  :  -139.2622647 Eh     change       -0.3644350E-05 Eh
 * total energy  :  -139.2622687 Eh     change       -0.3950306E-05 Eh
   *** GEOMETRY OPTIMIZATION CONVERGED AFTER 64 ITERATIONS ***

 final structure:
================
25
 xtb: 6.6.1 (8d0f1dd)
C            3.13486050647598        1.02764119904421        0.44920263235118
N            2.17184562442891        0.02849138783689        0.20880532390980
C            2.46243652424514       -1.27417965787293        0.07876202164311
N            1.32106106181031       -1.99695202052324       -0.01170029428442
C            0.27120913637779       -1.13409734792793        0.05619216322310
C            0.78678380902551        0.15574509045682        0.18420840183619
C           -0.03149707736634        1.29596546903569        0.23309249534794
O            3.30016433605723        1.82454459425468       -1.00118827432834
N           -1.33597670566860        0.99860779478104        0.17871271798280
C           -2.29352448439684        2.08954829352467        0.22438471992615
C           -1.92810947473299       -0.26442356112973        0.08295132392761
O           -3.11887658576924       -0.41696347447321        0.05217820012978
N           -1.05169752004446       -1.36504713677691        0.01093880983583
C           -1.60413457473565       -2.69981650294269       -0.10382929950576
H            2.69059303365877        1.79420113107160        1.08718157788557
H            3.41929963297903        1.66920652830116       -1.21721869475759
H            3.11247932238546        2.77506703418278       -0.78541264908718
H            3.45505849984133       -1.67484222470099        0.08443170990624
H           -1.74548051458476        3.02249009959907        0.31537548353095
H           -2.89918441053453        2.09053556311838       -0.68223464715370
H           -2.96319455326100        1.95880994883636        1.07449185951408
H           -1.31317228750089       -3.30659894326009        0.75438002151359
H           -1.26998845082117       -3.17253642521472       -1.02806793375895
H           -2.68914986631048       -2.60440863616740       -0.12237527704509
H            1.27862653254177       -3.00274966145764       -0.09209077463897

          :  Hamiltonian                  GFN2-xTB          :
         :: total energy            -139.262268696952 Eh    ::
         :: gradient norm              0.002131084563 Eh/a0 ::
         :: HOMO-LUMO gap              1.630348978268 eV    ::
         :: SCC energy               -42.587496360840 Eh    ::
         :: -> dispersion             -0.022494621093 Eh    ::
         :: repulsion energy           5.224632350271 Eh    ::

    * Orbital Energies and Occupations

         #    Occupation            Energy/Eh            Energy/eV
      -------------------------------------------------------------
         1        2.0000           -0.9459863             -25.7416
       ...           ...                  ...                  ...
        25        2.0000           -0.6578680             -17.9015
        26        2.0000           -0.6446087             -17.5407
        27        2.0000           -0.6334208             -17.2363
        28        2.0000           -0.6276710             -17.0798
        29        1.9999           -0.6132709             -16.6879
        30        1.9999           -0.6116153             -16.6429
        31        1.9998           -0.6077305             -16.5372
        32        1.9996           -0.5904851             -16.0679
        33        1.9982           -0.5686200             -15.4729
        34        1.9979           -0.5659401             -15.4000
        35        1.9871           -0.5372079             -14.6182
        36        1.8596           -0.4983319             -13.5603
        37        1.7943           -0.4917171             -13.3803 (HOMO)
        38        0.3309           -0.4318029             -11.7500 (LUMO)
        39        0.0284           -0.3902651             -10.6197
        40        0.0044           -0.3606786              -9.8146
        41        0.0001           -0.2940391              -8.0012
        42        0.0000           -0.2590549              -7.0492
        43                         -0.1815058              -4.9390
        44                         -0.1654636              -4.5025
        45                         -0.1128810              -3.0716
        46                         -0.0937458              -2.5510
        47                         -0.0931784              -2.5355
        48                         -0.0486214              -1.3231
       ...                                ...                  ...
        67                         10.9797295             298.7736
      -------------------------------------------------------------
                  HL-Gap            0.0599142 Eh            1.6303 eV

     #   Z          covCN         q      C6AA      α(0)
     1   6 C        2.574    -0.128    31.300     9.146
     2   7 N        2.821     0.041    20.519     6.728
     3   6 C        3.040     0.053    26.780     8.488
     4   7 N        2.777    -0.066    22.523     7.049
     5   6 C        3.043     0.111    25.524     8.286
     6   6 C        3.103     0.015    27.538     8.599
     7   6 C        1.923    -0.141    35.088     9.566
     8   8 O        2.334    -0.337    19.615     5.982
     9   7 N        2.761    -0.002    21.309     6.856
    10   6 C        3.718    -0.065    21.868     6.680
    11   6 C        2.733     0.309    21.749     7.635
    12   8 O        0.859    -0.379    21.257     6.182
    13   7 N        2.739    -0.057    22.349     7.021
    14   6 C        3.696    -0.065    21.919     6.697
    15   1 H        0.924     0.066     2.134     2.284
    16   1 H        0.812     0.381     0.520     1.132
    17   1 H        0.801     0.380     0.523     1.136
    18   1 H        0.926     0.117     1.638     2.002
    19   1 H        0.925     0.096     1.823     2.111
    20   1 H        0.924     0.091     1.867     2.137
    21   1 H        0.925     0.094     1.839     2.120
    22   1 H        0.924     0.077     2.014     2.220
    23   1 H        0.924     0.075     2.033     2.230
    24   1 H        0.925     0.120     1.616     1.988
    25   1 H        0.860     0.216     1.029     1.589

Wiberg/Mayer (AO) data.
largest (>0.10) Wiberg bond orders for each atom

     #   Z sym  total        # sym  WBO       # sym  WBO       # sym  WBO
 ---------------------------------------------------------------------------
     1   6 C    2.692 --     2 N    1.030    15 H    0.963     8 O    0.629
     2   7 N    3.602 --     3 C    1.332     6 C    1.097     1 C    1.030
     3   6 C    3.738 --     2 N    1.332     4 N    1.267    18 H    0.955
     4   7 N    3.575 --     3 C    1.267     5 C    1.192    25 H    0.923
     5   6 C    3.896 --     6 C    1.294    13 N    1.217     4 N    1.192
     6   6 C    3.886 --     5 C    1.294     7 C    1.252     2 N    1.097
     7   6 C    2.780 --     9 N    1.339     6 C    1.252
     8   8 O    2.364 --    16 H    0.854    17 H    0.849     1 C    0.629
     9   7 N    3.609 --     7 C    1.339    11 C    1.083    10 C    0.982
                            12 O    0.118
    10   6 C    3.933 --     9 N    0.982    19 H    0.977    20 H    0.965
                            21 H    0.964
    11   6 C    3.939 --    12 O    1.700     9 N    1.083    13 N    1.053
    12   8 O    2.039 --    11 C    1.700    13 N    0.132     9 N    0.118
    13   7 N    3.552 --     5 C    1.217    11 C    1.053    14 C    0.977
                            12 O    0.132
    14   6 C    3.932 --    13 N    0.977    23 H    0.972    22 H    0.971
                            24 H    0.966
    15   1 H    0.983 --     1 C    0.963
    16   1 H    0.855 --     8 O    0.854
    17   1 H    0.854 --     8 O    0.849
    18   1 H    0.985 --     3 C    0.955
    19   1 H    0.990 --    10 C    0.977
    20   1 H    0.987 --    10 C    0.965
    21   1 H    0.986 --    10 C    0.964
    22   1 H    0.992 --    14 C    0.971
    23   1 H    0.992 --    14 C    0.972
    24   1 H    0.985 --    14 C    0.966
    25   1 H    0.952 --     4 N    0.923
 ---------------------------------------------------------------------------

molecular dipole:
                 x           y           z       tot (Debye)
 q only:        3.171       0.061      -0.754
   full:        2.890      -0.571      -1.080       7.976

           -------------------------------------------------
          | TOTAL ENERGY             -139.262268696952 Eh   |
          | GRADIENT NORM               0.002131084563 Eh/α |
          | HOMO-LUMO GAP               1.630348978268 eV   |
           -------------------------------------------------

 * finished run on 2024/06/05 at 19:58:08.095
