   * xtb version 6.6.1 (8d0f1dd) compiled by 'conda@1efc2f54142f' on 2023-08-01
          program call               : xtb struc.xyz --opt loose --input .xc1 --gfn2

   ID    Z sym.   atoms
    1    6 C      1, 3, 5-7, 10, 11, 14
    2    7 N      2, 4, 9, 13
    3    8 O      8, 12
    4    1 H      15-25
constraining bond 5 23 to    5.1400000 Å, actual value:    2.7817644 Å

          :  Hamiltonian                  GFN2-xTB          :
 * total energy  :    -2.5285174 Eh     change       -0.6650680E-10 Eh
 * total energy  :   -21.8661547 Eh     change       -0.1933764E+02 Eh
 * total energy  :   -32.9007691 Eh     change       -0.1103461E+02 Eh
 * total energy  :   -39.0013869 Eh     change       -0.6100618E+01 Eh
 * total energy  :   -41.3751529 Eh     change       -0.2373766E+01 Eh
 * total energy  :   -41.7424694 Eh     change       -0.3673165E+00 Eh
 * total energy  :   -41.7664400 Eh     change       -0.2397053E-01 Eh
 * total energy  :   -41.7781645 Eh     change       -0.1172450E-01 Eh
 * total energy  :   -41.7952139 Eh     change       -0.1704941E-01 Eh
 * total energy  :   -41.8063738 Eh     change       -0.1115994E-01 Eh
 * total energy  :   -42.1004468 Eh     change       -0.2679567E-02 Eh
 * total energy  :   -42.1016613 Eh     change       -0.1214424E-02 Eh
 * total energy  :   -42.1021915 Eh     change       -0.5302566E-03 Eh
 * total energy  :   -42.1025991 Eh     change       -0.4075438E-03 Eh
 * total energy  :   -42.1027748 Eh     change       -0.1757594E-03 Eh
 * total energy  :   -42.1028866 Eh     change       -0.1117495E-03 Eh
 * total energy  :   -42.1029533 Eh     change       -0.6672971E-04 Eh
 * total energy  :   -42.1029942 Eh     change       -0.4089132E-04 Eh
 * total energy  :   -42.1030255 Eh     change       -0.3129088E-04 Eh
   *** GEOMETRY OPTIMIZATION CONVERGED AFTER 33 ITERATIONS ***

 final structure:
================
25
 xtb: 6.6.1 (8d0f1dd)
C            3.25262921783788        1.23110089413793        0.00167438738424
N            2.31672609650075        0.14058524086872        0.06005390476753
C            2.60927617608602       -1.15352448418006        0.11945725457845
N            1.47586124991267       -1.88217713041246        0.16544985797848
C            0.41375253649821       -1.01157193273872        0.14063809008017
C            0.94859921044199        0.26935503474888        0.07296245111262
C            0.12086901066989        1.45330924257359        0.00932024621184
O            0.51695884697406        2.59397447737605       -0.05975752860689
N           -1.23838497203806        1.11817672841228        0.03159265299833
C           -2.19605562247308        2.21936256859229       -0.02841886872510
C           -1.81133576613739       -0.12166361926721        0.10509886495574
O           -2.99229618800847       -0.31233609539460        0.12155351825992
N           -0.91441567068723       -1.27218093297920        0.16578665333169
C           -1.47223252312192       -2.48955087104150        0.24444397002077
H            3.75376571821137        1.35296683045786        0.96299940281751
H            4.00340028059488        1.04209357293619       -0.76435570850191
H            2.71026876248951        2.14749421200953       -0.22838188354909
H            3.60014546276064       -1.56432373801097        0.11845123421233
H           -1.63673455874953        3.15147621097733       -0.03659396171950
H           -2.79952419463526        2.13507246383893       -0.93143260405057
H           -2.85691222455702        2.17933835277381        0.83633752593485
H           -0.86579114879850       -3.36969332178563        0.29851055654520
H           -2.66591658329521       -4.61278729530032       -1.85154466738796
H           -2.54360537748957       -2.53638437330245        0.26381815414386
H            1.43138377511350       -2.88987349369027        0.21350811510739

          :  Hamiltonian                  GFN2-xTB          :
         :: total energy             -42.103025496059 Eh    ::
         :: gradient norm              0.003965998496 Eh/a0 ::
         :: HOMO-LUMO gap              0.196347762059 eV    ::
         :: SCC energy               -42.626852324791 Eh    ::
         :: -> dispersion             -0.022622807542 Eh    ::
         :: repulsion energy           0.523732167551 Eh    ::

    * Orbital Energies and Occupations

         #    Occupation            Energy/Eh            Energy/eV
      -------------------------------------------------------------
         1        2.0000           -0.9188454             -25.0031
       ...           ...                  ...                  ...
        25        2.0000           -0.6703219             -18.2404
        26        2.0000           -0.6699815             -18.2311
        27        2.0000           -0.6610061             -17.9869
        28        1.9999           -0.6374555             -17.3460
        29        1.9998           -0.6333569             -17.2345
        30        1.9998           -0.6293648             -17.1259
        31        1.9996           -0.6209897             -16.8980
        32        1.9986           -0.5999908             -16.3266
        33        1.9976           -0.5911708             -16.0866
        34        1.9968           -0.5866160             -15.9626
        35        1.9879           -0.5656430             -15.3919
        36        1.9867           -0.5641741             -15.3520
        37        1.0759           -0.4872578             -13.2590 (HOMO)
        38        0.8493           -0.4800421             -13.0626 (LUMO)
        39        0.0963           -0.4376048             -11.9078
        40        0.0099           -0.4009082             -10.9093
        41        0.0019           -0.3748929             -10.2014
        42        0.0000           -0.2900800              -7.8935
        43                         -0.2150096              -5.8507
        44                         -0.2022214              -5.5027
        45                         -0.1522368              -4.1426
        46                         -0.1363673              -3.7107
        47                         -0.0691432              -1.8815
        48                         -0.0417311              -1.1356
       ...                                ...                  ...
        67                          0.5554495              15.1145
      -------------------------------------------------------------
                  HL-Gap            0.0072156 Eh            0.1963 eV

     #   Z          covCN         q      C6AA      α(0)
     1   6 C        3.692    -0.096    22.533     6.793
     2   7 N        2.832     0.085    19.759     6.602
     3   6 C        3.051     0.055    26.729     8.479
     4   7 N        2.790    -0.056    22.323     7.017
     5   6 C        3.039     0.093    25.905     8.348
     6   6 C        3.113    -0.016    28.252     8.707
     7   6 C        2.763     0.267    22.492     7.767
     8   8 O        0.858    -0.364    20.975     6.140
     9   7 N        2.744    -0.079    22.766     7.087
    10   6 C        3.713    -0.064    21.870     6.682
    11   6 C        2.734     0.311    21.721     7.630
    12   8 O        0.859    -0.336    20.444     6.062
    13   7 N        2.735     0.009    21.100     6.822
    14   6 C        2.797    -0.057    29.400     8.883
    15   1 H        0.924     0.111     1.684     2.030
    16   1 H        0.925     0.107     1.725     2.054
    17   1 H        0.925     0.139     1.468     1.894
    18   1 H        0.926     0.128     1.548     1.945
    19   1 H        0.925     0.116     1.643     2.005
    20   1 H        0.925     0.098     1.799     2.097
    21   1 H        0.925     0.100     1.788     2.091
    22   1 H        0.927     0.089     1.885     2.147
    23   1 H        0.000    -0.005     7.857     5.125
    24   1 H        0.926     0.135     1.498     1.914
    25   1 H        0.860     0.230     0.965     1.539

Wiberg/Mayer (AO) data.
largest (>0.10) Wiberg bond orders for each atom

     #   Z sym  total        # sym  WBO       # sym  WBO       # sym  WBO
 ---------------------------------------------------------------------------
     1   6 C    3.912 --     2 N    0.985    16 H    0.963    17 H    0.959
                            15 H    0.954
     2   7 N    3.673 --     3 C    1.386     6 C    1.165     1 C    0.985
     3   6 C    3.844 --     2 N    1.386     4 N    1.289    18 H    0.951
     4   7 N    3.555 --     3 C    1.289     5 C    1.165    25 H    0.918
     5   6 C    3.886 --     6 C    1.339     4 N    1.165    13 N    1.164
     6   6 C    3.857 --     5 C    1.339     2 N    1.165     7 C    1.074
     7   6 C    3.917 --     8 O    1.676     9 N    1.080     6 C    1.074
     8   8 O    1.989 --     7 C    1.676     9 N    0.138
     9   7 N    3.568 --    11 C    1.170     7 C    1.080    10 C    0.962
                            12 O    0.151     8 O    0.138
    10   6 C    3.911 --    19 H    0.968    21 H    0.966    20 H    0.965
                             9 N    0.962
    11   6 C    3.925 --    12 O    1.729     9 N    1.170    13 N    0.931
    12   8 O    2.058 --    11 C    1.729     9 N    0.151
    13   7 N    3.623 --    14 C    1.303     5 C    1.164    11 C    0.931
    14   6 C    3.348 --    13 N    1.303    22 H    0.969    24 H    0.958
    15   1 H    0.984 --     1 C    0.954
    16   1 H    0.986 --     1 C    0.963
    17   1 H    0.980 --     1 C    0.959
    18   1 H    0.982 --     3 C    0.951
    19   1 H    0.985 --    10 C    0.968
    20   1 H    0.986 --    10 C    0.965
    21   1 H    0.986 --    10 C    0.966
    22   1 H    0.991 --    14 C    0.969
    23   1 H    0.011
    24   1 H    0.981 --    14 C    0.958
    25   1 H    0.947 --     4 N    0.918
 ---------------------------------------------------------------------------

molecular dipole:
                 x           y           z       tot (Debye)
 q only:        2.692      -1.663       0.255
   full:        2.968      -2.247       0.287       9.490

           -------------------------------------------------
          | TOTAL ENERGY              -42.103025496059 Eh   |
          | GRADIENT NORM               0.003965998496 Eh/α |
          | HOMO-LUMO GAP               0.196347762059 eV   |
           -------------------------------------------------

 * finished run on 2024/06/05 at 20:00:11.579
