   * xtb version 6.6.1 (8d0f1dd) compiled by 'conda@1efc2f54142f' on 2023-08-01
          program call               : xtb struc.xyz --opt loose --input .xc1 --gfn2

   ID    Z sym.   atoms
    1    6 C      1, 3, 5-7, 10, 11, 14
    2    7 N      2, 4, 9, 13
    3    8 O      8, 12
    4    1 H      15-25
constraining bond 10 11 to    5.0000000 Å, actual value:    2.3893559 Å

          :  Hamiltonian                  GFN2-xTB          :
 * total energy  :   -30.0786315 Eh     change       -0.6650680E-10 Eh
 * total energy  :   -34.4354075 Eh     change       -0.4356776E+01 Eh
 * total energy  :   -37.8384056 Eh     change       -0.3402998E+01 Eh
 * total energy  :   -40.0402996 Eh     change       -0.2201894E+01 Eh
 * total energy  :   -41.2318134 Eh     change       -0.1191514E+01 Eh
 * total energy  :   -41.5620587 Eh     change       -0.3302453E+00 Eh
 * total energy  :   -41.6093989 Eh     change       -0.4734022E-01 Eh
 * total energy  :   -41.6356921 Eh     change       -0.2629312E-01 Eh
 * total energy  :   -41.6576505 Eh     change       -0.2195842E-01 Eh
 * total energy  :   -41.6909120 Eh     change       -0.3326156E-01 Eh
 * total energy  :   -42.1093400 Eh     change       -0.1026124E-03 Eh
 * total energy  :   -42.1093889 Eh     change       -0.4889449E-04 Eh
 * total energy  :   -42.1094671 Eh     change       -0.7822154E-04 Eh
 * total energy  :   -42.1095388 Eh     change       -0.7166268E-04 Eh
 * total energy  :   -42.1095819 Eh     change       -0.4313805E-04 Eh
 * total energy  :   -42.1096294 Eh     change       -0.4752852E-04 Eh
 * total energy  :   -42.1096624 Eh     change       -0.3298387E-04 Eh
 * total energy  :   -42.1096965 Eh     change       -0.3405536E-04 Eh
 * total energy  :   -42.1097425 Eh     change       -0.4606355E-04 Eh
   *** GEOMETRY OPTIMIZATION CONVERGED AFTER 68 ITERATIONS ***

 final structure:
================
25
 xtb: 6.6.1 (8d0f1dd)
C            2.68798163883278        1.31798495582841        0.00013454016955
N            1.93688893668532        0.09326483728334        0.03449512838448
C            2.41737872458454       -1.14416340983772       -0.08144222150355
N            1.40161304820189       -2.01779287020138        0.03126961545911
C            0.24093401085894       -1.29158231540049        0.21662284288778
C            0.58409052828550        0.03648057396056        0.21075693251142
C           -0.25624260318815        1.29571090304821        0.44123718311816
O           -0.28324918495548        1.74190307346402        1.58608168338383
N           -0.80077362761020        1.71276728121008       -0.66489985258803
C           -1.58542455064091        2.89481208198227       -0.73480221584420
C           -1.67750200718645       -1.57994992533704        1.49200727437199
O           -2.19764539279656       -1.22763305938276        2.46298651531626
N           -1.01011095361253       -1.90497608479202        0.45531215568395
C           -1.51777855235333       -2.87560903576735       -0.52859069973398
H            2.45530010679690        1.90940562190680        0.88793748767036
H            3.75270299222498        1.10016421738494       -0.02744782065135
H            2.40851094666228        1.90146338718815       -0.87845913249114
H            3.44471206535034       -1.40692087890590       -0.23704743521773
H           -0.97873249123343        3.78420460661341       -0.53656964415190
H           -1.99776371560308        2.96098172758110       -1.74164022805465
H           -2.40290453588947        2.87817869033085       -0.00586709559971
H           -1.06170390218457       -3.85466624906238       -0.37303864451350
H           -1.28950547179348       -2.51373839636860       -1.53027417300447
H           -2.59605253239344       -2.97005399228293       -0.42173452181795
H            1.48570803707990       -3.02199719859685       -0.02585605576737

          :  Hamiltonian                  GFN2-xTB          :
         :: total energy             -42.109742545415 Eh    ::
         :: gradient norm              0.002732536613 Eh/a0 ::
         :: HOMO-LUMO gap              1.285662952887 eV    ::
         :: SCC energy               -42.654477400703 Eh    ::
         :: -> dispersion             -0.021492461354 Eh    ::
         :: repulsion energy           0.544500760596 Eh    ::

    * Orbital Energies and Occupations

         #    Occupation            Energy/Eh            Energy/eV
      -------------------------------------------------------------
         1        2.0000           -0.9300111             -25.3069
       ...           ...                  ...                  ...
        25        2.0000           -0.6557301             -17.8433
        26        2.0000           -0.6481225             -17.6363
        27        2.0000           -0.6418681             -17.4661
        28        2.0000           -0.6359412             -17.3048
        29        1.9999           -0.6304402             -17.1552
        30        1.9999           -0.6209258             -16.8963
        31        1.9998           -0.6100930             -16.6015
        32        1.9992           -0.5903733             -16.0649
        33        1.9991           -0.5884151             -16.0116
        34        1.9985           -0.5801652             -15.7871
        35        1.9532           -0.5250961             -14.2886
        36        1.7523           -0.4969947             -13.5239
        37        1.7082           -0.4939935             -13.4422 (HOMO)
        38        0.4570           -0.4467462             -12.1566 (LUMO)
        39        0.1026           -0.4198146             -11.4237
        40        0.0261           -0.3975024             -10.8166
        41        0.0040           -0.3677724             -10.0076
        42        0.0002           -0.3198540              -8.7037
        43        0.0000           -0.2310113              -6.2861
        44                         -0.1879037              -5.1131
        45                         -0.1380496              -3.7565
        46                         -0.0777972              -2.1170
        47                         -0.0506436              -1.3781
        48                         -0.0441539              -1.2015
       ...                                ...                  ...
        67                          0.9161236              24.9290
      -------------------------------------------------------------
                  HL-Gap            0.0472472 Eh            1.2857 eV

     #   Z          covCN         q      C6AA      α(0)
     1   6 C        3.693    -0.086    22.324     6.760
     2   7 N        2.861     0.083    19.803     6.609
     3   6 C        3.033     0.048    26.889     8.505
     4   7 N        2.798    -0.059    22.370     7.025
     5   6 C        3.066     0.080    26.143     8.384
     6   6 C        3.091     0.011    27.656     8.620
     7   6 C        2.760     0.275    22.356     7.743
     8   8 O        0.858    -0.419    22.069     6.298
     9   7 N        1.834    -0.267    27.793     7.812
    10   6 C        3.700    -0.021    21.108     6.570
    11   6 C        1.825     0.284    24.696     8.029
    12   8 O        0.856    -0.103    16.557     5.456
    13   7 N        2.727     0.019    20.926     6.794
    14   6 C        3.701    -0.081    22.208     6.739
    15   1 H        0.924     0.123     1.590     1.972
    16   1 H        0.925     0.101     1.774     2.083
    17   1 H        0.924     0.114     1.664     2.017
    18   1 H        0.926     0.123     1.587     1.970
    19   1 H        0.924     0.078     2.000     2.212
    20   1 H        0.925     0.078     1.998     2.210
    21   1 H        0.924     0.077     2.013     2.219
    22   1 H        0.924     0.097     1.813     2.106
    23   1 H        0.925     0.108     1.713     2.046
    24   1 H        0.925     0.110     1.694     2.036
    25   1 H        0.860     0.225     0.986     1.556

Wiberg/Mayer (AO) data.
largest (>0.10) Wiberg bond orders for each atom

     #   Z sym  total        # sym  WBO       # sym  WBO       # sym  WBO
 ---------------------------------------------------------------------------
     1   6 C    3.923 --     2 N    0.988    16 H    0.975    15 H    0.957
                            17 H    0.957
     2   7 N    3.689 --     3 C    1.352     6 C    1.208     1 C    0.988
     3   6 C    3.826 --     2 N    1.352     4 N    1.301    18 H    0.952
     4   7 N    3.556 --     3 C    1.301     5 C    1.156    25 H    0.921
     5   6 C    3.851 --     6 C    1.497     4 N    1.156    13 N    0.983
     6   6 C    3.887 --     5 C    1.497     2 N    1.208     7 C    0.890
     7   6 C    3.930 --     8 O    1.547     9 N    1.433     6 C    0.890
     8   8 O    1.831 --     7 C    1.547     9 N    0.176
     9   7 N    2.709 --     7 C    1.433    10 C    1.053     8 O    0.176
    10   6 C    3.910 --     9 N    1.053    20 H    0.957    21 H    0.934
                            19 H    0.934
    11   6 C    3.551 --    12 O    2.046    13 N    1.425
    12   8 O    2.294 --    11 C    2.046    13 N    0.187
    13   7 N    3.571 --    11 C    1.425     5 C    0.983    14 C    0.923
                            12 O    0.187
    14   6 C    3.885 --    24 H    0.974    23 H    0.972    22 H    0.971
                            13 N    0.923
    15   1 H    0.983 --     1 C    0.957
    16   1 H    0.989 --     1 C    0.975
    17   1 H    0.985 --     1 C    0.957
    18   1 H    0.984 --     3 C    0.952
    19   1 H    0.950 --    10 C    0.934
    20   1 H    0.967 --    10 C    0.957
    21   1 H    0.948 --    10 C    0.934
    22   1 H    0.990 --    14 C    0.971
    23   1 H    0.987 --    14 C    0.972
    24   1 H    0.987 --    14 C    0.974
    25   1 H    0.948 --     4 N    0.921
 ---------------------------------------------------------------------------

molecular dipole:
                 x           y           z       tot (Debye)
 q only:        1.716      -3.179      -1.071
   full:        1.835      -3.445      -1.035      10.264

           -------------------------------------------------
          | TOTAL ENERGY              -42.109742545415 Eh   |
          | GRADIENT NORM               0.002732536613 Eh/α |
          | HOMO-LUMO GAP               1.285662952887 eV   |
           -------------------------------------------------

 * finished run on 2024/06/05 at 19:58:26.069
