   * xtb version 6.6.1 (8d0f1dd) compiled by 'conda@1efc2f54142f' on 2023-08-01
          program call               : xtb struc.xyz --opt loose --input .xc1 --gfn2

   ID    Z sym.   atoms
    1    7 N      1, 17
    2    6 C      2-6, 8, 9, 11-16, 18-23, 25, 26, 28-33
    3    8 O      7, 10, 24, 27
    4    1 H      34-72
constraining bond 9 45 to    7.7133300 Å, actual value:    3.9627477 Å

          :  Hamiltonian                  GFN2-xTB          :
 * total energy  :  -101.9158153 Eh     change       -0.4035485E-08 Eh
 * total energy  :  -102.8274789 Eh     change       -0.9116636E+00 Eh
 * total energy  :  -103.8233811 Eh     change       -0.9959022E+00 Eh
 * total energy  :  -104.9525448 Eh     change       -0.1129164E+01 Eh
 * total energy  :  -106.2978279 Eh     change       -0.1345283E+01 Eh
 * total energy  :  -107.5122942 Eh     change       -0.1214466E+01 Eh
 * total energy  :  -107.5973266 Eh     change       -0.8503234E-01 Eh
 * total energy  :  -107.6335182 Eh     change       -0.3619163E-01 Eh
 * total energy  :  -107.5940498 Eh     change        0.3946841E-01 Eh
 * total energy  :  -107.6584303 Eh     change       -0.6438049E-01 Eh
 * total energy  :  -107.9272622 Eh     change       -0.1430551E-03 Eh
 * total energy  :  -107.9273866 Eh     change       -0.1243935E-03 Eh
 * total energy  :  -107.9274807 Eh     change       -0.9411611E-04 Eh
 * total energy  :  -107.9275891 Eh     change       -0.1083478E-03 Eh
 * total energy  :  -107.9276707 Eh     change       -0.8165490E-04 Eh
 * total energy  :  -107.9277760 Eh     change       -0.1053026E-03 Eh
 * total energy  :  -107.9278488 Eh     change       -0.7275377E-04 Eh
 * total energy  :  -107.9278996 Eh     change       -0.5078355E-04 Eh
 * total energy  :  -107.9279490 Eh     change       -0.4944946E-04 Eh
   *** GEOMETRY OPTIMIZATION CONVERGED AFTER 86 ITERATIONS ***

 final structure:
================
72
 xtb: 6.6.1 (8d0f1dd)
N           -2.54342209705593        3.04406715853477        2.53232250411663
C           -2.27067845255223        2.13299407891834        1.72174336296911
C           -3.12195898278543        1.79464283051056        0.52543472742467
C           -3.64972650951765        0.38507743949287        0.64951599814080
C           -4.27843022186902       -0.22873646112201       -0.44355382022562
C           -4.76815107619485       -1.50595085977146       -0.37321362794337
O           -5.33976733959354       -2.18495139435451       -1.37491086388260
C           -5.60080298639742       -1.54356986235601       -2.60874849617384
C           -4.77942581584905       -2.32741838145238        0.91484569650767
O           -6.17893423038565       -2.28318409617224        1.38224416188917
C           -6.94326879628696       -3.39121908970276        0.97492417208093
C           -4.01532856781898       -1.59618654563674        1.99236819190513
C           -3.53598540050930       -0.34059453582304        1.85851464221308
C           -2.14218617347992        1.88438573652807       -0.69412168322779
C           -1.18080109980856        0.74512556790789       -0.73322149549469
C            0.11900219008130        0.86836031788243       -0.40686300315392
N            1.02621291417822       -0.13795643949987       -0.33407085644969
C            2.42152266441833        0.12909654662519       -0.11588012851500
C            3.25086841695097        0.08765273245759       -1.41856143820413
C            4.70909245698254        0.22960193946266       -1.09582186376860
C            5.33531996005392        1.46704071342094       -1.13020613029716
C            6.67087181975557        1.59816912299375       -0.78447532212521
C            7.41136291370885        0.49202461564155       -0.38800318173170
O            8.70450115193441        0.50162859760233       -0.02137763554179
C            9.41831825095075        1.71702995030323       -0.03698266746471
C            6.77936794876589       -0.78383038369739       -0.35317764836138
O            7.56940575073142       -1.80339568114478        0.03308692263335
C            7.03769910667365       -3.10583547797513        0.09523505236564
C            5.44241418267809       -0.88848141284604       -0.70429437784071
C            0.63790858268394       -1.49084443046079       -0.63698648622183
C           -4.33091482228797        2.75449543609204        0.32413993116880
C           -5.32229286351058        2.63492632153986        1.47981048166977
C           -3.91967141111337        4.21138250620781        0.13748876550709
H           -4.36333189130281        0.31816176851052       -1.36951947568555
H           -6.24892208438322       -0.67514455574613       -2.46987296131619
H           -6.10835896522975       -2.28388946506921       -3.22379886741779
H           -4.67197206514523       -1.23882462078469       -3.09842508147124
H           -6.52482395334047       -4.33166454060276        1.35039260412572
H           -7.93112804117547       -3.23399183368177        1.40350124991345
H           -7.02395003801192       -3.44297638207063       -0.11535538829899
H           -3.93789610232877       -2.12254766220494        2.93048186365101
H           -3.05735527798640        0.13042314539668        2.70321944988696
H           -2.73596475713981        1.89731706926155       -1.60959858181347
H           -1.60017937240969        2.82788085773364       -0.62685116536909
H           -4.58755368223181       -2.95400030964698        0.83590018095959
H           -1.59331245899435       -0.21406415129686       -1.00414467239255
H           -1.36119405298631        1.51440087557761        1.77422806795267
H            0.51473806553008        1.84422111540691       -0.15398370085622
H            2.82055791336875       -0.61686135798338        0.57956108449289
H            2.53288350303068        1.11298881048462        0.34425685079172
H            2.92435285148341        0.89541790500968       -2.07456492070884
H            3.07161878096803       -0.86227031769337       -1.92441339208180
H            4.78276740859993        2.34185680015452       -1.43718539242288
H            7.13054790017464        2.57206074506738       -0.82671842216889
H            8.98486951286323        2.44416137376030        0.65642301778778
H            9.45474219949199        2.14646147568918       -1.04243619676103
H           10.42694957097241        1.46683465960332        0.28610619079551
H            7.85847921106869       -3.74133274131782        0.42228679610170
H            6.21974977340633       -3.17035385260147        0.82002202928259
H            6.68725876383329       -3.44336452137531       -0.88498587766732
H            4.95658027504669       -1.85165416222234       -0.68713100717993
H            0.36732889862092       -1.60584224829619       -1.69030338413235
H           -0.22067051923080       -1.77850201615431       -0.02660443118258
H            1.46208956154036       -2.16326738810128       -0.41247725085833
H           -4.83912508717092        2.42739975302106       -0.59062336190446
H           -4.85727129995858        2.96509096654329        2.40375774618717
H           -5.66182051872245        1.60855724964533        1.60312389729122
H           -6.18828776274336        3.26263994362597        1.28567061682606
H           -3.38600955426772        4.56683054747656        1.01348028482830
H           -3.29693471414765        4.34709685649357       -0.74274099056102
H           -4.81189843753270        4.81958776344718        0.01207110860453
H           -1.89315942019129        3.21975540731827        3.29131244142373

          :  Hamiltonian                  GFN2-xTB          :
         :: total energy            -107.927949030891 Eh    ::
         :: gradient norm              0.003444555040 Eh/a0 ::
         :: HOMO-LUMO gap              0.958876236170 eV    ::
         :: SCC energy              -100.770072614017 Eh    ::
         :: -> dispersion             -0.072857987206 Eh    ::
         :: repulsion energy           1.723962064789 Eh    ::

    * Orbital Energies and Occupations

         #    Occupation            Energy/Eh            Energy/eV
      -------------------------------------------------------------
         1        2.0000           -0.8316136             -22.6294
       ...           ...                  ...                  ...
        78        1.9974           -0.5292929             -14.4028
        79        1.9973           -0.5282359             -14.3740
        80        1.9969           -0.5264516             -14.3255
        81        1.9954           -0.5199521             -14.1486
        82        1.9937           -0.5149343             -14.0121
        83        1.9927           -0.5126744             -13.9506
        84        1.9919           -0.5109029             -13.9024
        85        1.9862           -0.5025058             -13.6739
        86        1.9679           -0.4890227             -13.3070
        87        1.9566           -0.4841220             -13.1736
        88        1.8951           -0.4696501             -12.7798
        89        1.8027           -0.4588670             -12.4864
        90        1.6887           -0.4506080             -12.2617 (HOMO)
        91        0.7389           -0.4153699             -11.3028 (LUMO)
        92        0.0081           -0.3367625              -9.1638
        93        0.0021           -0.3150224              -8.5722
        94        0.0019           -0.3133986              -8.5280
        95        0.0016           -0.3106823              -8.4541
        96        0.0005           -0.2915412              -7.9332
        97        0.0000           -0.2475415              -6.7359
        98        0.0000           -0.1879774              -5.1151
        99                         -0.1073406              -2.9209
       100                         -0.0951625              -2.5895
       101                         -0.0731981              -1.9918
       ...                                ...                  ...
       171                          2.2711946              61.8024
      -------------------------------------------------------------
                  HL-Gap            0.0352381 Eh            0.9589 eV

     #   Z          covCN         q      C6AA      α(0)
     1   7 N        1.774    -0.263    27.644     7.786
     2   6 C        2.828     0.104    25.700     8.307
     3   6 C        3.908     0.011    20.333     6.409
     4   6 C        2.975     0.024    27.461     8.596
     5   6 C        2.904    -0.073    29.816     8.953
     6   6 C        2.847     0.138    24.994     8.194
     7   8 O        1.705    -0.220    17.646     5.672
     8   6 C        3.643     0.022    20.553     6.518
     9   6 C        3.741     0.073    19.435     6.290
    10   8 O        1.693    -0.315    19.256     5.924
    11   6 C        3.637     0.035    20.350     6.490
    12   6 C        2.902    -0.045    29.117     8.848
    13   6 C        2.903    -0.037    28.929     8.819
    14   6 C        3.816    -0.059    21.627     6.619
    15   6 C        2.891    -0.073    29.816     8.952
    16   6 C        2.842     0.009    27.806     8.642
    17   7 N        2.733    -0.041    22.027     6.970
    18   6 C        3.751    -0.008    20.781     6.501
    19   6 C        3.807    -0.072    21.867     6.657
    20   6 C        2.969     0.007    27.862     8.658
    21   6 C        2.921    -0.045    29.106     8.847
    22   6 C        2.913    -0.065    29.629     8.926
    23   6 C        2.864     0.135    25.045     8.203
    24   8 O        1.706    -0.216    17.591     5.663
    25   6 C        3.645     0.023    20.515     6.510
    26   6 C        2.862     0.135    25.049     8.204
    27   8 O        1.706    -0.220    17.648     5.672
    28   6 C        3.645     0.026    20.475     6.504
    29   6 C        2.920    -0.077    29.935     8.972
    30   6 C        3.699    -0.058    21.785     6.675
    31   6 C        3.853    -0.005    20.638     6.461
    32   6 C        3.755    -0.119    22.828     6.812
    33   6 C        3.755    -0.119    22.836     6.814
    34   1 H        0.926     0.057     2.236     2.339
    35   1 H        0.924     0.065     2.143     2.290
    36   1 H        0.925     0.084     1.934     2.175
    37   1 H        0.924     0.057     2.229     2.335
    38   1 H        0.924     0.042     2.428     2.437
    39   1 H        0.925     0.076     2.016     2.220
    40   1 H        0.924     0.050     2.316     2.380
    41   1 H        0.926     0.068     2.105     2.269
    42   1 H        0.926     0.055     2.261     2.352
    43   1 H        0.924     0.058     2.218     2.329
    44   1 H        0.925     0.052     2.289     2.366
    45   1 H        0.931     0.124     1.584     1.968
    46   1 H        0.926     0.037     2.490     2.468
    47   1 H        0.923     0.017     2.786     2.610
    48   1 H        0.925     0.050     2.317     2.380
    49   1 H        0.924     0.056     2.244     2.343
    50   1 H        0.924     0.060     2.199     2.319
    51   1 H        0.924     0.055     2.254     2.348
    52   1 H        0.924     0.056     2.251     2.346
    53   1 H        0.926     0.052     2.294     2.369
    54   1 H        0.926     0.061     2.187     2.313
    55   1 H        0.924     0.057     2.231     2.336
    56   1 H        0.924     0.059     2.215     2.327
    57   1 H        0.925     0.084     1.936     2.176
    58   1 H        0.925     0.083     1.944     2.180
    59   1 H        0.924     0.051     2.302     2.372
    60   1 H        0.924     0.055     2.258     2.350
    61   1 H        0.926     0.050     2.319     2.381
    62   1 H        0.924     0.061     2.187     2.313
    63   1 H        0.924     0.061     2.182     2.310
    64   1 H        0.925     0.067     2.115     2.274
    65   1 H        0.924     0.039     2.463     2.454
    66   1 H        0.925     0.070     2.085     2.258
    67   1 H        0.925     0.040     2.451     2.448
    68   1 H        0.925     0.053     2.279     2.361
    69   1 H        0.925     0.066     2.130     2.282
    70   1 H        0.925     0.038     2.474     2.460
    71   1 H        0.925     0.056     2.248     2.345
    72   1 H        0.860     0.162     1.324     1.802

Wiberg/Mayer (AO) data.
largest (>0.10) Wiberg bond orders for each atom

     #   Z sym  total        # sym  WBO       # sym  WBO       # sym  WBO
 ---------------------------------------------------------------------------
     1   7 N    3.010 --     2 C    1.956    72 H    0.939
     2   6 C    3.939 --     1 N    1.956     3 C    0.990    47 H    0.927
     3   6 C    3.953 --     4 C    0.992     2 C    0.990    31 C    0.937
                            14 C    0.913
     4   6 C    3.689 --     5 C    1.329    13 C    1.252     3 C    0.992
     5   6 C    3.955 --     6 C    1.476     4 C    1.329    34 H    0.952
     6   6 C    3.718 --     5 C    1.476     7 O    1.147     9 C    0.973
     7   8 O    2.265 --     6 C    1.147     8 C    0.964
     8   6 C    3.925 --    36 H    0.977    35 H    0.973    37 H    0.973
                             7 O    0.964
     9   6 C    3.939 --    12 C    1.010     6 C    0.973    45 H    0.957
                            10 O    0.905
    10   8 O    2.004 --    11 C    0.997     9 C    0.905
    11   6 C    3.931 --    10 O    0.997    38 H    0.975    40 H    0.969
                            39 H    0.968
    12   6 C    3.741 --    13 C    1.664     9 C    1.010    41 H    0.966
    13   6 C    3.974 --    12 C    1.664     4 C    1.252    42 H    0.955
    14   6 C    3.972 --    15 C    1.041    44 H    0.969    43 H    0.955
                             3 C    0.913
    15   6 C    3.807 --    16 C    1.665    14 C    1.041    46 H    0.962
    16   6 C    3.932 --    15 C    1.665    17 N    1.218    48 H    0.955
    17   7 N    3.373 --    16 C    1.218    30 C    1.007    18 C    1.005
    18   6 C    3.961 --    17 N    1.005    50 H    0.969    49 H    0.964
                            19 C    0.962
    19   6 C    3.973 --    20 C    1.014    51 H    0.973    52 H    0.969
                            18 C    0.962
    20   6 C    3.928 --    21 C    1.397    29 C    1.380    19 C    1.014
    21   6 C    3.932 --    22 C    1.422    20 C    1.397    53 H    0.967
    22   6 C    3.950 --    21 C    1.422    23 C    1.376    54 H    0.962
    23   6 C    3.877 --    22 C    1.376    26 C    1.210    24 O    1.116
    24   8 O    2.249 --    23 C    1.116    25 C    0.975
    25   6 C    3.925 --    57 H    0.976    24 O    0.975    55 H    0.971
                            56 H    0.971
    26   6 C    3.883 --    29 C    1.391    23 C    1.210    27 O    1.109
    27   8 O    2.250 --    26 C    1.109    28 C    0.977
    28   6 C    3.929 --    27 O    0.977    58 H    0.976    59 H    0.972
                            60 H    0.972
    29   6 C    3.952 --    26 C    1.391    20 C    1.380    61 H    0.962
    30   6 C    3.967 --    17 N    1.007    64 H    0.979    63 H    0.971
                            62 H    0.968
    31   6 C    3.957 --    33 C    1.008    32 C    1.006    65 H    0.957
                             3 C    0.937
    32   6 C    3.970 --    31 C    1.006    68 H    0.980    67 H    0.979
                            66 H    0.971
    33   6 C    3.975 --    31 C    1.008    70 H    0.981    71 H    0.978
                            69 H    0.973
    34   1 H    0.995 --     5 C    0.952
    35   1 H    0.991 --     8 C    0.973
    36   1 H    0.992 --     8 C    0.977
    37   1 H    0.992 --     8 C    0.973
    38   1 H    0.992 --    11 C    0.975
    39   1 H    0.989 --    11 C    0.968
    40   1 H    0.990 --    11 C    0.969
    41   1 H    0.993 --    12 C    0.966
    42   1 H    0.996 --    13 C    0.955
    43   1 H    0.988 --    14 C    0.955
    44   1 H    0.995 --    14 C    0.969
    45   1 H    0.975 --     9 C    0.957
    46   1 H    0.998 --    15 C    0.962
    47   1 H    0.976 --     2 C    0.927
    48   1 H    0.997 --    16 C    0.955
    49   1 H    0.990 --    18 C    0.964
    50   1 H    0.995 --    18 C    0.969
    51   1 H    0.995 --    19 C    0.973
    52   1 H    0.995 --    19 C    0.969
    53   1 H    0.996 --    21 C    0.967
    54   1 H    0.994 --    22 C    0.962
    55   1 H    0.989 --    25 C    0.971
    56   1 H    0.989 --    25 C    0.971
    57   1 H    0.992 --    25 C    0.976
    58   1 H    0.992 --    28 C    0.976
    59   1 H    0.991 --    28 C    0.972
    60   1 H    0.991 --    28 C    0.972
    61   1 H    0.996 --    29 C    0.962
    62   1 H    0.984 --    30 C    0.968
    63   1 H    0.988 --    30 C    0.971
    64   1 H    0.995 --    30 C    0.979
    65   1 H    0.989 --    31 C    0.957
    66   1 H    0.989 --    32 C    0.971
    67   1 H    0.995 --    32 C    0.979
    68   1 H    0.993 --    32 C    0.980
    69   1 H    0.990 --    33 C    0.973
    70   1 H    0.996 --    33 C    0.981
    71   1 H    0.992 --    33 C    0.978
    72   1 H    0.965 --     1 N    0.939
 ---------------------------------------------------------------------------

molecular dipole:
                 x           y           z       tot (Debye)
 q only:        0.739      -0.391      -0.828
   full:        0.959      -0.650      -0.998       3.887

           -------------------------------------------------
          | TOTAL ENERGY             -107.927949030891 Eh   |
          | GRADIENT NORM               0.003444555040 Eh/α |
          | HOMO-LUMO GAP               0.958876236170 eV   |
           -------------------------------------------------

 * finished run on 2024/04/06 at 11:16:24.533
