   * xtb version 6.6.1 (8d0f1dd) compiled by 'conda@1efc2f54142f' on 2023-08-01
          program call               : xtb xtbopt.xyz --opt crude --input .xc2 --gfn2

   ID    Z sym.   atoms
    1    7 N      1, 17
    2    6 C      2-6, 8, 9, 11-16, 18-23, 25, 26, 28-33
    3    8 O      7, 10, 24, 27
    4    1 H      34-72
########################################################################
[WARNING] Please study the warnings concerning your input carefully
-1- readin_getIntValue: could not parse ''
########################################################################

          :  Hamiltonian                  GFN2-xTB          :
 * total energy  :   -99.0451224 Eh     change       -0.1591616E-11 Eh
 * total energy  :   -99.3658968 Eh     change       -0.3207744E+00 Eh
 * total energy  :   -99.3697448 Eh     change       -0.3848027E-02 Eh
 * total energy  :   -99.3709438 Eh     change       -0.1198925E-02 Eh
 * total energy  :   -99.3712987 Eh     change       -0.3549186E-03 Eh
 * total energy  :   -99.3715947 Eh     change       -0.2959893E-03 Eh
   *** GEOMETRY OPTIMIZATION CONVERGED AFTER 6 ITERATIONS ***

 final structure:
================
72
 xtb: 6.6.1 (8d0f1dd)
N           -2.54093857207821        3.04665214136410        2.53196918048336
C           -2.26329009765722        2.13871474717892        1.71916658714763
C           -3.11305948312813        1.79749310643277        0.52239924995658
C           -3.64207187158629        0.38715492149825        0.64822508358075
C           -4.27339714407173       -0.22790198670647       -0.44371119763046
C           -4.80084239631180       -1.48951253141693       -0.36199669717445
O           -5.37553412351984       -2.16470032517350       -1.36433496126274
C           -5.59104851192554       -1.53635249538849       -2.61331474982176
C           -4.84914358593280       -2.25241392220579        0.94348448324122
O           -6.20310891097985       -2.28187214771728        1.41035626582266
C           -6.97024764309615       -3.37898309154444        0.97859769855944
C           -4.04897289880848       -1.57406331734222        2.00840816268609
C           -3.53464758864092       -0.33407059108297        1.86032635244818
C           -2.13336346017481        1.89042519520955       -0.69625446609561
C           -1.17531520383208        0.74859936518159       -0.73346982267759
C            0.12476608012387        0.86895581072281       -0.40825326946721
N            1.02744334918042       -0.14062835362657       -0.32434064579595
C            2.42303806708446        0.12501715487909       -0.10839850255250
C            3.24956376350853        0.08606395939548       -1.41265019768641
C            4.70765504284822        0.23075355651848       -1.09195817037984
C            5.33063537570807        1.46969385644893       -1.12347341655890
C            6.66715007261864        1.60236575447049       -0.78172810741296
C            7.41082858997989        0.49637120478497       -0.39163129022398
O            8.70647641543345        0.50615351145233       -0.03369903236851
C            9.41771955899243        1.72251348187604       -0.04525994356207
C            6.78063976048249       -0.78038145635593       -0.35488387243187
O            7.57230194947278       -1.79868043609693        0.03070192335783
C            7.04356473509112       -3.10212189747861        0.08883120212119
C            5.44331816844889       -0.88667982145149       -0.70351264741681
C            0.63770183846943       -1.49203789612020       -0.63366282808901
C           -4.32450279899620        2.75499516160303        0.32146839060634
C           -5.31631432122547        2.63423620906866        1.47669955257784
C           -3.91656913344889        4.21310225714839        0.13614822348314
H           -4.33419804968692        0.30893728240704       -1.37691622318109
H           -6.22033803791621       -0.64923924381718       -2.50441984070298
H           -6.10320429517113       -2.27319749435630       -3.22906360046248
H           -4.64439915841425       -1.26244835923521       -3.08711633728652
H           -6.54590263568858       -4.32406244486439        1.33878527555788
H           -7.95993384040673       -3.23993181014763        1.40894844840651
H           -7.04878878343245       -3.41457859464346       -0.11254286672310
H           -3.98560523098552       -2.09557180418692        2.95004983727692
H           -3.03655958582706        0.12850057996806        2.69819236524100
H           -2.72540837754121        1.90802163932866       -1.61283013951760
H           -1.58913856524205        2.83256401777908       -0.62584368013289
H           -4.51797630350854       -3.28846623964396        0.79775346358721
H           -1.59206557743050       -0.21154213520657       -0.99200135938922
H           -1.34918696688250        1.52707079454890        1.76970330073493
H            0.52441703542049        1.84523313557885       -0.16480558587024
H            2.82270707653313       -0.62218175321243        0.58505746919978
H            2.53530576480230        1.10801788997557        0.35340434180817
H            2.91994640245341        0.89357351330823       -2.06743098980621
H            3.07136441305712       -0.86384623335587       -1.91876052802579
H            4.77518693903321        2.34428560219740       -1.42562873475891
H            7.12516155254411        2.57707496814841       -0.82268503168540
H            8.98329480154218        2.44670760648324        0.65052124058945
H            9.45338720288451        2.15567792156995       -1.04926238076858
H           10.42703296341369        1.47321348378445        0.27667913181233
H            7.86568455507614       -3.73687711081353        0.41363302414561
H            6.22594173823563       -3.17108096841960        0.81336354710123
H            6.69352715443797       -3.43711769114904       -0.89235982937190
H            4.95853830765681       -1.85031047083606       -0.68631460335402
H            0.37383257627056       -1.60259009980390       -1.68969582599924
H           -0.22623588092114       -1.77997893207337       -0.03033727279781
H            1.45880283863178       -2.16692893911101       -0.40540670383327
H           -4.83157740033545        2.42723845376722       -0.59377862646173
H           -4.85363718356283        2.96974591099202        2.39983927199413
H           -5.65164083594823        1.60709614027960        1.60344439812267
H           -6.18498354150398        3.25741314722133        1.27966278358134
H           -3.38399246262266        4.56963058722833        1.01255689370620
H           -3.29426593050192        4.35224287189443       -0.74404639832810
H           -4.81070788371106        4.81898918290978        0.01171340411419
H           -1.88830421987993        3.22399399246494        3.28895466663332

          :  Hamiltonian                  GFN2-xTB          :
         :: total energy             -99.371594678206 Eh    ::
         :: gradient norm              0.008750163111 Eh/a0 ::
         :: HOMO-LUMO gap              0.963568185639 eV    ::
         :: SCC energy              -100.746590149239 Eh    ::
         :: -> dispersion             -0.072877643760 Eh    ::
         :: repulsion energy           1.374021323922 Eh    ::

    * Orbital Energies and Occupations

         #    Occupation            Energy/Eh            Energy/eV
      -------------------------------------------------------------
         1        2.0000           -0.8309957             -22.6125
       ...           ...                  ...                  ...
        78        1.9975           -0.5293101             -14.4033
        79        1.9973           -0.5282086             -14.3733
        80        1.9970           -0.5265378             -14.3278
        81        1.9954           -0.5198179             -14.1450
        82        1.9938           -0.5150095             -14.0141
        83        1.9929           -0.5129326             -13.9576
        84        1.9920           -0.5110415             -13.9061
        85        1.9856           -0.5016915             -13.6517
        86        1.9680           -0.4888820             -13.3032
        87        1.9569           -0.4840700             -13.1722
        88        1.8965           -0.4696784             -12.7806
        89        1.8036           -0.4587516             -12.4833
        90        1.6894           -0.4504545             -12.2575 (HOMO)
        91        0.7351           -0.4150440             -11.2939 (LUMO)
        92        0.0083           -0.3367772              -9.1642
        93        0.0021           -0.3151092              -8.5746
        94        0.0019           -0.3131928              -8.5224
        95        0.0016           -0.3105203              -8.4497
        96        0.0005           -0.2913267              -7.9274
        97        0.0000           -0.2464243              -6.7055
        98        0.0000           -0.1877455              -5.1088
        99                         -0.1067805              -2.9056
       100                         -0.0892546              -2.4287
       101                         -0.0616942              -1.6788
       ...                                ...                  ...
       171                          0.5752697              15.6539
      -------------------------------------------------------------
                  HL-Gap            0.0354105 Eh            0.9636 eV

     #   Z          covCN         q      C6AA      α(0)
     1   7 N        1.774    -0.263    27.654     7.787
     2   6 C        2.828     0.103    25.703     8.308
     3   6 C        3.908     0.011    20.331     6.409
     4   6 C        2.974     0.024    27.466     8.597
     5   6 C        2.905    -0.073    29.816     8.953
     6   6 C        2.847     0.140    24.937     8.184
     7   8 O        1.705    -0.219    17.638     5.670
     8   6 C        3.642     0.022    20.548     6.517
     9   6 C        3.748     0.108    18.865     6.195
    10   8 O        1.700    -0.295    18.908     5.871
    11   6 C        3.639     0.033    20.376     6.493
    12   6 C        2.902    -0.040    29.004     8.830
    13   6 C        2.904    -0.037    28.925     8.819
    14   6 C        3.816    -0.059    21.623     6.618
    15   6 C        2.891    -0.073    29.818     8.953
    16   6 C        2.842     0.009    27.806     8.642
    17   7 N        2.733    -0.041    22.033     6.971
    18   6 C        3.751    -0.008    20.779     6.501
    19   6 C        3.807    -0.072    21.866     6.657
    20   6 C        2.969     0.007    27.862     8.658
    21   6 C        2.921    -0.045    29.107     8.847
    22   6 C        2.913    -0.065    29.629     8.926
    23   6 C        2.864     0.135    25.046     8.203
    24   8 O        1.706    -0.216    17.591     5.663
    25   6 C        3.645     0.024    20.512     6.509
    26   6 C        2.862     0.135    25.049     8.204
    27   8 O        1.706    -0.220    17.646     5.672
    28   6 C        3.645     0.026    20.473     6.503
    29   6 C        2.920    -0.078    29.937     8.972
    30   6 C        3.699    -0.058    21.784     6.675
    31   6 C        3.853    -0.005    20.636     6.461
    32   6 C        3.755    -0.118    22.820     6.811
    33   6 C        3.755    -0.119    22.832     6.813
    34   1 H        0.926     0.057     2.233     2.337
    35   1 H        0.924     0.064     2.147     2.291
    36   1 H        0.925     0.085     1.929     2.172
    37   1 H        0.924     0.058     2.225     2.333
    38   1 H        0.924     0.042     2.416     2.431
    39   1 H        0.925     0.077     2.013     2.219
    40   1 H        0.924     0.052     2.296     2.370
    41   1 H        0.926     0.070     2.082     2.256
    42   1 H        0.926     0.055     2.258     2.350
    43   1 H        0.924     0.058     2.221     2.330
    44   1 H        0.924     0.052     2.291     2.367
    45   1 H        0.924     0.060     2.201     2.320
    46   1 H        0.926     0.037     2.489     2.467
    47   1 H        0.923     0.016     2.789     2.612
    48   1 H        0.925     0.050     2.317     2.380
    49   1 H        0.924     0.056     2.243     2.342
    50   1 H        0.924     0.060     2.199     2.319
    51   1 H        0.924     0.055     2.256     2.349
    52   1 H        0.924     0.056     2.252     2.347
    53   1 H        0.926     0.052     2.296     2.369
    54   1 H        0.926     0.061     2.188     2.313
    55   1 H        0.924     0.057     2.233     2.337
    56   1 H        0.924     0.059     2.216     2.328
    57   1 H        0.925     0.084     1.937     2.177
    58   1 H        0.925     0.083     1.945     2.181
    59   1 H        0.924     0.051     2.302     2.373
    60   1 H        0.924     0.055     2.259     2.351
    61   1 H        0.926     0.050     2.319     2.381
    62   1 H        0.924     0.061     2.191     2.315
    63   1 H        0.924     0.062     2.180     2.309
    64   1 H        0.925     0.067     2.115     2.274
    65   1 H        0.924     0.039     2.469     2.457
    66   1 H        0.925     0.070     2.084     2.257
    67   1 H        0.925     0.039     2.464     2.455
    68   1 H        0.925     0.053     2.282     2.362
    69   1 H        0.925     0.066     2.131     2.283
    70   1 H        0.925     0.038     2.475     2.460
    71   1 H        0.925     0.056     2.249     2.345
    72   1 H        0.860     0.162     1.325     1.803

Wiberg/Mayer (AO) data.
largest (>0.10) Wiberg bond orders for each atom

     #   Z sym  total        # sym  WBO       # sym  WBO       # sym  WBO
 ---------------------------------------------------------------------------
     1   7 N    3.009 --     2 C    1.956    72 H    0.939
     2   6 C    3.939 --     1 N    1.956     3 C    0.990    47 H    0.927
     3   6 C    3.954 --     4 C    0.992     2 C    0.990    31 C    0.937
                            14 C    0.914
     4   6 C    3.688 --     5 C    1.327    13 C    1.253     3 C    0.992
     5   6 C    3.956 --     6 C    1.476     4 C    1.327    34 H    0.953
     6   6 C    3.720 --     5 C    1.476     7 O    1.147     9 C    0.976
     7   8 O    2.266 --     6 C    1.147     8 C    0.964
     8   6 C    3.924 --    36 H    0.977    35 H    0.973    37 H    0.973
                             7 O    0.964
     9   6 C    3.953 --    12 C    1.014     6 C    0.976    10 O    0.942
                            45 H    0.931
    10   8 O    2.039 --    11 C    0.991     9 C    0.942
    11   6 C    3.929 --    10 O    0.991    38 H    0.972    39 H    0.972
                            40 H    0.970
    12   6 C    3.741 --    13 C    1.661     9 C    1.014    41 H    0.965
    13   6 C    3.974 --    12 C    1.661     4 C    1.253    42 H    0.956
    14   6 C    3.972 --    15 C    1.040    44 H    0.969    43 H    0.955
                             3 C    0.914
    15   6 C    3.808 --    16 C    1.666    14 C    1.040    46 H    0.962
    16   6 C    3.932 --    15 C    1.666    17 N    1.218    48 H    0.955
    17   7 N    3.372 --    16 C    1.218    30 C    1.007    18 C    1.005
    18   6 C    3.961 --    17 N    1.005    50 H    0.969    49 H    0.964
                            19 C    0.962
    19   6 C    3.973 --    20 C    1.014    51 H    0.973    52 H    0.969
                            18 C    0.962
    20   6 C    3.929 --    21 C    1.397    29 C    1.380    19 C    1.014
    21   6 C    3.933 --    22 C    1.422    20 C    1.397    53 H    0.967
    22   6 C    3.950 --    21 C    1.422    23 C    1.376    54 H    0.962
    23   6 C    3.877 --    22 C    1.376    26 C    1.210    24 O    1.116
    24   8 O    2.249 --    23 C    1.116    25 C    0.975
    25   6 C    3.925 --    57 H    0.976    24 O    0.975    55 H    0.971
                            56 H    0.971
    26   6 C    3.884 --    29 C    1.392    23 C    1.210    27 O    1.109
    27   8 O    2.250 --    26 C    1.109    28 C    0.977
    28   6 C    3.929 --    27 O    0.977    58 H    0.976    59 H    0.972
                            60 H    0.972
    29   6 C    3.952 --    26 C    1.392    20 C    1.380    61 H    0.962
    30   6 C    3.967 --    17 N    1.007    64 H    0.979    63 H    0.971
                            62 H    0.968
    31   6 C    3.957 --    33 C    1.008    32 C    1.006    65 H    0.958
                             3 C    0.937
    32   6 C    3.970 --    31 C    1.006    68 H    0.980    67 H    0.980
                            66 H    0.972
    33   6 C    3.975 --    31 C    1.008    70 H    0.982    71 H    0.978
                            69 H    0.973
    34   1 H    0.995 --     5 C    0.953
    35   1 H    0.991 --     8 C    0.973
    36   1 H    0.992 --     8 C    0.977
    37   1 H    0.992 --     8 C    0.973
    38   1 H    0.992 --    11 C    0.972
    39   1 H    0.990 --    11 C    0.972
    40   1 H    0.990 --    11 C    0.970
    41   1 H    0.993 --    12 C    0.965
    42   1 H    0.995 --    13 C    0.956
    43   1 H    0.987 --    14 C    0.955
    44   1 H    0.995 --    14 C    0.969
    45   1 H    0.970 --     9 C    0.931
    46   1 H    0.998 --    15 C    0.962
    47   1 H    0.976 --     2 C    0.927
    48   1 H    0.997 --    16 C    0.955
    49   1 H    0.990 --    18 C    0.964
    50   1 H    0.995 --    18 C    0.969
    51   1 H    0.995 --    19 C    0.973
    52   1 H    0.995 --    19 C    0.969
    53   1 H    0.996 --    21 C    0.967
    54   1 H    0.994 --    22 C    0.962
    55   1 H    0.990 --    25 C    0.971
    56   1 H    0.989 --    25 C    0.971
    57   1 H    0.992 --    25 C    0.976
    58   1 H    0.992 --    28 C    0.976
    59   1 H    0.991 --    28 C    0.972
    60   1 H    0.991 --    28 C    0.972
    61   1 H    0.996 --    29 C    0.962
    62   1 H    0.984 --    30 C    0.968
    63   1 H    0.988 --    30 C    0.971
    64   1 H    0.995 --    30 C    0.979
    65   1 H    0.989 --    31 C    0.958
    66   1 H    0.989 --    32 C    0.972
    67   1 H    0.995 --    32 C    0.980
    68   1 H    0.993 --    32 C    0.980
    69   1 H    0.990 --    33 C    0.973
    70   1 H    0.996 --    33 C    0.982
    71   1 H    0.992 --    33 C    0.978
    72   1 H    0.965 --     1 N    0.939
 ---------------------------------------------------------------------------

molecular dipole:
                 x           y           z       tot (Debye)
 q only:        0.664      -0.347      -0.820
   full:        0.911      -0.626      -1.003       3.795

           -------------------------------------------------
          | TOTAL ENERGY              -99.371594678206 Eh   |
          | GRADIENT NORM               0.008750163111 Eh/α |
          | HOMO-LUMO GAP               0.963568185639 eV   |
           -------------------------------------------------

 * finished run on 2024/04/06 at 11:16:25.797
