   * xtb version 6.6.1 (8d0f1dd) compiled by 'conda@1efc2f54142f' on 2023-08-01
          program call               : xtb xtbopt.xyz --opt crude --input .xc2 --gfn2

   ID    Z sym.   atoms
    1    6 C      1, 3, 5-7, 10, 11, 14
    2    7 N      2, 4, 9, 13
    3    8 O      8, 12
    4    1 H      15-25

          :  Hamiltonian                  GFN2-xTB          :
 * total energy  :   -42.0901875 Eh     change       -0.3126388E-12 Eh
   *** GEOMETRY OPTIMIZATION CONVERGED AFTER 1 ITERATIONS ***

 final structure:
================
25
 xtb: 6.6.1 (8d0f1dd)
C            3.15680253456596        1.20133773487571        0.01578910405214
N            2.20985285547606        0.12006392340243       -0.00114816513141
C            2.51648527489194       -1.18150980839719       -0.00691314045140
N            1.35520652287618       -1.87548374531452       -0.00656162829517
C            0.30141780467592       -1.00942013216867       -0.00070535746086
C            0.84168201592184        0.27045726673306        0.00502728878265
C            0.00496425472663        1.44824944617292       -0.00271956489797
O            0.38610619020822        2.59513576871543       -0.01386516763086
N           -1.35001057065901        1.10759186248825        0.00134381499833
C           -2.31643802777192        2.19417613530694        0.00073965360841
C           -1.90688693449602       -0.16062375376651        0.00273443618122
O           -3.09506281593185       -0.33514894216305        0.00538104019504
N           -1.02044659058835       -1.25314175996938       -0.00043271538632
C           -1.55830071893859       -2.59695766937989       -0.00425382814999
H            3.65851825451718        1.24419390924103        0.98400799669435
H            3.90889077096138        1.04432019702429       -0.75636032394407
H            2.63457615676814        2.14201387332639       -0.15572254003676
H            4.92683277044734       -2.84630998890385       -0.00988129360465
H           -1.77323329760318        3.13659861827854        0.00929539869924
H           -2.94775009555833        2.12828739991236       -0.88647066312478
H           -2.95922176454113        2.11765579763128        0.87872222682033
H           -1.22921415872343       -3.13976820973527        0.88275453483122
H           -1.24360548078559       -3.12942971622528       -0.90278366699298
H           -2.64508267454332       -2.52049583265770        0.00460245800507
H            1.30434923820394       -2.88355383282734       -0.01140827986085

          :  Hamiltonian                  GFN2-xTB          :
         :: total energy             -42.090187516034 Eh    ::
         :: gradient norm              0.005165580081 Eh/a0 ::
         :: HOMO-LUMO gap              0.936080425475 eV    ::
         :: SCC energy               -42.595507596872 Eh    ::
         :: -> dispersion             -0.022534921453 Eh    ::
         :: repulsion energy           0.505226494156 Eh    ::

    * Orbital Energies and Occupations

         #    Occupation            Energy/Eh            Energy/eV
      -------------------------------------------------------------
         1        2.0000           -0.8974324             -24.4204
       ...           ...                  ...                  ...
        25        1.9997           -0.6669408             -18.1484
        26        1.9997           -0.6663052             -18.1311
        27        1.9987           -0.6427746             -17.4908
        28        1.9978           -0.6345421             -17.2668
        29        1.9961           -0.6249990             -17.0071
        30        1.9937           -0.6175565             -16.8046
        31        1.9913           -0.6123267             -16.6623
        32        1.9868           -0.6057824             -16.4842
        33        1.9718           -0.5936022             -16.1527
        34        1.9281           -0.5784227             -15.7397
        35        1.9095           -0.5746222             -15.6363
        36        1.7174           -0.5549115             -15.0999
        37        1.7075           -0.5542716             -15.0825 (HOMO)
        38        0.7986           -0.5198713             -14.1464 (LUMO)
        39        0.0031           -0.4237761             -11.5315
        40        0.0005           -0.3939999             -10.7213
        41        0.0001           -0.3747590             -10.1977
        42        0.0000           -0.2954712              -8.0402
        43                         -0.2112474              -5.7483
        44                         -0.1679119              -4.5691
        45                         -0.1438420              -3.9141
        46                         -0.1331937              -3.6244
        47                         -0.0678180              -1.8454
        48                         -0.0408377              -1.1113
       ...                                ...                  ...
        67                          0.5409314              14.7195
      -------------------------------------------------------------
                  HL-Gap            0.0344003 Eh            0.9361 eV

     #   Z          covCN         q      C6AA      α(0)
     1   6 C        3.692    -0.084    22.298     6.757
     2   7 N        2.851     0.077    19.903     6.626
     3   6 C        2.067    -0.053    32.374     9.191
     4   7 N        2.811    -0.060    22.398     7.029
     5   6 C        3.022     0.117    25.412     8.269
     6   6 C        3.088    -0.011    28.190     8.703
     7   6 C        2.764     0.274    22.364     7.745
     8   8 O        0.858    -0.334    20.413     6.058
     9   7 N        2.746    -0.074    22.675     7.072
    10   6 C        3.710    -0.062    21.832     6.678
    11   6 C        2.730     0.319    21.584     7.606
    12   8 O        0.860    -0.339    20.496     6.070
    13   7 N        2.738    -0.044    22.083     6.979
    14   6 C        3.697    -0.071    22.031     6.714
    15   1 H        0.924     0.110     1.697     2.037
    16   1 H        0.925     0.110     1.695     2.036
    17   1 H        0.925     0.121     1.604     1.980
    18   1 H        0.000     0.128     3.857     3.591
    19   1 H        0.925     0.121     1.608     1.983
    20   1 H        0.924     0.111     1.690     2.033
    21   1 H        0.924     0.111     1.688     2.032
    22   1 H        0.924     0.093     1.848     2.126
    23   1 H        0.924     0.094     1.845     2.124
    24   1 H        0.925     0.129     1.546     1.944
    25   1 H        0.860     0.218     1.018     1.581

Wiberg/Mayer (AO) data.
largest (>0.10) Wiberg bond orders for each atom

     #   Z sym  total        # sym  WBO       # sym  WBO       # sym  WBO
 ---------------------------------------------------------------------------
     1   6 C    3.904 --     2 N    0.996    17 H    0.960    16 H    0.957
                            15 H    0.948
     2   7 N    3.646 --     3 C    1.364     6 C    1.168     1 C    0.996
     3   6 C    2.878 --     2 N    1.364     4 N    1.289
     4   7 N    3.583 --     3 C    1.289     5 C    1.195    25 H    0.924
     5   6 C    3.906 --     6 C    1.320    13 N    1.211     4 N    1.195
     6   6 C    3.824 --     5 C    1.320     2 N    1.168     7 C    1.072
     7   6 C    3.949 --     8 O    1.684     9 N    1.094     6 C    1.072
     8   8 O    1.987 --     7 C    1.684     9 N    0.130
     9   7 N    3.512 --    11 C    1.119     7 C    1.094    10 C    0.975
                             8 O    0.130    12 O    0.124
    10   6 C    3.878 --     9 N    0.975    19 H    0.961    21 H    0.949
                            20 H    0.949
    11   6 C    3.954 --    12 O    1.694     9 N    1.119    13 N    1.049
    12   8 O    2.003 --    11 C    1.694     9 N    0.124    13 N    0.109
    13   7 N    3.498 --     5 C    1.211    11 C    1.049    14 C    0.978
                            12 O    0.109
    14   6 C    3.909 --    13 N    0.978    24 H    0.962    22 H    0.962
                            23 H    0.961
    15   1 H    0.974 --     1 C    0.948
    16   1 H    0.977 --     1 C    0.957
    17   1 H    0.980 --     1 C    0.960
    18   1 H    0.062
    19   1 H    0.979 --    10 C    0.961
    20   1 H    0.967 --    10 C    0.949
    21   1 H    0.967 --    10 C    0.949
    22   1 H    0.978 --    14 C    0.962
    23   1 H    0.978 --    14 C    0.961
    24   1 H    0.982 --    14 C    0.962
    25   1 H    0.951 --     4 N    0.924
 ---------------------------------------------------------------------------

molecular dipole:
                 x           y           z       tot (Debye)
 q only:        1.994      -1.829       0.007
   full:        1.788      -2.089       0.013       6.989

           -------------------------------------------------
          | TOTAL ENERGY              -42.090187516034 Eh   |
          | GRADIENT NORM               0.005165580081 Eh/α |
          | HOMO-LUMO GAP               0.936080425475 eV   |
           -------------------------------------------------

 * finished run on 2024/06/05 at 19:57:58.130
