   * xtb version 6.6.1 (8d0f1dd) compiled by 'conda@1efc2f54142f' on 2023-08-01
          program call               : xtb xtbopt.xyz --opt crude --input .xc2 --gfn2

   ID    Z sym.   atoms
    1    7 N      1, 17
    2    6 C      2-6, 8, 9, 11-16, 18-23, 25, 26, 28-33
    3    8 O      7, 10, 24, 27
    4    1 H      34-72

          :  Hamiltonian                  GFN2-xTB          :
 * total energy  :   -99.2925379 Eh     change       -0.8384404E-11 Eh
   *** GEOMETRY OPTIMIZATION CONVERGED AFTER 1 ITERATIONS ***

 final structure:
================
72
 xtb: 6.6.1 (8d0f1dd)
N           -1.89846879887365        2.80053660222998        2.24751374179135
C           -1.82968853090410        2.11704601047060        1.20561937772712
C           -2.96764745301505        1.90430628524313        0.24564955853781
C           -3.44243560423517        0.46066380067045        0.32913693663314
C           -4.38919294928868       -0.00593566671892       -0.58486576945068
C           -4.86940026254016       -1.30386298714598       -0.53282006396367
O           -5.79307175753280       -1.82530078254003       -1.36370021906718
C           -6.42133869302446       -0.99090361823590       -2.30877427061865
C           -4.37640767932949       -2.19307867524010        0.46182211698145
O           -4.89331886915775       -3.43556580236558        0.43387575618243
C           -4.51855541911992       -4.36038082360658        1.42852367749173
C           -3.43267256714698       -1.72459292913392        1.36265050127368
C           -2.97600883159761       -0.41405007143183        1.29877870993715
C           -2.40107534141598        2.18345438006958       -1.17105492358865
C           -1.45199931024434        1.09287725374673       -1.69799760068975
C           -0.11623167938028        1.12332125523077       -1.06362210283952
N            0.57757156913180        0.06646747020470       -0.67232032850457
C            1.95622745287904        0.20870485598427       -0.26537583928077
C            2.92841857073536       -0.24165302245796       -1.37064399471729
C            4.33761620234502        0.05517196377633       -0.93323198502285
C            4.92993087444315        1.27696818751739       -1.27511556998205
C            6.21351793651428        1.58193367568545       -0.85494792998563
C            6.93779980346888        0.69392856692786       -0.07382423580408
O            8.17808214700156        0.88886051730292        0.37760448983079
C            8.87909393072114        2.05923857326384        0.02901290628351
C            6.35101479918527       -0.59081457929012        0.32987302427962
O            6.96397133125442       -1.39568186321473        1.04179907424360
C            5.79011130383459       -4.95048821030026        1.34356592195067
C            5.02535346172995       -0.84179594768726       -0.15495574191240
C            0.03149445806791       -1.26891649754258       -0.70811144373113
C           -4.18188638337433        2.83993167366980        0.52404504882887
C           -4.84104753107490        2.51702330929526        1.86267094292109
C           -3.82274472865178        4.32218389635608        0.46922744697005
H           -4.76869566718885        0.66200595204442       -1.33986048439363
H           -6.91865483470972       -0.14384152714201       -1.82696890884863
H           -7.16641473976155       -1.61430002278148       -2.79888506548441
H           -5.71118495868930       -0.62353490109155       -3.05670829622791
H           -4.76732037608830       -3.99514853300591        2.42920002167916
H           -5.09243482690630       -5.26112266719412        1.22006909078382
H           -3.45000853888347       -4.59248289641313        1.37859244662699
H           -3.05309284230083       -2.37127457839771        2.13706720638590
H           -2.26720246138013       -0.07867992430270        2.04007685468683
H           -3.23319129594717        2.27374695259749       -1.86808334934118
H           -1.87570861998182        3.13906312596409       -1.16027815718186
H           -1.92410634516240        0.11632121364406       -1.60322835434402
H           -1.30570185926378        1.28955982552095       -2.76810393338860
H           -0.90240587085743        1.62339080044593        0.85500953713253
H            0.39745563738221        2.07374436571587       -1.04048788070252
H            2.13200635082985       -0.38617625857328        0.63470952282157
H            2.15429595524088        1.25576134096204       -0.02698573716023
H            2.69858176877600        0.29895416591148       -2.29037351432749
H            2.81083246467811       -1.30958106288122       -1.55528384912213
H            4.38848254924497        1.98493710574285       -1.88415801976946
H            6.64727679626502        2.52597805182381       -1.14607533389550
H            8.37774291939259        2.95285931943724        0.41298620721648
H            8.99569780483047        2.14413432342606       -1.05542625354444
H            9.85887193960810        1.96616885358806        0.49330622122551
H            6.76452853836664       -5.11954341666420        1.74899919905670
H            4.99429132707978       -4.64154795632025        1.98721761283111
H            5.61947980740550       -5.06473489772588        0.29478850382531
H            4.58816287818020       -1.78978346579904        0.12089672038918
H           -0.11997909770472       -1.60592460432052       -1.73557809461261
H           -0.92606512920268       -1.30354959451932       -0.18273670130761
H            0.72116270548388       -1.95064743331184       -0.21730816894711
H           -4.91387045524196        2.64254763404691       -0.26717083333903
H           -4.15282944458935        2.72365730414281        2.67594937255119
H           -5.14209409210748        1.47337880598453        1.91163227466909
H           -5.72547760173179        3.13527185078960        1.99145269321126
H           -3.07699047028849        4.55967291774247        1.22173591441593
H           -3.45196427075662        4.61515771707449       -0.50952590713545
H           -4.71204970425243        4.91129391795888        0.67712026493318
H           -1.06192179416796        2.89881091764657        2.81367480853979

          :  Hamiltonian                  GFN2-xTB          :
         :: total energy             -99.292537860924 Eh    ::
         :: gradient norm              0.003134349082 Eh/a0 ::
         :: HOMO-LUMO gap              0.337472183383 eV    ::
         :: SCC energy              -100.679042319992 Eh    ::
         :: -> dispersion             -0.073003140870 Eh    ::
         :: repulsion energy           1.385314613927 Eh    ::

    * Orbital Energies and Occupations

         #    Occupation            Energy/Eh            Energy/eV
      -------------------------------------------------------------
         1        2.0000           -0.8151112             -22.1803
       ...           ...                  ...                  ...
        78        1.9979           -0.5343262             -14.5398
        79        1.9978           -0.5334012             -14.5146
        80        1.9970           -0.5285888             -14.3836
        81        1.9958           -0.5233084             -14.2399
        82        1.9951           -0.5207570             -14.1705
        83        1.9942           -0.5179983             -14.0955
        84        1.9931           -0.5153935             -14.0246
        85        1.9777           -0.4966362             -13.5142
        86        1.9561           -0.4857514             -13.2180
        87        1.9277           -0.4776436             -12.9973
        88        1.8490           -0.4653177             -12.6619
        89        1.8333           -0.4636173             -12.6157
        90        1.2526           -0.4338265             -11.8050 (HOMO)
        91        0.8673           -0.4214246             -11.4675 (LUMO)
        92        0.3568           -0.4014668             -10.9245
        93        0.0131           -0.3461145              -9.4183
        94        0.0030           -0.3227368              -8.7821
        95        0.0025           -0.3199102              -8.7052
        96        0.0013           -0.3096875              -8.4270
        97        0.0006           -0.2972592              -8.0888
        98        0.0000           -0.1972400              -5.3672
        99        0.0000           -0.1854519              -5.0464
       100                         -0.1415939              -3.8530
       101                         -0.0752497              -2.0476
       ...                                ...                  ...
       171                          0.6054842              16.4761
      -------------------------------------------------------------
                  HL-Gap            0.0124019 Eh            0.3375 eV

     #   Z          covCN         q      C6AA      α(0)
     1   7 N        1.774    -0.263    27.653     7.787
     2   6 C        2.826     0.101    25.746     8.314
     3   6 C        3.907     0.007    20.410     6.421
     4   6 C        2.974     0.003    27.946     8.671
     5   6 C        2.920    -0.079    29.985     8.980
     6   6 C        2.862     0.131    25.131     8.217
     7   8 O        1.706    -0.226    17.750     5.688
     8   6 C        3.645     0.026    20.468     6.503
     9   6 C        2.864     0.130    25.148     8.220
    10   8 O        1.706    -0.224    17.721     5.684
    11   6 C        3.645     0.025    20.480     6.504
    12   6 C        2.913    -0.074    29.844     8.958
    13   6 C        2.921    -0.053    29.312     8.878
    14   6 C        3.812    -0.066    21.750     6.638
    15   6 C        3.802    -0.070    21.834     6.653
    16   6 C        2.845     0.011    27.758     8.635
    17   7 N        2.729     0.018    20.944     6.797
    18   6 C        3.758    -0.018    20.942     6.524
    19   6 C        3.808    -0.071    21.844     6.653
    20   6 C        2.962     0.005    27.897     8.663
    21   6 C        2.921    -0.043    29.079     8.843
    22   6 C        2.905    -0.066    29.652     8.929
    23   6 C        2.859     0.131    25.134     8.217
    24   8 O        1.706    -0.189    17.162     5.593
    25   6 C        3.646     0.022    20.542     6.513
    26   6 C        2.827     0.201    23.735     7.983
    27   8 O        0.858    -0.363    20.946     6.136
    28   6 C        2.780    -0.114    30.860     9.099
    29   6 C        2.916    -0.075    29.875     8.963
    30   6 C        3.700    -0.072    22.051     6.716
    31   6 C        3.853    -0.007    20.675     6.467
    32   6 C        3.756    -0.119    22.843     6.815
    33   6 C        3.755    -0.119    22.830     6.813
    34   1 H        0.926     0.054     2.276     2.359
    35   1 H        0.924     0.055     2.255     2.348
    36   1 H        0.925     0.083     1.947     2.182
    37   1 H        0.924     0.049     2.329     2.387
    38   1 H        0.924     0.057     2.235     2.338
    39   1 H        0.925     0.083     1.946     2.181
    40   1 H        0.924     0.050     2.317     2.380
    41   1 H        0.926     0.054     2.269     2.356
    42   1 H        0.926     0.040     2.455     2.450
    43   1 H        0.925     0.062     2.180     2.309
    44   1 H        0.924     0.055     2.261     2.352
    45   1 H        0.925     0.068     2.111     2.272
    46   1 H        0.924     0.083     1.945     2.181
    47   1 H        0.922     0.008     2.925     2.674
    48   1 H        0.926     0.073     2.052     2.240
    49   1 H        0.924     0.073     2.055     2.242
    50   1 H        0.924     0.068     2.106     2.269
    51   1 H        0.924     0.055     2.259     2.351
    52   1 H        0.925     0.059     2.214     2.327
    53   1 H        0.926     0.045     2.383     2.414
    54   1 H        0.926     0.057     2.238     2.339
    55   1 H        0.924     0.060     2.194     2.317
    56   1 H        0.924     0.062     2.176     2.307
    57   1 H        0.925     0.088     1.896     2.153
    58   1 H        0.927     0.092     1.863     2.134
    59   1 H        0.927     0.077     2.011     2.218
    60   1 H        0.927     0.078     1.996     2.209
    61   1 H        0.926     0.057     2.239     2.340
    62   1 H        0.924     0.079     1.987     2.204
    63   1 H        0.924     0.081     1.974     2.197
    64   1 H        0.925     0.084     1.934     2.175
    65   1 H        0.924     0.039     2.465     2.455
    66   1 H        0.925     0.071     2.074     2.252
    67   1 H        0.925     0.036     2.497     2.471
    68   1 H        0.925     0.053     2.285     2.364
    69   1 H        0.925     0.060     2.195     2.317
    70   1 H        0.925     0.035     2.512     2.479
    71   1 H        0.925     0.056     2.244     2.342
    72   1 H        0.860     0.160     1.334     1.809

Wiberg/Mayer (AO) data.
largest (>0.10) Wiberg bond orders for each atom

     #   Z sym  total        # sym  WBO       # sym  WBO       # sym  WBO
 ---------------------------------------------------------------------------
     1   7 N    3.044 --     2 C    1.960    72 H    0.940
     2   6 C    3.930 --     1 N    1.960     3 C    0.994    47 H    0.897
     3   6 C    3.974 --     2 C    0.994     4 C    0.968    14 C    0.958
                            31 C    0.942
     4   6 C    3.944 --    13 C    1.411     5 C    1.369     3 C    0.968
     5   6 C    3.959 --     6 C    1.399     4 C    1.369    34 H    0.957
     6   6 C    3.901 --     5 C    1.399     9 C    1.217     7 O    1.104
     7   8 O    2.255 --     6 C    1.104     8 C    0.977
     8   6 C    3.930 --     7 O    0.977    36 H    0.976    35 H    0.973
                            37 H    0.973
     9   6 C    3.897 --    12 C    1.389     6 C    1.217    10 O    1.107
    10   8 O    2.254 --     9 C    1.107    11 C    0.976
    11   6 C    3.929 --    39 H    0.977    10 O    0.976    40 H    0.973
                            38 H    0.973
    12   6 C    3.959 --    13 C    1.405     9 C    1.389    41 H    0.963
    13   6 C    3.950 --     4 C    1.411    12 C    1.405    42 H    0.962
    14   6 C    3.973 --    15 C    0.982    44 H    0.972    43 H    0.969
                             3 C    0.958
    15   6 C    3.986 --    16 C    1.060    14 C    0.982    45 H    0.960
                            46 H    0.925
    16   6 C    3.622 --    17 N    1.421    15 C    1.060    48 H    0.956
    17   7 N    3.499 --    16 C    1.421    30 C    0.997    18 C    0.986
    18   6 C    3.952 --    17 N    0.986    50 H    0.967    19 C    0.967
                            49 H    0.962
    19   6 C    3.972 --    20 C    1.001    51 H    0.972    52 H    0.971
                            18 C    0.967
    20   6 C    3.935 --    29 C    1.499    21 C    1.317    19 C    1.001
    21   6 C    3.808 --    22 C    1.424    20 C    1.317    53 H    0.968
    22   6 C    3.941 --    21 C    1.424    23 C    1.383    54 H    0.959
    23   6 C    3.731 --    22 C    1.383    24 O    1.156    26 C    1.050
    24   8 O    2.259 --    23 C    1.156    25 C    0.972
    25   6 C    3.921 --    57 H    0.976    24 O    0.972    56 H    0.969
                            55 H    0.969
    26   6 C    3.883 --    27 O    1.582    29 C    1.160    23 C    1.050
    27   8 O    1.717 --    26 C    1.582
    28   6 C    2.974 --    59 H    0.992    60 H    0.992    58 H    0.990
    29   6 C    3.797 --    20 C    1.499    26 C    1.160    61 H    0.964
    30   6 C    3.955 --    17 N    0.997    64 H    0.977    62 H    0.966
                            63 H    0.962
    31   6 C    3.970 --    33 C    1.009    32 C    1.008    65 H    0.958
                             3 C    0.942
    32   6 C    3.975 --    31 C    1.008    67 H    0.981    68 H    0.981
                            66 H    0.972
    33   6 C    3.981 --    31 C    1.009    70 H    0.982    71 H    0.980
                            69 H    0.976
    34   1 H    0.996 --     5 C    0.957
    35   1 H    0.993 --     8 C    0.973
    36   1 H    0.992 --     8 C    0.976
    37   1 H    0.993 --     8 C    0.973
    38   1 H    0.992 --    11 C    0.973
    39   1 H    0.992 --    11 C    0.977
    40   1 H    0.992 --    11 C    0.973
    41   1 H    0.995 --    12 C    0.963
    42   1 H    0.998 --    13 C    0.962
    43   1 H    0.995 --    14 C    0.969
    44   1 H    0.996 --    14 C    0.972
    45   1 H    0.994 --    15 C    0.960
    46   1 H    0.971 --    15 C    0.925
    47   1 H    0.985 --     2 C    0.897
    48   1 H    0.994 --    16 C    0.956
    49   1 H    0.990 --    18 C    0.962
    50   1 H    0.994 --    18 C    0.967
    51   1 H    0.995 --    19 C    0.972
    52   1 H    0.995 --    19 C    0.971
    53   1 H    0.997 --    21 C    0.968
    54   1 H    0.991 --    22 C    0.959
    55   1 H    0.987 --    25 C    0.969
    56   1 H    0.987 --    25 C    0.969
    57   1 H    0.991 --    25 C    0.976
    58   1 H    0.991 --    28 C    0.990
    59   1 H    0.994 --    28 C    0.992
    60   1 H    0.994 --    28 C    0.992
    61   1 H    0.993 --    29 C    0.964
    62   1 H    0.985 --    30 C    0.966
    63   1 H    0.987 --    30 C    0.962
    64   1 H    0.993 --    30 C    0.977
    65   1 H    0.991 --    31 C    0.958
    66   1 H    0.990 --    32 C    0.972
    67   1 H    0.996 --    32 C    0.981
    68   1 H    0.993 --    32 C    0.981
    69   1 H    0.993 --    33 C    0.976
    70   1 H    0.997 --    33 C    0.982
    71   1 H    0.993 --    33 C    0.980
    72   1 H    0.969 --     1 N    0.940
 ---------------------------------------------------------------------------

molecular dipole:
                 x           y           z       tot (Debye)
 q only:       -0.680       0.433      -1.288
   full:       -0.355       0.605      -1.564       4.357

           -------------------------------------------------
          | TOTAL ENERGY              -99.292537860924 Eh   |
          | GRADIENT NORM               0.003134349082 Eh/α |
          | HOMO-LUMO GAP               0.337472183383 eV   |
           -------------------------------------------------

 * finished run on 2024/04/06 at 11:14:36.568
