   * xtb version 6.6.1 (8d0f1dd) compiled by 'conda@1efc2f54142f' on 2023-08-01
          program call               : xtb struc.xyz --opt loose --input .xc1 --gfn2

   ID    Z sym.   atoms
    1    7 N      1, 17
    2    6 C      2-6, 8, 9, 11-16, 18-23, 25, 26, 28-33
    3    8 O      7, 10, 24, 27
    4    1 H      34-72
constraining bond 12 13 to    4.0000000 Å, actual value:    1.3919253 Å

          :  Hamiltonian                  GFN2-xTB          :
 * total energy  :   -98.1896024 Eh     change       -0.4035485E-08 Eh
 * total energy  :   -98.3707853 Eh     change       -0.1811828E+00 Eh
 * total energy  :   -98.5630249 Eh     change       -0.1922396E+00 Eh
 * total energy  :   -98.7525987 Eh     change       -0.1895738E+00 Eh
 * total energy  :   -98.9540130 Eh     change       -0.2014143E+00 Eh
 * total energy  :   -99.0667046 Eh     change       -0.1126916E+00 Eh
 * total energy  :   -99.0912593 Eh     change       -0.2455466E-01 Eh
 * total energy  :   -99.1163534 Eh     change       -0.2509411E-01 Eh
 * total energy  :   -99.1313382 Eh     change       -0.1498481E-01 Eh
 * total energy  :   -99.1525479 Eh     change       -0.2120970E-01 Eh
 * total energy  :   -99.2779172 Eh     change        0.2413880E-05 Eh
 * total energy  :   -99.2779651 Eh     change       -0.4784142E-04 Eh
 * total energy  :   -99.2780793 Eh     change       -0.1141952E-03 Eh
 * total energy  :   -99.2781538 Eh     change       -0.7453668E-04 Eh
 * total energy  :   -99.2782874 Eh     change       -0.1336339E-03 Eh
 * total energy  :   -99.2783733 Eh     change       -0.8590127E-04 Eh
 * total energy  :   -99.2784509 Eh     change       -0.7753882E-04 Eh
 * total energy  :   -99.2785067 Eh     change       -0.5583907E-04 Eh
 * total energy  :   -99.2785546 Eh     change       -0.4790482E-04 Eh
   *** GEOMETRY OPTIMIZATION CONVERGED AFTER 81 ITERATIONS ***

 final structure:
================
72
 xtb: 6.6.1 (8d0f1dd)
N           -2.11967077753418        2.32523454437878        2.47777226509986
C           -2.76330725828089        1.62736603154153        1.65657738640125
C           -3.29843821441724        1.97653261023928        0.26143589963007
C           -3.84456298454067        0.54405193603606        0.28267906722203
C           -4.60869843329365       -0.10110442878091       -0.71215379516906
C           -4.97738234506177       -1.41235094360249       -0.74494914311693
O           -5.68366372441813       -2.00439126535882       -1.70963546913404
C           -6.12950005052706       -1.26251394483991       -2.82843463952424
C           -4.53137619618017       -2.41977494000487        0.28221359654247
O           -5.07477104529342       -2.22679631101103        1.50408678122647
C           -4.72905638638179       -3.19875514737185        2.47042800346560
C           -3.67892062074497       -3.34648726043884       -0.07475302628300
C           -3.32804133054006        0.29446834283310        1.52756037511195
C           -2.22287053882853        2.24521332722582       -0.79733546517118
C           -1.32955879088826        1.05042136222903       -1.13748315557823
C           -0.31635595801535        0.72269043742720       -0.03435558413465
N            0.64919333112331       -0.25570507609912       -0.47022415189342
C            2.03331059700642       -0.07627080901175       -0.11302144413071
C            2.94323276274755       -0.16483141665206       -1.35728344629231
C            4.37978136875286        0.02560869888861       -0.97476512523000
C            5.01361449377518        1.24932545312119       -1.14936909363590
C            6.33754697510814        1.42548156002481       -0.78225086935696
C            7.06088871162576        0.38131185117767       -0.21857085547082
O            8.34525772572441        0.43359506535379        0.16762650584361
C            9.07570994947741        1.62638557743313       -0.00683541463872
C            6.41595642615239       -0.87519322146095       -0.01955208560349
O            7.18192228695656       -1.82829649133006        0.53882615049498
C            6.64002503103157       -3.10750435483024        0.77002726354609
C            5.09150053382487       -1.02641411981363       -0.40323318239258
C            0.19010860283446       -1.61795066138315       -0.46667179362096
C           -4.37679497010240        3.07642054014314        0.27755819537938
C           -5.47338037412402        2.76242379000236        1.29437050388195
C           -3.76064362630262        4.43860592118041        0.58526632993450
H           -4.92397262109545        0.54103245415279       -1.52468395014350
H           -6.81007465964230       -0.46208654379635       -2.52678941361548
H           -6.66382475083913       -1.97365025297903       -3.45585294875060
H           -5.28811744284267       -0.84169134339253       -3.38628220646876
H           -3.64883609510555       -3.19329687254424        2.65820062744192
H           -5.27337862473938       -2.93615193487354        3.37609173378790
H           -5.01751760634118       -4.19882292988990        2.13153405295680
H           -3.20809701058308       -3.64247656013996       -0.98156594014529
H           -3.35427309846096       -0.54167932853646        2.19892576885921
H           -2.72391658219324        2.56445203574534       -1.71425491935803
H           -1.59911585862609        3.06953753781261       -0.45066282514068
H           -1.95037169667348        0.17695714580430       -1.34581840359540
H           -0.77007164962936        1.28454454881869       -2.04524329477931
H           -0.85017923449469        0.35918653423160        0.85443836931540
H            0.20576804380266        1.64109477904830        0.23804286441068
H            2.34996107308303       -0.83784173252237        0.61151665674396
H            2.17300908718065        0.90397238078802        0.34626244704352
H            2.63570822331449        0.60339947248140       -2.06640527982007
H            2.80885355548847       -1.13951258193672       -1.82802727836468
H            4.47468945372660        2.07538703901574       -1.58675337456955
H            6.80397098762190        2.38411693729587       -0.94089598048583
H            8.63769239053775        2.45099420950858        0.56303054006316
H            9.13935507157431        1.90465882922873       -1.06283973689311
H           10.07380239973974        1.41525804245141        0.37217549239684
H            7.44497221529098       -3.69007745783218        1.21390858900085
H            5.79712790387272       -3.06465182164696        1.46689540645668
H            6.32099779455974       -3.58201444210181       -0.16280389608279
H            4.59928281434405       -1.97706476211496       -0.27029071795705
H           -0.78280611705449       -1.68159343644414       -0.94932419342426
H            0.09443689044413       -2.01540996647907        0.55408551440398
H            0.89167974953984       -2.24446468643667       -1.01514956840187
H           -4.83209387980291        3.10616752334119       -0.72032394784687
H           -5.06838333883988        2.77288232803992        2.30364856668481
H           -5.91921902678425        1.78692186770077        1.11146131822383
H           -6.25787692957794        3.51262287482545        1.23515961317450
H           -3.14757507900312        4.37226798250737        1.48110380062727
H           -3.14481966353790        4.79231083563257       -0.23692373672992
H           -4.54633417967312        5.16982934177682        0.75623729934030
H           -1.87499208214014        1.91823481875178        3.37388721085187

          :  Hamiltonian                  GFN2-xTB          :
         :: total energy             -99.278554619283 Eh    ::
         :: gradient norm              0.003110940381 Eh/a0 ::
         :: HOMO-LUMO gap              0.655968612418 eV    ::
         :: SCC energy              -100.639673983870 Eh    ::
         :: -> dispersion             -0.072008449812 Eh    ::
         :: repulsion energy           1.359793823504 Eh    ::

    * Orbital Energies and Occupations

         #    Occupation            Energy/Eh            Energy/eV
      -------------------------------------------------------------
         1        2.0000           -0.8323931             -22.6506
       ...           ...                  ...                  ...
        78        1.9963           -0.5320062             -14.4766
        79        1.9949           -0.5269228             -14.3383
        80        1.9941           -0.5245957             -14.2750
        81        1.9936           -0.5233378             -14.2407
        82        1.9867           -0.5117619             -13.9258
        83        1.9855           -0.5103670             -13.8878
        84        1.9845           -0.5093213             -13.8593
        85        1.9584           -0.4934559             -13.4276
        86        1.9204           -0.4828557             -13.1392
        87        1.8558           -0.4729176             -12.8687
        88        1.8010           -0.4673416             -12.7170
        89        1.7785           -0.4654421             -12.6653
        90        1.6681           -0.4580274             -12.4636 (HOMO)
        91        1.0461           -0.4339210             -11.8076 (LUMO)
        92        0.0570           -0.3765720             -10.2470
        93        0.0014           -0.3175767              -8.6417
        94        0.0012           -0.3151818              -8.5765
        95        0.0005           -0.3016647              -8.2087
        96        0.0001           -0.2807492              -7.6396
        97        0.0000           -0.2406498              -6.5484
        98        0.0000           -0.1930850              -5.2541
        99                         -0.1089476              -2.9646
       100                         -0.0929261              -2.5286
       101                         -0.0839169              -2.2835
       ...                                ...                  ...
       171                          0.7334487              19.9582
      -------------------------------------------------------------
                  HL-Gap            0.0241064 Eh            0.6560 eV

     #   Z          covCN         q      C6AA      α(0)
     1   7 N        1.772    -0.290    28.335     7.882
     2   6 C        3.240     0.129    24.330     7.997
     3   6 C        4.186     0.000    20.492     6.429
     4   6 C        3.316     0.029    25.324     8.021
     5   6 C        2.890    -0.080    29.988     8.978
     6   6 C        2.849     0.151    24.720     8.149
     7   8 O        1.706    -0.213    17.533     5.653
     8   6 C        3.643     0.020    20.578     6.522
     9   6 C        2.854     0.151    24.711     8.148
    10   8 O        1.705    -0.234    17.885     5.710
    11   6 C        3.661     0.028    20.379     6.477
    12   6 C        1.921    -0.139    35.015     9.556
    13   6 C        3.169    -0.067    29.280     8.841
    14   6 C        3.803    -0.067    21.775     6.644
    15   6 C        3.801    -0.066    21.773     6.644
    16   6 C        3.747    -0.006    20.754     6.498
    17   7 N        2.728    -0.095    23.095     7.138
    18   6 C        3.749    -0.002    20.680     6.486
    19   6 C        3.808    -0.072    21.879     6.658
    20   6 C        2.967     0.012    27.734     8.638
    21   6 C        2.921    -0.042    29.036     8.837
    22   6 C        2.912    -0.064    29.587     8.919
    23   6 C        2.864     0.137    25.004     8.196
    24   8 O        1.706    -0.210    17.494     5.647
    25   6 C        3.645     0.022    20.544     6.514
    26   6 C        2.862     0.137    25.006     8.197
    27   8 O        1.706    -0.214    17.554     5.657
    28   6 C        3.645     0.024    20.506     6.508
    29   6 C        2.919    -0.075    29.884     8.964
    30   6 C        3.702    -0.049    21.621     6.648
    31   6 C        3.851    -0.008    20.682     6.468
    32   6 C        3.756    -0.109    22.646     6.785
    33   6 C        3.756    -0.119    22.832     6.813
    34   1 H        0.925     0.064     2.147     2.292
    35   1 H        0.924     0.066     2.125     2.279
    36   1 H        0.925     0.090     1.876     2.142
    37   1 H        0.924     0.060     2.197     2.318
    38   1 H        0.924     0.051     2.304     2.374
    39   1 H        0.925     0.078     1.996     2.209
    40   1 H        0.924     0.063     2.165     2.301
    41   1 H        0.927     0.074     2.045     2.236
    42   1 H        0.926     0.048     2.346     2.395
    43   1 H        0.924     0.053     2.285     2.364
    44   1 H        0.924     0.064     2.157     2.297
    45   1 H        0.924     0.039     2.464     2.455
    46   1 H        0.924     0.056     2.241     2.341
    47   1 H        0.923     0.041     2.432     2.439
    48   1 H        0.924     0.058     2.225     2.333
    49   1 H        0.924     0.047     2.363     2.404
    50   1 H        0.924     0.054     2.276     2.359
    51   1 H        0.925     0.062     2.180     2.309
    52   1 H        0.924     0.058     2.218     2.329
    53   1 H        0.926     0.057     2.228     2.334
    54   1 H        0.926     0.064     2.152     2.294
    55   1 H        0.924     0.060     2.194     2.317
    56   1 H        0.924     0.061     2.183     2.311
    57   1 H        0.925     0.087     1.913     2.163
    58   1 H        0.925     0.086     1.922     2.168
    59   1 H        0.924     0.055     2.259     2.351
    60   1 H        0.924     0.058     2.224     2.332
    61   1 H        0.926     0.055     2.262     2.352
    62   1 H        0.925     0.058     2.219     2.329
    63   1 H        0.923     0.044     2.402     2.423
    64   1 H        0.925     0.063     2.168     2.302
    65   1 H        0.924     0.039     2.456     2.451
    66   1 H        0.925     0.046     2.369     2.407
    67   1 H        0.925     0.038     2.482     2.464
    68   1 H        0.925     0.053     2.285     2.364
    69   1 H        0.925     0.066     2.125     2.279
    70   1 H        0.925     0.045     2.388     2.416
    71   1 H        0.925     0.055     2.253     2.347
    72   1 H        0.860     0.163     1.314     1.796

Wiberg/Mayer (AO) data.
largest (>0.10) Wiberg bond orders for each atom

     #   Z sym  total        # sym  WBO       # sym  WBO       # sym  WBO
 ---------------------------------------------------------------------------
     1   7 N    2.905 --     2 C    1.810    72 H    0.929
     2   6 C    3.917 --     1 N    1.810    13 C    1.084     3 C    0.931
     3   6 C    3.937 --    14 C    0.974     4 C    0.960    31 C    0.954
                             2 C    0.931
     4   6 C    3.922 --    13 C    1.544     5 C    1.234     3 C    0.960
     5   6 C    3.893 --     6 C    1.525     4 C    1.234    34 H    0.945
     6   6 C    3.775 --     5 C    1.525     7 O    1.152     9 C    0.915
     7   8 O    2.295 --     6 C    1.152     8 C    0.961
     8   6 C    3.915 --    36 H    0.975    37 H    0.972    35 H    0.972
                             7 O    0.961
     9   6 C    3.893 --    12 C    1.825    10 O    1.080     6 C    0.915
    10   8 O    2.222 --     9 C    1.080    11 C    0.970    12 C    0.118
    11   6 C    3.920 --    39 H    0.978    38 H    0.972    40 H    0.972
                            10 O    0.970
    12   6 C    3.011 --     9 C    1.825    41 H    0.957    10 O    0.118
    13   6 C    3.811 --     4 C    1.544     2 C    1.084    42 H    0.960
    14   6 C    3.977 --    15 C    1.005     3 C    0.974    43 H    0.967
                            44 H    0.966
    15   6 C    3.973 --    14 C    1.005    16 C    0.989    46 H    0.972
                            45 H    0.967
    16   6 C    3.960 --    17 N    1.007    15 C    0.989    48 H    0.967
                            47 H    0.944
    17   7 N    3.102 --    30 C    1.021    18 C    1.012    16 C    1.007
    18   6 C    3.959 --    17 N    1.012    50 H    0.969    19 C    0.962
                            49 H    0.958
    19   6 C    3.967 --    20 C    1.017    51 H    0.972    52 H    0.964
                            18 C    0.962
    20   6 C    3.917 --    21 C    1.385    29 C    1.382    19 C    1.017
    21   6 C    3.919 --    22 C    1.427    20 C    1.385    53 H    0.966
    22   6 C    3.943 --    21 C    1.427    23 C    1.369    54 H    0.962
    23   6 C    3.863 --    22 C    1.369    26 C    1.202    24 O    1.123
    24   8 O    2.248 --    23 C    1.123    25 C    0.974
    25   6 C    3.921 --    57 H    0.976    24 O    0.974    56 H    0.970
                            55 H    0.970
    26   6 C    3.872 --    29 C    1.387    23 C    1.202    27 O    1.117
    27   8 O    2.249 --    26 C    1.117    28 C    0.976
    28   6 C    3.925 --    58 H    0.976    27 O    0.976    59 H    0.971
                            60 H    0.971
    29   6 C    3.945 --    26 C    1.387    20 C    1.382    61 H    0.961
    30   6 C    3.966 --    17 N    1.021    64 H    0.976    62 H    0.975
                            63 H    0.959
    31   6 C    3.969 --    32 C    1.006    33 C    1.005    65 H    0.955
                             3 C    0.954
    32   6 C    3.980 --    31 C    1.006    68 H    0.982    66 H    0.981
                            67 H    0.980
    33   6 C    3.971 --    31 C    1.005    70 H    0.981    71 H    0.978
                            69 H    0.974
    34   1 H    0.986 --     5 C    0.945
    35   1 H    0.991 --     8 C    0.972
    36   1 H    0.991 --     8 C    0.975
    37   1 H    0.991 --     8 C    0.972
    38   1 H    0.992 --    11 C    0.972
    39   1 H    0.993 --    11 C    0.978
    40   1 H    0.991 --    11 C    0.972
    41   1 H    0.978 --    12 C    0.957
    42   1 H    0.988 --    13 C    0.960
    43   1 H    0.991 --    14 C    0.967
    44   1 H    0.993 --    14 C    0.966
    45   1 H    0.997 --    15 C    0.967
    46   1 H    0.993 --    15 C    0.972
    47   1 H    0.973 --    16 C    0.944
    48   1 H    0.996 --    16 C    0.967
    49   1 H    0.979 --    18 C    0.958
    50   1 H    0.995 --    18 C    0.969
    51   1 H    0.994 --    19 C    0.972
    52   1 H    0.992 --    19 C    0.964
    53   1 H    0.995 --    21 C    0.966
    54   1 H    0.994 --    22 C    0.962
    55   1 H    0.988 --    25 C    0.970
    56   1 H    0.988 --    25 C    0.970
    57   1 H    0.991 --    25 C    0.976
    58   1 H    0.992 --    28 C    0.976
    59   1 H    0.990 --    28 C    0.971
    60   1 H    0.989 --    28 C    0.971
    61   1 H    0.995 --    29 C    0.961
    62   1 H    0.993 --    30 C    0.975
    63   1 H    0.970 --    30 C    0.959
    64   1 H    0.992 --    30 C    0.976
    65   1 H    0.986 --    31 C    0.955
    66   1 H    0.994 --    32 C    0.981
    67   1 H    0.995 --    32 C    0.980
    68   1 H    0.994 --    32 C    0.982
    69   1 H    0.989 --    33 C    0.974
    70   1 H    0.994 --    33 C    0.981
    71   1 H    0.991 --    33 C    0.978
    72   1 H    0.960 --     1 N    0.929
 ---------------------------------------------------------------------------

molecular dipole:
                 x           y           z       tot (Debye)
 q only:        0.875      -0.212      -0.765
   full:        0.647      -0.544      -0.739       2.854

           -------------------------------------------------
          | TOTAL ENERGY              -99.278554619283 Eh   |
          | GRADIENT NORM               0.003110940381 Eh/α |
          | HOMO-LUMO GAP               0.655968612418 eV   |
           -------------------------------------------------

 * finished run on 2024/04/06 at 11:13:07.152
