   * xtb version 6.6.1 (8d0f1dd) compiled by 'conda@1efc2f54142f' on 2023-08-01
          program call               : xtb struc.xyz --opt loose --input .xc1 --gfn2

   ID    Z sym.   atoms
    1    6 C      1, 3, 5-7, 10, 11, 14
    2    7 N      2, 4, 9, 13
    3    8 O      8, 12
    4    1 H      15-25
constraining bond 3 13 to    5.9200000 Å, actual value:    3.5082066 Å

          :  Hamiltonian                  GFN2-xTB          :
 * total energy  :   -31.8592944 Eh     change       -0.6633627E-10 Eh
 * total energy  :   -35.8153915 Eh     change       -0.3956097E+01 Eh
 * total energy  :   -38.6524311 Eh     change       -0.2837040E+01 Eh
 * total energy  :   -40.5385252 Eh     change       -0.1886094E+01 Eh
 * total energy  :   -41.4327822 Eh     change       -0.8942571E+00 Eh
 * total energy  :   -41.6000820 Eh     change       -0.1672997E+00 Eh
 * total energy  :   -41.6348453 Eh     change       -0.3476339E-01 Eh
 * total energy  :   -41.7144827 Eh     change       -0.7963731E-01 Eh
 * total energy  :   -41.7601884 Eh     change       -0.4570578E-01 Eh
 * total energy  :   -41.7865377 Eh     change       -0.2634928E-01 Eh
 * total energy  :   -41.9295055 Eh     change       -0.1464358E-03 Eh
 * total energy  :   -41.9296303 Eh     change       -0.1247656E-03 Eh
 * total energy  :   -41.9297343 Eh     change       -0.1039454E-03 Eh
 * total energy  :   -41.9298455 Eh     change       -0.1112685E-03 Eh
 * total energy  :   -41.9299247 Eh     change       -0.7918830E-04 Eh
 * total energy  :   -41.9300008 Eh     change       -0.7606373E-04 Eh
 * total energy  :   -41.9300596 Eh     change       -0.5884380E-04 Eh
 * total energy  :   -41.9301065 Eh     change       -0.4691801E-04 Eh
 * total energy  :   -41.9301215 Eh     change       -0.1494048E-04 Eh
   *** GEOMETRY OPTIMIZATION CONVERGED AFTER 122 ITERATIONS ***

 final structure:
================
25
 xtb: 6.6.1 (8d0f1dd)
C            5.89369218088591        0.62634719830499       -0.66832680817843
N            4.79090403212207       -0.05603566928719       -0.17756034263437
C            3.86721391310807       -0.61518114251802        0.23354970896931
N            1.40603116310513       -1.04767186803157        1.25463030803630
C            0.52888931943419       -0.20295494669412        0.88272536943556
C           -0.23009224835699        0.64866780334954        0.42798666759859
C           -1.21207560245173        1.48171772188311       -0.01127190955211
O           -1.30761756188608        2.53863536801581       -0.52776252191531
N           -2.63148424650226        0.76144353417781        0.29301235131367
C           -3.77529449953229        1.62713076381305        0.46323388241513
C           -2.67559951600469       -0.49345310138720        0.29448747140914
O           -3.45926663334980       -1.51856210113536        0.46153818638986
N           -1.96527747073020       -1.63826674738246        0.22149891744979
C           -1.59468805913956       -2.25296252057580       -1.02304363162333
H            6.57943859860711        0.84029105407711        0.15219905876809
H            6.39800730602856        0.01486171395544       -1.41751548182487
H            5.56091751464082        1.56168465187286       -1.12207434958454
H            2.42333733010417       -0.92759108640529        0.94537584243938
H           -3.86306041875010        1.90944906076769        1.51319112589192
H           -3.58784177788672        2.52512462306324       -0.12840083481056
H           -4.69123170682064        1.13881662300883        0.13689816436783
H           -0.56302331554080       -1.95990936040997       -1.21480570307150
H           -2.22249207085409       -1.95466588486770       -1.86486884955823
H           -1.64371274463282       -3.33196604685433       -0.88638947635221
H            1.13475802837380       -1.85671109903588        1.79286447191199

          :  Hamiltonian                  GFN2-xTB          :
         :: total energy             -41.930121475071 Eh    ::
         :: gradient norm              0.003495109259 Eh/a0 ::
         :: HOMO-LUMO gap              2.730731612016 eV    ::
         :: SCC energy               -42.563586805520 Eh    ::
         :: -> dispersion             -0.017874723002 Eh    ::
         :: repulsion energy           0.633425827249 Eh    ::

    * Orbital Energies and Occupations

         #    Occupation            Energy/Eh            Energy/eV
      -------------------------------------------------------------
         1        2.0000           -0.9537803             -25.9537
       ...           ...                  ...                  ...
        25        2.0000           -0.6561784             -17.8555
        26        2.0000           -0.6476030             -17.6222
        27        2.0000           -0.6366834             -17.3250
        28        2.0000           -0.6311929             -17.1756
        29        2.0000           -0.6275758             -17.0772
        30        2.0000           -0.6051160             -16.4660
        31        2.0000           -0.5846603             -15.9094
        32        2.0000           -0.5809950             -15.8097
        33        2.0000           -0.5770718             -15.7029
        34        2.0000           -0.5747064             -15.6386
        35        2.0000           -0.5739538             -15.6181
        36        1.9992           -0.5404652             -14.7068
        37        1.9968           -0.5295874             -14.4108 (HOMO)
        38        0.0039           -0.4292349             -11.6801 (LUMO)
        39        0.0000           -0.3927592             -10.6875
        40        0.0000           -0.3823376             -10.4039
        41        0.0000           -0.3502271              -9.5302
        42                         -0.3368657              -9.1666
        43                         -0.3364146              -9.1543
        44                         -0.2309823              -6.2853
        45                         -0.2181136              -5.9352
        46                         -0.1960829              -5.3357
        47                         -0.1238259              -3.3695
        48                         -0.0673659              -1.8331
       ...                                ...                  ...
        67                          1.2735983              34.6564
      -------------------------------------------------------------
                  HL-Gap            0.1003525 Eh            2.7307 eV

     #   Z          covCN         q      C6AA      α(0)
     1   6 C        3.685    -0.056    21.789     6.683
     2   7 N        1.820     0.053    20.967     6.785
     3   6 C        0.965    -0.143    40.443    10.673
     4   7 N        2.626    -0.176    24.815     7.398
     5   6 C        1.892     0.087    28.939     8.688
     6   6 C        1.969    -0.119    34.393     9.471
     7   6 C        2.719     0.296    21.976     7.674
     8   8 O        0.857    -0.278    19.392     5.904
     9   7 N        2.700    -0.060    22.395     7.029
    10   6 C        3.700    -0.063    21.876     6.689
    11   6 C        2.707     0.329    21.407     7.573
    12   8 O        1.727    -0.173    16.902     5.551
    13   7 N        2.691    -0.032    21.859     6.944
    14   6 C        3.690    -0.061    21.870     6.693
    15   1 H        0.924     0.096     1.818     2.108
    16   1 H        0.924     0.096     1.823     2.111
    17   1 H        0.924     0.094     1.843     2.123
    18   1 H        0.907     0.262     0.835     1.430
    19   1 H        0.924     0.108     1.716     2.048
    20   1 H        0.924     0.129     1.539     1.940
    21   1 H        0.925     0.097     1.811     2.105
    22   1 H        0.925     0.106     1.729     2.056
    23   1 H        0.924     0.080     1.981     2.201
    24   1 H        0.925     0.116     1.649     2.008
    25   1 H        0.860     0.210     1.055     1.609

Wiberg/Mayer (AO) data.
largest (>0.10) Wiberg bond orders for each atom

     #   Z sym  total        # sym  WBO       # sym  WBO       # sym  WBO
 ---------------------------------------------------------------------------
     1   6 C    3.962 --     2 N    1.039    16 H    0.950    17 H    0.950
                            15 H    0.949
     2   7 N    3.721 --     3 C    2.665     1 C    1.039
     3   6 C    3.108 --     2 N    2.665    18 H    0.174
     4   7 N    3.486 --     5 C    1.492    25 H    0.914    18 H    0.721
                             6 C    0.134
     5   6 C    3.966 --     6 C    2.312     4 N    1.492
     6   6 C    3.947 --     5 C    2.312     7 C    1.287     4 N    0.134
                             8 O    0.108
     7   6 C    3.928 --     8 O    1.845     6 C    1.287     9 N    0.658
     8   8 O    2.254 --     7 C    1.845     9 N    0.109     6 C    0.108
     9   7 N    3.607 --    11 C    1.619    10 C    0.968     7 C    0.658
                            12 O    0.121     8 O    0.109
    10   6 C    3.915 --    21 H    0.970     9 N    0.968    20 H    0.956
                            19 H    0.954
    11   6 C    3.929 --     9 N    1.619    12 O    1.117    13 N    1.079
    12   8 O    2.201 --    11 C    1.117    13 N    0.848     9 N    0.121
    13   7 N    3.067 --    11 C    1.079    14 C    0.998    12 O    0.848
    14   6 C    3.936 --    13 N    0.998    23 H    0.973    24 H    0.966
                            22 H    0.945
    15   1 H    0.991 --     1 C    0.949
    16   1 H    0.991 --     1 C    0.950
    17   1 H    0.991 --     1 C    0.950
    18   1 H    0.929 --     4 N    0.721     3 C    0.174
    19   1 H    0.988 --    10 C    0.954
    20   1 H    0.983 --    10 C    0.956
    21   1 H    0.988 --    10 C    0.970
    22   1 H    0.989 --    14 C    0.945
    23   1 H    0.994 --    14 C    0.973
    24   1 H    0.985 --    14 C    0.966
    25   1 H    0.955 --     4 N    0.914
 ---------------------------------------------------------------------------

molecular dipole:
                 x           y           z       tot (Debye)
 q only:        0.669      -0.941       0.277
   full:        0.684      -0.960       0.110       3.009

           -------------------------------------------------
          | TOTAL ENERGY              -41.930121475071 Eh   |
          | GRADIENT NORM               0.003495109259 Eh/α |
          | HOMO-LUMO GAP               2.730731612016 eV   |
           -------------------------------------------------

 * finished run on 2024/06/05 at 19:57:57.643
