   * xtb version 6.6.1 (8d0f1dd) compiled by 'conda@1efc2f54142f' on 2023-08-01
          program call               : xtb xtbopt.xyz --opt crude --input .xc2 --gfn2

   ID    Z sym.   atoms
    1    6 C      1, 3, 5-7, 10, 11, 14
    2    7 N      2, 4, 9, 13
    3    8 O      8, 12
    4    1 H      15-25

          :  Hamiltonian                  GFN2-xTB          :
 * total energy  :   -41.9301258 Eh     change        0.7815970E-13 Eh
 * total energy  :   -41.9303768 Eh     change       -0.2510395E-03 Eh
   *** GEOMETRY OPTIMIZATION CONVERGED AFTER 2 ITERATIONS ***

 final structure:
================
25
 xtb: 6.6.1 (8d0f1dd)
C            5.91086506978586        0.63257785881351       -0.67411710628636
N            4.80971894264564       -0.04625663510309       -0.17711651189205
C            3.90054186562660       -0.60378305566699        0.26617104037132
N            1.41538781811141       -1.04015954329099        1.26905100510104
C            0.51381328669368       -0.23703951025822        0.86062523913444
C           -0.23710348308970        0.63519736892084        0.43150972523115
C           -1.21450131081045        1.47786115254599       -0.00064837595696
O           -1.30392703252521        2.53172465373579       -0.52450031554313
N           -2.63842022419513        0.75996715324474        0.29371817055441
C           -3.77802702162632        1.63100089457221        0.46214785181522
C           -2.69311810901384       -0.49512846472540        0.29223863337964
O           -3.48721387118602       -1.51399907399875        0.45037256087407
N           -1.99308367204708       -1.64563891938060        0.22149742408840
C           -1.60835773908702       -2.25527257980038       -1.02175218421194
H            6.59889548668679        0.84659716150748        0.14448587081472
H            6.41032900999897        0.01628476413403       -1.42252295871576
H            5.57758733340266        1.56681893515757       -1.12882997172540
H            2.42661527465565       -0.91936569279133        0.93702158830788
H           -3.86412714049425        1.91473916607009        1.51172439939935
H           -3.58723906111789        2.52729648371575       -0.13070062150530
H           -4.69554072349204        1.14506726764253        0.13705086056457
H           -0.57453220209258       -1.96064583666345       -1.20131319796067
H           -2.22694471762232       -1.95344281631457       -1.86899386024478
H           -1.65704348709704       -3.33489001330965       -0.89050750347741
H            1.15585722185950       -1.86127217705120        1.79455985517494

          :  Hamiltonian                  GFN2-xTB          :
         :: total energy             -41.930376831160 Eh    ::
         :: gradient norm              0.005887547385 Eh/a0 ::
         :: HOMO-LUMO gap              2.735605688537 eV    ::
         :: SCC energy               -42.563335458956 Eh    ::
         :: -> dispersion             -0.017833234155 Eh    ::
         :: repulsion energy           0.632924897105 Eh    ::

    * Orbital Energies and Occupations

         #    Occupation            Energy/Eh            Energy/eV
      -------------------------------------------------------------
         1        2.0000           -0.9539356             -25.9579
       ...           ...                  ...                  ...
        25        2.0000           -0.6558699             -17.8471
        26        2.0000           -0.6482507             -17.6398
        27        2.0000           -0.6369517             -17.3323
        28        2.0000           -0.6314773             -17.1834
        29        2.0000           -0.6277598             -17.0822
        30        2.0000           -0.6051319             -16.4665
        31        2.0000           -0.5847772             -15.9126
        32        2.0000           -0.5813149             -15.8184
        33        2.0000           -0.5770769             -15.7031
        34        2.0000           -0.5741805             -15.6242
        35        2.0000           -0.5735081             -15.6059
        36        1.9992           -0.5407546             -14.7147
        37        1.9969           -0.5301137             -14.4251 (HOMO)
        38        0.0039           -0.4295820             -11.6895 (LUMO)
        39        0.0000           -0.3932269             -10.7002
        40        0.0000           -0.3822962             -10.4028
        41        0.0000           -0.3507043              -9.5432
        42                         -0.3361015              -9.1458
        43                         -0.3357121              -9.1352
        44                         -0.2317403              -6.3060
        45                         -0.2196189              -5.9761
        46                         -0.1960108              -5.3337
        47                         -0.1241687              -3.3788
        48                         -0.0677728              -1.8442
       ...                                ...                  ...
        67                          1.2670092              34.4771
      -------------------------------------------------------------
                  HL-Gap            0.1005317 Eh            2.7356 eV

     #   Z          covCN         q      C6AA      α(0)
     1   6 C        3.685    -0.056    21.785     6.682
     2   7 N        1.820     0.053    20.976     6.786
     3   6 C        0.958    -0.143    40.405    10.664
     4   7 N        2.626    -0.174    24.786     7.394
     5   6 C        1.892     0.086    28.968     8.693
     6   6 C        1.969    -0.118    34.364     9.467
     7   6 C        2.718     0.296    21.973     7.673
     8   8 O        0.857    -0.277    19.373     5.901
     9   7 N        2.700    -0.060    22.408     7.030
    10   6 C        3.700    -0.063    21.874     6.688
    11   6 C        2.707     0.329    21.408     7.573
    12   8 O        1.727    -0.172    16.895     5.550
    13   7 N        2.691    -0.031    21.852     6.943
    14   6 C        3.690    -0.061    21.866     6.692
    15   1 H        0.924     0.096     1.819     2.109
    16   1 H        0.924     0.096     1.826     2.113
    17   1 H        0.924     0.094     1.844     2.124
    18   1 H        0.899     0.261     0.837     1.432
    19   1 H        0.924     0.108     1.716     2.049
    20   1 H        0.924     0.129     1.540     1.941
    21   1 H        0.925     0.097     1.813     2.106
    22   1 H        0.925     0.105     1.736     2.060
    23   1 H        0.924     0.080     1.979     2.200
    24   1 H        0.925     0.116     1.650     2.009
    25   1 H        0.860     0.210     1.055     1.609

Wiberg/Mayer (AO) data.
largest (>0.10) Wiberg bond orders for each atom

     #   Z sym  total        # sym  WBO       # sym  WBO       # sym  WBO
 ---------------------------------------------------------------------------
     1   6 C    3.962 --     2 N    1.040    16 H    0.950    17 H    0.950
                            15 H    0.949
     2   7 N    3.721 --     3 C    2.665     1 C    1.040
     3   6 C    3.105 --     2 N    2.665    18 H    0.171
     4   7 N    3.486 --     5 C    1.490    25 H    0.915    18 H    0.723
                             6 C    0.135
     5   6 C    3.966 --     6 C    2.313     4 N    1.490
     6   6 C    3.947 --     5 C    2.313     7 C    1.287     4 N    0.135
                             8 O    0.108
     7   6 C    3.928 --     8 O    1.847     6 C    1.287     9 N    0.657
     8   8 O    2.257 --     7 C    1.847     9 N    0.109     6 C    0.108
     9   7 N    3.607 --    11 C    1.619    10 C    0.968     7 C    0.657
                            12 O    0.121     8 O    0.109
    10   6 C    3.916 --    21 H    0.970     9 N    0.968    20 H    0.956
                            19 H    0.954
    11   6 C    3.929 --     9 N    1.619    12 O    1.116    13 N    1.081
    12   8 O    2.201 --    11 C    1.116    13 N    0.848     9 N    0.121
    13   7 N    3.069 --    11 C    1.081    14 C    0.997    12 O    0.848
    14   6 C    3.936 --    13 N    0.997    23 H    0.973    24 H    0.966
                            22 H    0.945
    15   1 H    0.991 --     1 C    0.949
    16   1 H    0.991 --     1 C    0.950
    17   1 H    0.991 --     1 C    0.950
    18   1 H    0.931 --     4 N    0.723     3 C    0.171
    19   1 H    0.988 --    10 C    0.954
    20   1 H    0.983 --    10 C    0.956
    21   1 H    0.989 --    10 C    0.970
    22   1 H    0.989 --    14 C    0.945
    23   1 H    0.993 --    14 C    0.973
    24   1 H    0.985 --    14 C    0.966
    25   1 H    0.955 --     4 N    0.915
 ---------------------------------------------------------------------------

molecular dipole:
                 x           y           z       tot (Debye)
 q only:        0.654      -0.939       0.262
   full:        0.665      -0.974       0.068       3.003

           -------------------------------------------------
          | TOTAL ENERGY              -41.930376831160 Eh   |
          | GRADIENT NORM               0.005887547385 Eh/α |
          | HOMO-LUMO GAP               2.735605688537 eV   |
           -------------------------------------------------

 * finished run on 2024/06/05 at 19:57:57.818
