   * xtb version 6.6.1 (8d0f1dd) compiled by 'conda@1efc2f54142f' on 2023-08-01
          program call               : xtb struc.xyz --opt loose --input .xc1 --gfn2

   ID    Z sym.   atoms
    1    7 N      1, 17
    2    6 C      2-6, 8, 9, 11-16, 18-23, 25, 26, 28-33
    3    8 O      7, 10, 24, 27
    4    1 H      34-72
constraining bond 5 63 to    8.7133300 Å, actual value:    3.6338659 Å

          :  Hamiltonian                  GFN2-xTB          :
 * total energy  :  -104.0109742 Eh     change       -0.4035485E-08 Eh
 * total energy  :  -105.2907145 Eh     change       -0.1279740E+01 Eh
 * total energy  :  -106.6660321 Eh     change       -0.1375318E+01 Eh
 * total energy  :  -108.2085090 Eh     change       -0.1542477E+01 Eh
 * total energy  :  -109.9566623 Eh     change       -0.1748153E+01 Eh
 * total energy  :  -100.0982216 Eh     change        0.9858441E+01 Eh
 * total energy  :  -110.2482875 Eh     change       -0.1015007E+02 Eh
 * total energy  :  -110.2995790 Eh     change       -0.5129156E-01 Eh
 * total energy  :  -110.3570220 Eh     change       -0.5744299E-01 Eh
 * total energy  :  -110.4019796 Eh     change       -0.4495758E-01 Eh
 * total energy  :  -110.6068454 Eh     change       -0.1220294E-03 Eh
 * total energy  :  -110.6069425 Eh     change       -0.9710346E-04 Eh
 * total energy  :  -110.6070532 Eh     change       -0.1106923E-03 Eh
 * total energy  :  -110.6071627 Eh     change       -0.1094464E-03 Eh
 * total energy  :  -110.6072745 Eh     change       -0.1118946E-03 Eh
 * total energy  :  -110.6073636 Eh     change       -0.8908639E-04 Eh
 * total energy  :  -110.6074538 Eh     change       -0.9021343E-04 Eh
 * total energy  :  -110.6075029 Eh     change       -0.4905255E-04 Eh
 * total energy  :  -110.6075426 Eh     change       -0.3974596E-04 Eh
   *** GEOMETRY OPTIMIZATION CONVERGED AFTER 59 ITERATIONS ***

 final structure:
================
72
 xtb: 6.6.1 (8d0f1dd)
N           -1.91948911698601        2.75957222900157        2.27149801735627
C           -1.85781028003592        2.00411175379368        1.27691827596977
C           -2.96826581496130        1.84088690700656        0.27110126767429
C           -3.55369854257226        0.45031005008921        0.39908932841302
C           -4.55232945153319        0.05167324423169       -0.67859627313280
C           -4.95070391700752       -1.40589079720965       -0.56826614243036
O           -5.73121298117091       -1.95724918847938       -1.50732060151628
C           -6.19799801469336       -1.17605606864557       -2.58371716085631
C           -4.57370348461277       -2.22271299966170        0.49905959810676
O           -5.05254160337731       -3.48837568584746        0.45680966192085
C           -4.72533753903713       -4.37412830498860        1.50307661387926
C           -3.74661048470629       -1.70669616074139        1.49613354766915
C           -3.24460243260864       -0.39687237095374        1.41306531739949
C           -2.32277366868404        1.99875831672502       -1.13369797239278
C           -1.42602036671187        0.82389094705269       -1.56350590418686
C           -0.05852062413890        0.88508164993735       -0.97978508801293
N            0.62679014001339       -0.15274901002938       -0.51243775759584
C            2.01517620421927        0.09644471868360       -0.13378603902085
C            2.95077289563625       -0.16714398944868       -1.32427080061715
C            4.38590092249639        0.00912881712732       -0.91214416746086
C            5.01630328784864        1.23621237177128       -1.03756991261082
C            6.33385737520347        1.40142394090330       -0.63893332885337
C            7.04724523147808        0.34039305038484       -0.10005752628032
O            8.32487761548660        0.38616304221152        0.32117977028006
C            9.03861924654979        1.59682077897809        0.22420874080318
C            6.40834209589155       -0.92352933909346        0.03367545953916
O            7.17389289626745       -1.90072888956783        0.55892894625108
C            6.63430417646888       -3.19129689201417        0.71350248559713
C            5.09020888221531       -1.06352513920457       -0.37072371403285
C            0.20243518057962       -1.40267935988776       -0.39127259481262
C           -4.10681437365121        2.89518139163156        0.44122989626241
C           -4.86488769913293        2.69531652644154        1.75176403662134
C           -3.60864876072782        4.33492017849243        0.35663558612669
H           -5.49168790566828        0.59314496781863       -0.38221982159811
H           -6.81714937749589       -0.34310332748446       -2.23705775147507
H           -6.80657094836167       -1.84616827935885       -3.18780499181903
H           -5.37496705790220       -0.78958783847560       -3.19267610408324
H           -5.09484890472893       -4.01064052837600        2.46668596755299
H           -5.22296330985645       -5.31014980847093        1.25722937756629
H           -3.64589883102522       -4.54229266904614        1.56341851090427
H           -3.46384382086649       -2.31377633515336        2.33757983428829
H           -2.57733895016296       -0.07181674736271        2.19667157852022
H           -3.11964500074407        2.11832267436018       -1.86859778192477
H           -1.73104969240007        2.91404229625747       -1.14541265066408
H           -1.90650966354004       -0.12005898277713       -1.31146398827710
H           -1.33613349612014        0.86737418074400       -2.65678722452065
H           -0.97244191017458        1.40052196584157        1.01727122319217
H            0.47116668134982        1.82037991743401       -1.05467806646006
H            2.28421761498351       -0.56234836301512        0.69365987260884
H            2.12680802362781        1.13032662611236        0.19772353830159
H            2.70677596399908        0.52533544353390       -2.13161565653563
H            2.78605990600093       -1.18470277944143       -1.68318701694337
H            4.48568755603408        2.07555588076922       -1.46035246309945
H            6.80037816936072        2.36537247971291       -0.75831984597505
H            8.55821343133208        2.39309628163876        0.80057918757088
H            9.14838189100481        1.91456904299987       -0.81706386002070
H           10.02109542235905        1.39046890977766        0.64401077654873
H            7.44005928889896       -3.79865234086986        1.11988257942831
H            5.79337719898946       -3.19217166893225        1.41371137144923
H            6.31384464505262       -3.61155115319905       -0.24437241261161
H            4.59813787634901       -2.01936581126533       -0.28133462634588
H           -0.78015029875036       -1.69088237201716       -0.70028063791154
H           -4.36275033461414        0.21444796987064       -1.26741552942659
H            0.84933778335412       -2.13248864410362        0.04988621607685
H           -4.80415145098946        2.74033822332741       -0.39140622518045
H           -4.20561985510160        2.89356181863107        2.59023995289464
H           -5.24941130425869        1.68232698034091        1.84591739306733
H           -5.70218428336020        3.38650577627475        1.79802073635659
H           -2.89037958975089        4.53309905014510        1.14536611501461
H           -3.15478176531613        4.55248001930442       -0.60664538026738
H           -4.45053938883080        5.01001988410940        0.48687442608919
H           -1.10276570969057        2.80595106417091        2.87343665424738

          :  Hamiltonian                  GFN2-xTB          :
         :: total energy            -110.607542655828 Eh    ::
         :: gradient norm              0.003375728462 Eh/a0 ::
         :: HOMO-LUMO gap              0.919829057961 eV    ::
         :: SCC energy              -100.740854706327 Eh    ::
         :: -> dispersion             -0.074210717964 Eh    ::
         :: repulsion energy           1.771039519358 Eh    ::

    * Orbital Energies and Occupations

         #    Occupation            Energy/Eh            Energy/eV
      -------------------------------------------------------------
         1        2.0000           -0.8321307             -22.6434
       ...           ...                  ...                  ...
        78        1.9988           -0.5316005             -14.4656
        79        1.9986           -0.5301907             -14.4272
        80        1.9985           -0.5281919             -14.3728
        81        1.9982           -0.5252986             -14.2941
        82        1.9970           -0.5177064             -14.0875
        83        1.9968           -0.5165547             -14.0562
        84        1.9967           -0.5158998             -14.0383
        85        1.9962           -0.5140461             -13.9879
        86        1.9766           -0.4849690             -13.1967
        87        1.9508           -0.4729632             -12.8700
        88        1.9438           -0.4707870             -12.8108
        89        1.8344           -0.4527739             -12.3206
        90        1.6169           -0.4374915             -11.9047 (HOMO)
        91        0.6659           -0.4036884             -10.9849 (LUMO)
        92        0.0167           -0.3390441              -9.2259
        93        0.0123           -0.3342121              -9.0944
        94        0.0045           -0.3182883              -8.6611
        95        0.0024           -0.3085332              -8.3956
        96        0.0021           -0.3059220              -8.3246
        97        0.0000           -0.2307489              -6.2790
        98        0.0000           -0.1836942              -4.9986
        99                         -0.1139895              -3.1018
       100                         -0.0922438              -2.5101
       101                         -0.0797403              -2.1698
       ...                                ...                  ...
       171                          2.5953826              70.6240
      -------------------------------------------------------------
                  HL-Gap            0.0338031 Eh            0.9198 eV

     #   Z          covCN         q      C6AA      α(0)
     1   7 N        1.774    -0.273    27.893     7.821
     2   6 C        2.826     0.099    25.798     8.323
     3   6 C        3.906     0.006    20.419     6.423
     4   6 C        2.961    -0.008    28.205     8.711
     5   6 C        3.807    -0.121    22.805     6.798
     6   6 C        2.852     0.118    25.399     8.260
     7   8 O        1.706    -0.200    17.335     5.621
     8   6 C        3.644     0.019    20.592     6.523
     9   6 C        2.849     0.126    25.223     8.231
    10   8 O        1.706    -0.240    17.972     5.724
    11   6 C        3.645     0.027    20.457     6.501
    12   6 C        2.913    -0.073    29.813     8.953
    13   6 C        2.903    -0.044    29.101     8.845
    14   6 C        3.811    -0.067    21.775     6.642
    15   6 C        3.801    -0.063    21.715     6.635
    16   6 C        2.862    -0.045    29.114     8.844
    17   7 N        2.731     0.088    19.714     6.594
    18   6 C        3.782    -0.019    20.936     6.518
    19   6 C        3.808    -0.068    21.803     6.647
    20   6 C        2.969     0.001    27.999     8.679
    21   6 C        2.922    -0.048    29.188     8.860
    22   6 C        2.914    -0.067    29.673     8.932
    23   6 C        2.865     0.133    25.080     8.209
    24   8 O        1.706    -0.222    17.680     5.677
    25   6 C        3.645     0.025    20.487     6.505
    26   6 C        2.863     0.133    25.085     8.210
    27   8 O        1.706    -0.224    17.722     5.684
    28   6 C        3.645     0.027    20.453     6.500
    29   6 C        2.920    -0.079    29.975     8.978
    30   6 C        2.811    -0.107    30.688     9.076
    31   6 C        3.852    -0.008    20.686     6.469
    32   6 C        3.756    -0.121    22.869     6.819
    33   6 C        3.755    -0.119    22.833     6.813
    34   1 H        0.919     0.094     1.842     2.123
    35   1 H        0.924     0.063     2.168     2.303
    36   1 H        0.925     0.091     1.872     2.139
    37   1 H        0.924     0.058     2.220     2.330
    38   1 H        0.924     0.055     2.264     2.353
    39   1 H        0.925     0.081     1.965     2.192
    40   1 H        0.924     0.050     2.320     2.382
    41   1 H        0.926     0.061     2.193     2.316
    42   1 H        0.926     0.050     2.322     2.383
    43   1 H        0.924     0.049     2.330     2.387
    44   1 H        0.925     0.054     2.269     2.356
    45   1 H        0.925     0.053     2.280     2.361
    46   1 H        0.924     0.060     2.194     2.316
    47   1 H        0.923     0.012     2.860     2.645
    48   1 H        0.926     0.050     2.324     2.384
    49   1 H        0.924     0.072     2.064     2.247
    50   1 H        0.924     0.067     2.117     2.275
    51   1 H        0.924     0.056     2.242     2.342
    52   1 H        0.924     0.058     2.219     2.330
    53   1 H        0.926     0.047     2.359     2.402
    54   1 H        0.926     0.059     2.214     2.327
    55   1 H        0.924     0.054     2.269     2.356
    56   1 H        0.924     0.056     2.245     2.343
    57   1 H        0.925     0.082     1.958     2.188
    58   1 H        0.925     0.081     1.964     2.192
    59   1 H        0.924     0.049     2.329     2.387
    60   1 H        0.924     0.053     2.287     2.365
    61   1 H        0.926     0.049     2.336     2.390
    62   1 H        0.927     0.053     2.279     2.361
    63   1 H        0.931     0.145     1.422     1.865
    64   1 H        0.926     0.056     2.240     2.341
    65   1 H        0.924     0.031     2.574     2.509
    66   1 H        0.925     0.072     2.065     2.247
    67   1 H        0.925     0.031     2.573     2.508
    68   1 H        0.925     0.050     2.317     2.380
    69   1 H        0.925     0.063     2.163     2.300
    70   1 H        0.925     0.035     2.511     2.478
    71   1 H        0.925     0.054     2.274     2.358
    72   1 H        0.860     0.156     1.361     1.828

Wiberg/Mayer (AO) data.
largest (>0.10) Wiberg bond orders for each atom

     #   Z sym  total        # sym  WBO       # sym  WBO       # sym  WBO
 ---------------------------------------------------------------------------
     1   7 N    3.018 --     2 C    1.956    72 H    0.942
     2   6 C    3.933 --     1 N    1.956     3 C    0.990    47 H    0.916
     3   6 C    3.976 --     2 C    0.990     4 C    0.986    14 C    0.953
                            31 C    0.937
     4   6 C    3.785 --    13 C    1.604     5 C    1.012     3 C    0.986
     5   6 C    3.958 --     6 C    1.018     4 C    1.012    63 H    0.942
                            34 H    0.884
     6   6 C    3.668 --     9 C    1.327     7 O    1.149     5 C    1.018
     7   8 O    2.270 --     6 C    1.149     8 C    0.972
     8   6 C    3.923 --    36 H    0.976     7 O    0.972    37 H    0.971
                            35 H    0.969
     9   6 C    3.910 --    12 C    1.334     6 C    1.327    10 O    1.085
    10   8 O    2.240 --     9 C    1.085    11 C    0.977
    11   6 C    3.931 --    10 O    0.977    39 H    0.977    40 H    0.974
                            38 H    0.974
    12   6 C    3.738 --     9 C    1.334    13 C    1.295    41 H    0.965
    13   6 C    3.980 --     4 C    1.604    12 C    1.295    42 H    0.958
    14   6 C    3.974 --    15 C    0.990    43 H    0.972    44 H    0.971
                             3 C    0.953
    15   6 C    3.987 --    16 C    1.043    14 C    0.990    45 H    0.960
                            46 H    0.942
    16   6 C    3.681 --    17 N    1.346    15 C    1.043    48 H    0.963
                            30 C    0.238
    17   7 N    3.739 --    30 C    1.366    16 C    1.346    18 C    0.966
    18   6 C    3.954 --    19 C    0.976    50 H    0.969    49 H    0.968
                            17 N    0.966
    19   6 C    3.987 --    20 C    1.007    18 C    0.976    51 H    0.972
                            52 H    0.970
    20   6 C    3.943 --    21 C    1.410    29 C    1.381    19 C    1.007
    21   6 C    3.948 --    22 C    1.416    20 C    1.410    53 H    0.968
    22   6 C    3.958 --    21 C    1.416    23 C    1.384    54 H    0.963
    23   6 C    3.893 --    22 C    1.384    26 C    1.219    24 O    1.110
    24   8 O    2.253 --    23 C    1.110    25 C    0.976
    25   6 C    3.928 --    57 H    0.977    24 O    0.976    55 H    0.973
                            56 H    0.972
    26   6 C    3.896 --    29 C    1.395    23 C    1.219    27 O    1.104
    27   8 O    2.253 --    26 C    1.104    28 C    0.979
    28   6 C    3.932 --    27 O    0.979    58 H    0.977    59 H    0.973
                            60 H    0.973
    29   6 C    3.959 --    26 C    1.395    20 C    1.381    61 H    0.962
    30   6 C    3.620 --    17 N    1.366    64 H    0.975    62 H    0.970
                            16 C    0.238
    31   6 C    3.968 --    33 C    1.010    32 C    1.009    65 H    0.960
                             3 C    0.937
    32   6 C    3.982 --    31 C    1.009    68 H    0.982    67 H    0.982
                            66 H    0.975
    33   6 C    3.983 --    31 C    1.010    70 H    0.983    71 H    0.980
                            69 H    0.976
    34   1 H    0.940 --     5 C    0.884
    35   1 H    0.990 --     8 C    0.969
    36   1 H    0.991 --     8 C    0.976
    37   1 H    0.990 --     8 C    0.971
    38   1 H    0.994 --    11 C    0.974
    39   1 H    0.993 --    11 C    0.977
    40   1 H    0.994 --    11 C    0.974
    41   1 H    0.995 --    12 C    0.965
    42   1 H    0.997 --    13 C    0.958
    43   1 H    0.996 --    14 C    0.972
    44   1 H    0.996 --    14 C    0.971
    45   1 H    0.996 --    15 C    0.960
    46   1 H    0.977 --    15 C    0.942
    47   1 H    0.985 --     2 C    0.916
    48   1 H    0.997 --    16 C    0.963
    49   1 H    0.994 --    18 C    0.968
    50   1 H    0.995 --    18 C    0.969
    51   1 H    0.995 --    19 C    0.972
    52   1 H    0.995 --    19 C    0.970
    53   1 H    0.997 --    21 C    0.968
    54   1 H    0.995 --    22 C    0.963
    55   1 H    0.992 --    25 C    0.973
    56   1 H    0.991 --    25 C    0.972
    57   1 H    0.993 --    25 C    0.977
    58   1 H    0.993 --    28 C    0.977
    59   1 H    0.993 --    28 C    0.973
    60   1 H    0.993 --    28 C    0.973
    61   1 H    0.996 --    29 C    0.962
    62   1 H    0.997 --    30 C    0.970
    63   1 H    0.971 --     5 C    0.942
    64   1 H    0.997 --    30 C    0.975
    65   1 H    0.994 --    31 C    0.960
    66   1 H    0.992 --    32 C    0.975
    67   1 H    0.998 --    32 C    0.982
    68   1 H    0.995 --    32 C    0.982
    69   1 H    0.993 --    33 C    0.976
    70   1 H    0.997 --    33 C    0.983
    71   1 H    0.993 --    33 C    0.980
    72   1 H    0.970 --     1 N    0.942
 ---------------------------------------------------------------------------

molecular dipole:
                 x           y           z       tot (Debye)
 q only:       -0.440      -0.068      -0.716
   full:       -0.226      -0.188      -0.827       2.230

           -------------------------------------------------
          | TOTAL ENERGY             -110.607542655828 Eh   |
          | GRADIENT NORM               0.003375728462 Eh/α |
          | HOMO-LUMO GAP               0.919829057961 eV   |
           -------------------------------------------------

 * finished run on 2024/04/06 at 11:16:00.094
