   * xtb version 6.6.1 (8d0f1dd) compiled by 'conda@1efc2f54142f' on 2023-08-01
          program call               : xtb xtbopt.xyz --opt crude --input .xc2 --gfn2

   ID    Z sym.   atoms
    1    7 N      1, 17
    2    6 C      2-6, 8, 9, 11-16, 18-23, 25, 26, 28-33
    3    8 O      7, 10, 24, 27
    4    1 H      34-72
########################################################################
[WARNING] Please study the warnings concerning your input carefully
-1- readin_getIntValue: could not parse ''
########################################################################

          :  Hamiltonian                  GFN2-xTB          :
 * total energy  :   -98.9686570 Eh     change       -0.4902745E-11 Eh
 * total energy  :   -99.3421403 Eh     change       -0.3734833E+00 Eh
 * total energy  :   -99.3459903 Eh     change       -0.3849977E-02 Eh
 * total energy  :   -99.3470400 Eh     change       -0.1049687E-02 Eh
 * total energy  :   -99.3473377 Eh     change       -0.2977010E-03 Eh
 * total energy  :   -99.3475835 Eh     change       -0.2458069E-03 Eh
   *** GEOMETRY OPTIMIZATION CONVERGED AFTER 6 ITERATIONS ***

 final structure:
================
72
 xtb: 6.6.1 (8d0f1dd)
N           -1.92631732050601        2.76448837417945        2.27870608133666
C           -1.86535668901311        2.00309918866953        1.28866666353513
C           -2.97341903951763        1.84080259637953        0.27935877189513
C           -3.56075837688627        0.44867702663378        0.40294959157972
C           -4.57849447846005        0.03170770583223       -0.61866795747225
C           -4.97297924146138       -1.40578020374432       -0.55080440397577
O           -5.75169171385408       -1.95921508258412       -1.49004330912056
C           -6.22591481590198       -1.18654965342818       -2.56736217862443
C           -4.57954565937682       -2.22789503271280        0.50869496315262
O           -5.05077761127331       -3.49627518489791        0.46760638272504
C           -4.72175447662498       -4.38132913763391        1.51466023026132
C           -3.73781122338220       -1.71370142629791        1.49411907820200
C           -3.22961321399478       -0.40613709277030        1.40419413014780
C           -2.31355089053269        2.00753313647334       -1.11787744955434
C           -1.42518921887485        0.82770181708427       -1.55011348150077
C           -0.05711712696361        0.88264828086977       -0.96743175962255
N            0.62748043049270       -0.15811825305488       -0.50651011420627
C            2.01726546258999        0.08807883017719       -0.13118202618935
C            2.95045983640281       -0.17235710057126       -1.32373239193261
C            4.38525128419199        0.00723648413162       -0.91186593212472
C            5.01355118902628        1.23529251852503       -1.03661563500119
C            6.33018870479757        1.40280991005351       -0.63538367529923
C            7.04482516768370        0.34292857497039       -0.09586840584930
O            8.32249640892237        0.38927134983794        0.32497654620575
C            9.03740372306547        1.59903621275824        0.22167463592023
C            6.40742090238870       -0.92185093934445        0.03764370130224
O            7.17386388690430       -1.89777359878695        0.56403887685047
C            6.63742426096247       -3.19079428556846        0.71146599095717
C            5.09012490579963       -1.06401589887148       -0.36829777431020
C            0.20104303253779       -1.40747984055792       -0.38964054399593
C           -4.11036980727968        2.89645188428503        0.44766765090630
C           -4.86526119699452        2.70188973381795        1.76092450623586
C           -3.61259648144090        4.33634823844080        0.35484064324794
H           -5.49142438571689        0.62917068117958       -0.44637626183198
H           -6.83128012217051       -0.34288016786125       -2.22387044310935
H           -6.84457649784323       -1.85762919694106       -3.15998635245063
H           -5.40582438793812       -0.81396687046924       -3.18982131588364
H           -5.09119365864239       -4.02007374006397        2.47872306990406
H           -5.21757656086258       -5.31799884666664        1.26753062122284
H           -3.64191482777127       -4.54962944371634        1.57529085581140
H           -3.44374303680933       -2.32415153545574        2.33025817102219
H           -2.54540328181815       -0.09014908550292        2.17583420310628
H           -3.10255035969211        2.14800914189283       -1.85757500410942
H           -1.71267650662395        2.91715946563692       -1.11411046295570
H           -1.91065450960345       -0.11355686798454       -1.29674692857570
H           -1.33445008452530        0.87032056630535       -2.64352138086678
H           -0.97906758108637        1.40092000808816        1.03170250792987
H            0.47117627352241        1.81920058077633       -1.03412404428402
H            2.28731161574857       -0.57246654974147        0.69451196351510
H            2.12991801073460        1.12132974089960        0.20219349740563
H            2.70354891503729        0.52010613056828       -2.13021298912074
H            2.78824555237562       -1.19004556600693       -1.68347001717092
H            4.48264919732980        2.07379556847714       -1.46089925653789
H            6.79498507549212        2.36789164665197       -0.75288103313463
H            8.56585326043701        2.39452587412593        0.80662214726663
H            9.13401088165109        1.91892854383649       -0.82023549105593
H           10.02515265418446        1.38967363715618        0.62790075180796
H            7.44175397715683       -3.79523379722816        1.12620579244859
H            5.78839192728244       -3.19627057131088        1.40270521389984
H            6.32930259017063       -3.61024603780881       -0.25129286304394
H            4.59909553023009       -2.02033025886910       -0.27843138978425
H           -0.78742143443073       -1.68975215871076       -0.68625093840804
H           -4.24665991313509        0.28823139185038       -1.62273090824603
H            0.85357230481762       -2.14502096528564        0.02920783384548
H           -4.80937104004414        2.73711391983394       -0.38235488307999
H           -4.20421555543806        2.90491990071588        2.59699853504921
H           -5.24723156782119        1.68833530321150        1.85888114084560
H           -5.70381856555623        3.39202154386460        1.80660111223726
H           -2.89208860814669        4.53880542950364        1.14071416353094
H           -3.16134024284637        4.54838862208817       -0.61061257110871
H           -4.45449368126567        5.01172479472411        0.48375789421634
H           -1.10975637281798        2.81623955845747        2.88033849660662

          :  Hamiltonian                  GFN2-xTB          :
         :: total energy             -99.347583467951 Eh    ::
         :: gradient norm              0.009346932082 Eh/a0 ::
         :: HOMO-LUMO gap              0.921356474059 eV    ::
         :: SCC energy              -100.716834040032 Eh    ::
         :: -> dispersion             -0.074201376120 Eh    ::
         :: repulsion energy           1.368096801970 Eh    ::

    * Orbital Energies and Occupations

         #    Occupation            Energy/Eh            Energy/eV
      -------------------------------------------------------------
         1        2.0000           -0.8312582             -22.6197
       ...           ...                  ...                  ...
        78        1.9988           -0.5313087             -14.4576
        79        1.9987           -0.5300590             -14.4236
        80        1.9984           -0.5278612             -14.3638
        81        1.9982           -0.5251634             -14.2904
        82        1.9970           -0.5172388             -14.0748
        83        1.9968           -0.5164170             -14.0524
        84        1.9966           -0.5154155             -14.0252
        85        1.9962           -0.5136874             -13.9781
        86        1.9768           -0.4848118             -13.1924
        87        1.9491           -0.4721651             -12.8483
        88        1.9431           -0.4703801             -12.7997
        89        1.8353           -0.4526372             -12.3169
        90        1.6183           -0.4373349             -11.9005 (HOMO)
        91        0.6664           -0.4034756             -10.9791 (LUMO)
        92        0.0166           -0.3386817              -9.2160
        93        0.0122           -0.3338667              -9.0850
        94        0.0044           -0.3174726              -8.6389
        95        0.0025           -0.3083803              -8.3915
        96        0.0021           -0.3057534              -8.3200
        97        0.0000           -0.2311243              -6.2892
        98        0.0000           -0.1835415              -4.9944
        99                         -0.1137559              -3.0955
       100                         -0.0866679              -2.3584
       101                         -0.0746063              -2.0301
       ...                                ...                  ...
       171                          0.5804913              15.7960
      -------------------------------------------------------------
                  HL-Gap            0.0338592 Eh            0.9214 eV

     #   Z          covCN         q      C6AA      α(0)
     1   7 N        1.774    -0.273    27.891     7.820
     2   6 C        2.827     0.099    25.791     8.322
     3   6 C        3.906     0.006    20.424     6.424
     4   6 C        2.961    -0.001    28.061     8.689
     5   6 C        3.811    -0.078    21.974     6.672
     6   6 C        2.852     0.124    25.266     8.238
     7   8 O        1.706    -0.198    17.299     5.616
     8   6 C        3.643     0.020    20.579     6.521
     9   6 C        2.850     0.127    25.202     8.228
    10   8 O        1.706    -0.239    17.965     5.723
    11   6 C        3.644     0.027    20.460     6.502
    12   6 C        2.913    -0.072    29.801     8.952
    13   6 C        2.905    -0.043    29.078     8.842
    14   6 C        3.811    -0.066    21.748     6.638
    15   6 C        3.801    -0.063    21.710     6.634
    16   6 C        2.862    -0.046    29.128     8.846
    17   7 N        2.730     0.089    19.707     6.593
    18   6 C        3.782    -0.019    20.937     6.518
    19   6 C        3.808    -0.068    21.803     6.647
    20   6 C        2.969     0.001    27.999     8.679
    21   6 C        2.922    -0.048    29.189     8.860
    22   6 C        2.914    -0.067    29.674     8.933
    23   6 C        2.865     0.133    25.081     8.209
    24   8 O        1.706    -0.222    17.682     5.677
    25   6 C        3.645     0.025    20.488     6.505
    26   6 C        2.863     0.133    25.086     8.210
    27   8 O        1.706    -0.225    17.725     5.684
    28   6 C        3.645     0.027    20.453     6.500
    29   6 C        2.920    -0.079    29.977     8.979
    30   6 C        2.811    -0.107    30.688     9.076
    31   6 C        3.852    -0.008    20.682     6.468
    32   6 C        3.756    -0.120    22.860     6.817
    33   6 C        3.755    -0.119    22.831     6.813
    34   1 H        0.923     0.095     1.832     2.116
    35   1 H        0.924     0.063     2.170     2.303
    36   1 H        0.925     0.092     1.860     2.133
    37   1 H        0.924     0.058     2.225     2.333
    38   1 H        0.924     0.055     2.262     2.352
    39   1 H        0.925     0.082     1.963     2.191
    40   1 H        0.924     0.050     2.321     2.383
    41   1 H        0.926     0.060     2.195     2.317
    42   1 H        0.926     0.050     2.320     2.382
    43   1 H        0.924     0.048     2.342     2.393
    44   1 H        0.925     0.054     2.266     2.354
    45   1 H        0.925     0.053     2.283     2.363
    46   1 H        0.923     0.060     2.201     2.320
    47   1 H        0.923     0.012     2.857     2.643
    48   1 H        0.926     0.050     2.322     2.383
    49   1 H        0.924     0.072     2.063     2.246
    50   1 H        0.924     0.067     2.116     2.275
    51   1 H        0.924     0.056     2.243     2.342
    52   1 H        0.924     0.058     2.219     2.330
    53   1 H        0.926     0.047     2.359     2.402
    54   1 H        0.926     0.059     2.215     2.328
    55   1 H        0.924     0.054     2.268     2.355
    56   1 H        0.924     0.056     2.246     2.344
    57   1 H        0.925     0.082     1.958     2.188
    58   1 H        0.925     0.081     1.964     2.192
    59   1 H        0.924     0.049     2.331     2.388
    60   1 H        0.924     0.053     2.286     2.364
    61   1 H        0.926     0.049     2.336     2.390
    62   1 H        0.927     0.053     2.283     2.363
    63   1 H        0.925     0.082     1.962     2.190
    64   1 H        0.927     0.057     2.237     2.339
    65   1 H        0.924     0.030     2.583     2.514
    66   1 H        0.925     0.072     2.063     2.246
    67   1 H        0.925     0.031     2.568     2.506
    68   1 H        0.925     0.050     2.319     2.382
    69   1 H        0.925     0.063     2.165     2.301
    70   1 H        0.925     0.035     2.510     2.478
    71   1 H        0.925     0.054     2.272     2.357
    72   1 H        0.860     0.156     1.360     1.827

Wiberg/Mayer (AO) data.
largest (>0.10) Wiberg bond orders for each atom

     #   Z sym  total        # sym  WBO       # sym  WBO       # sym  WBO
 ---------------------------------------------------------------------------
     1   7 N    3.018 --     2 C    1.956    72 H    0.942
     2   6 C    3.933 --     1 N    1.956     3 C    0.990    47 H    0.917
     3   6 C    3.976 --     2 C    0.990     4 C    0.985    14 C    0.952
                            31 C    0.939
     4   6 C    3.787 --    13 C    1.600     5 C    1.025     3 C    0.985
     5   6 C    3.982 --     6 C    1.034     4 C    1.025    63 H    0.927
                            34 H    0.898
     6   6 C    3.673 --     9 C    1.321     7 O    1.149     5 C    1.034
     7   8 O    2.271 --     6 C    1.149     8 C    0.974
     8   6 C    3.923 --    36 H    0.975     7 O    0.974    35 H    0.970
                            37 H    0.967
     9   6 C    3.910 --    12 C    1.337     6 C    1.321    10 O    1.086
    10   8 O    2.240 --     9 C    1.086    11 C    0.977
    11   6 C    3.930 --    10 O    0.977    39 H    0.977    40 H    0.974
                            38 H    0.974
    12   6 C    3.741 --     9 C    1.337    13 C    1.295    41 H    0.965
    13   6 C    3.979 --     4 C    1.600    12 C    1.295    42 H    0.958
    14   6 C    3.973 --    15 C    0.990    44 H    0.971    43 H    0.969
                             3 C    0.952
    15   6 C    3.988 --    16 C    1.043    14 C    0.990    45 H    0.959
                            46 H    0.942
    16   6 C    3.682 --    17 N    1.346    15 C    1.043    48 H    0.963
                            30 C    0.238
    17   7 N    3.739 --    30 C    1.366    16 C    1.346    18 C    0.966
    18   6 C    3.954 --    19 C    0.976    50 H    0.969    49 H    0.968
                            17 N    0.966
    19   6 C    3.987 --    20 C    1.007    18 C    0.976    51 H    0.972
                            52 H    0.970
    20   6 C    3.943 --    21 C    1.410    29 C    1.380    19 C    1.007
    21   6 C    3.948 --    22 C    1.416    20 C    1.410    53 H    0.968
    22   6 C    3.958 --    21 C    1.416    23 C    1.384    54 H    0.963
    23   6 C    3.894 --    22 C    1.384    26 C    1.219    24 O    1.110
    24   8 O    2.253 --    23 C    1.110    25 C    0.976
    25   6 C    3.928 --    57 H    0.977    24 O    0.976    55 H    0.973
                            56 H    0.972
    26   6 C    3.897 --    29 C    1.395    23 C    1.219    27 O    1.104
    27   8 O    2.253 --    26 C    1.104    28 C    0.979
    28   6 C    3.932 --    27 O    0.979    58 H    0.977    59 H    0.973
                            60 H    0.973
    29   6 C    3.959 --    26 C    1.395    20 C    1.380    61 H    0.962
    30   6 C    3.621 --    17 N    1.366    64 H    0.975    62 H    0.970
                            16 C    0.238
    31   6 C    3.968 --    33 C    1.010    32 C    1.009    65 H    0.960
                             3 C    0.939
    32   6 C    3.982 --    31 C    1.009    67 H    0.982    68 H    0.982
                            66 H    0.974
    33   6 C    3.984 --    31 C    1.010    70 H    0.983    71 H    0.980
                            69 H    0.976
    34   1 H    0.945 --     5 C    0.898
    35   1 H    0.990 --     8 C    0.970
    36   1 H    0.991 --     8 C    0.975
    37   1 H    0.990 --     8 C    0.967
    38   1 H    0.994 --    11 C    0.974
    39   1 H    0.993 --    11 C    0.977
    40   1 H    0.994 --    11 C    0.974
    41   1 H    0.995 --    12 C    0.965
    42   1 H    0.997 --    13 C    0.958
    43   1 H    0.996 --    14 C    0.969
    44   1 H    0.996 --    14 C    0.971
    45   1 H    0.996 --    15 C    0.959
    46   1 H    0.977 --    15 C    0.942
    47   1 H    0.985 --     2 C    0.917
    48   1 H    0.997 --    16 C    0.963
    49   1 H    0.994 --    18 C    0.968
    50   1 H    0.995 --    18 C    0.969
    51   1 H    0.995 --    19 C    0.972
    52   1 H    0.995 --    19 C    0.970
    53   1 H    0.997 --    21 C    0.968
    54   1 H    0.995 --    22 C    0.963
    55   1 H    0.992 --    25 C    0.973
    56   1 H    0.991 --    25 C    0.972
    57   1 H    0.993 --    25 C    0.977
    58   1 H    0.993 --    28 C    0.977
    59   1 H    0.993 --    28 C    0.973
    60   1 H    0.993 --    28 C    0.973
    61   1 H    0.996 --    29 C    0.962
    62   1 H    0.997 --    30 C    0.970
    63   1 H    0.968 --     5 C    0.927
    64   1 H    0.997 --    30 C    0.975
    65   1 H    0.994 --    31 C    0.960
    66   1 H    0.992 --    32 C    0.974
    67   1 H    0.998 --    32 C    0.982
    68   1 H    0.995 --    32 C    0.982
    69   1 H    0.993 --    33 C    0.976
    70   1 H    0.997 --    33 C    0.983
    71   1 H    0.993 --    33 C    0.980
    72   1 H    0.970 --     1 N    0.942
 ---------------------------------------------------------------------------

molecular dipole:
                 x           y           z       tot (Debye)
 q only:       -0.462      -0.103      -0.690
   full:       -0.251      -0.203      -0.851       2.313

           -------------------------------------------------
          | TOTAL ENERGY              -99.347583467951 Eh   |
          | GRADIENT NORM               0.009346932082 Eh/α |
          | HOMO-LUMO GAP               0.921356474059 eV   |
           -------------------------------------------------

 * finished run on 2024/04/06 at 11:16:01.364
