   * xtb version 6.6.1 (8d0f1dd) compiled by 'conda@1efc2f54142f' on 2023-08-01
          program call               : xtb struc.xyz --opt loose --input .xc1 --gfn2

   ID    Z sym.   atoms
    1    7 N      1, 17
    2    6 C      2-6, 8, 9, 11-16, 18-23, 25, 26, 28-33
    3    8 O      7, 10, 24, 27
    4    1 H      34-72
constraining bond 20 61 to    4.1400000 Å, actual value:    2.1372506 Å

          :  Hamiltonian                  GFN2-xTB          :
 * total energy  :   -98.6879531 Eh     change       -0.4035485E-08 Eh
 * total energy  :   -98.8974483 Eh     change       -0.2094952E+00 Eh
 * total energy  :   -99.0316238 Eh     change       -0.1341755E+00 Eh
 * total energy  :   -99.0978773 Eh     change       -0.6625353E-01 Eh
 * total energy  :   -99.1248320 Eh     change       -0.2695464E-01 Eh
 * total energy  :   -99.1395654 Eh     change       -0.1473338E-01 Eh
 * total energy  :   -99.1547303 Eh     change       -0.1516497E-01 Eh
 * total energy  :   -99.1744561 Eh     change       -0.1972579E-01 Eh
 * total energy  :   -99.1998776 Eh     change       -0.2542148E-01 Eh
 * total energy  :   -99.2117021 Eh     change       -0.1182448E-01 Eh
 * total energy  :   -99.2512843 Eh     change       -0.1998731E-03 Eh
 * total energy  :   -99.2515432 Eh     change       -0.2588674E-03 Eh
 * total energy  :   -99.2518579 Eh     change       -0.3147263E-03 Eh
 * total energy  :   -99.2521455 Eh     change       -0.2875630E-03 Eh
 * total energy  :   -99.2523186 Eh     change       -0.1731701E-03 Eh
 * total energy  :   -99.2524608 Eh     change       -0.1421889E-03 Eh
 * total energy  :   -99.2525247 Eh     change       -0.6389717E-04 Eh
 * total energy  :   -99.2525732 Eh     change       -0.4847842E-04 Eh
 * total energy  :   -99.2526157 Eh     change       -0.4249805E-04 Eh
   *** GEOMETRY OPTIMIZATION CONVERGED AFTER 54 ITERATIONS ***

 final structure:
================
72
 xtb: 6.6.1 (8d0f1dd)
N           -1.84833263524227        2.85189864132744        2.22625004857815
C           -1.82363521185658        2.10307022715266        1.22693673299633
C           -2.97922042147588        1.89209624302788        0.28842304630857
C           -3.42229390420239        0.43839120683219        0.34836739186652
C           -4.32707453590406       -0.04966851686735       -0.59662625310634
C           -4.78524798279064       -1.35561814470731       -0.55359926245740
O           -5.66502411593955       -1.90121435186174       -1.41955892644698
C           -6.26089237942287       -1.08595322537110       -2.40074635033495
C           -4.32031660626543       -2.22693530586661        0.46791265499448
O           -4.81808736714952       -3.47967097221703        0.43313200707697
C           -4.48812182028373       -4.37644481638568        1.46786375983631
C           -3.42104754002768       -1.73687619176686        1.40131929413962
C           -2.98148797258932       -0.42040014668703        1.34291703048596
C           -2.44097761863331        2.23148410751644       -1.12685600110454
C           -1.50451689032321        1.16755219876719       -1.72463192699752
C           -0.16057993453237        1.14939213926471       -1.10675428492864
N            0.53001979336396        0.05844902146469       -0.80488359376727
C            1.91448785355519        0.15661598256654       -0.40684888431198
C            2.86902125081861       -0.09540205394066       -1.58847727907526
C            4.29049564735079       -0.00041276105588       -1.10621209984246
C            5.01312834650271        1.18647101635933       -1.24156858870789
C            6.31046562011254        1.29615768191108       -0.77035801308884
C            6.92903657182161        0.22652617637945       -0.13309302580822
O            8.17988661924311        0.21077521932541        0.35984508386716
C            8.99998928357619        1.34366536067992        0.18345230662712
C            6.18172444072197       -0.97799315887703        0.01004951038400
O            6.80337248705314       -1.99665149800720        0.66580186033965
C            6.26480593863594       -3.17708641347061        0.73388107283392
C            4.89388995977366       -1.06496623721519       -0.47649720702104
C           -0.02974967344037       -1.26431398283781       -0.94734608329413
C           -4.21286586067947        2.78617504659623        0.61171725444208
C           -4.80821728955678        2.44608503150888        1.97600348995696
C           -3.91026280771263        4.28033859568557        0.54063413339902
H           -4.69055195646284        0.60805559448515       -1.36855229435409
H           -6.79710600938291       -0.24444827043540       -1.95174262327804
H           -6.96939582389533       -1.72694096301295       -2.92163452105316
H           -5.52179137809637       -0.71056698489994       -3.11628423855929
H           -4.78651428044868       -3.98701191455539        2.44570543976446
H           -5.04738152893970       -5.28549956129708        1.25557742193028
H           -3.41737210981795       -4.60433179613046        1.47632985417504
H           -3.06363090145887       -2.37013101234557        2.19701906752245
H           -2.30802712904717       -0.06686052623548        2.10827993430646
H           -3.28772014356010        2.35505699307262       -1.80112984583902
H           -1.91449306216870        3.18556159237137       -1.08200447200460
H           -1.98196669320377        0.19031242779110       -1.67503895605745
H           -1.37342099397594        1.42068131722596       -2.78515839758045
H           -0.92470338525231        1.54754282348494        0.89615929704321
H            0.35998004771034        2.09136786110982       -1.01472808296560
H            2.11866400278872       -0.57769352864371        0.37614324943945
H            2.10539034453302        1.15306775547405       -0.00228448000171
H            2.68134674347260        0.64546876061979       -2.36738587334588
H            2.68551526086124       -1.08948632667455       -1.99787607782221
H            4.55669026390344        2.03423209984480       -1.73266249940299
H            6.83918909061211        2.22627810500664       -0.90235506483358
H            8.59372537237986        2.21706967632797        0.70257778627088
H            9.13410300752866        1.57834388301196       -0.87686705162171
H            9.96118198484777        1.08012919178249        0.62032238150582
H            6.80586799089889       -3.90948564527090        1.30411557990502
H            4.61784556554719       -2.55104081977950        2.15227378872065
H            5.38340542671158       -3.42060713946386        0.15922365735777
H            4.08014328787906       -2.07220992732188        2.47732338755158
H           -0.24506614952687       -1.49184883570784       -1.99334406786222
H           -0.95524940481884       -1.35025874682482       -0.37235122263762
H            0.68163946914215       -1.99609799305157       -0.57351705450890
H           -4.96720363802930        2.55668921803038       -0.14978383113131
H           -4.10208449579496        2.69271397320981        2.76219582928597
H           -5.05898063206405        1.39030763417076        2.04383492410468
H           -5.71554385209488        3.02371231073329        2.13128503886541
H           -3.13895765008216        4.54263804765701        1.25789037451485
H           -3.59570827249031        4.58518137881764       -0.45388602821829
H           -4.80975665419775        4.83718229290662        0.78958735002791
H           -0.99791736152123        2.94153045778802        2.77355826557205

          :  Hamiltonian                  GFN2-xTB          :
         :: total energy             -99.252615703038 Eh    ::
         :: gradient norm              0.003115330818 Eh/a0 ::
         :: HOMO-LUMO gap              0.681786380346 eV    ::
         :: SCC energy              -100.642863332353 Eh    ::
         :: -> dispersion             -0.074868940535 Eh    ::
         :: repulsion energy           1.388894624587 Eh    ::

    * Orbital Energies and Occupations

         #    Occupation            Energy/Eh            Energy/eV
      -------------------------------------------------------------
         1        2.0000           -0.8411075             -22.8877
       ...           ...                  ...                  ...
        78        1.9986           -0.5293613             -14.4047
        79        1.9983           -0.5261905             -14.3184
        80        1.9983           -0.5259422             -14.3116
        81        1.9975           -0.5199336             -14.1481
        82        1.9960           -0.5125088             -13.9461
        83        1.9953           -0.5100510             -13.8792
        84        1.9945           -0.5073241             -13.8050
        85        1.9875           -0.4943915             -13.4531
        86        1.9813           -0.4879348             -13.2774
        87        1.9446           -0.4704812             -12.8024
        88        1.9361           -0.4681382             -12.7387
        89        1.8747           -0.4569713             -12.4348
        90        1.3200           -0.4246297             -11.5548 (HOMO)
        91        0.5703           -0.3995745             -10.8730 (LUMO)
        92        0.3897           -0.3916621             -10.6577
        93        0.0144           -0.3361404              -9.1468
        94        0.0036           -0.3139643              -8.5434
        95        0.0029           -0.3107419              -8.4557
        96        0.0025           -0.3084472              -8.3933
        97        0.0016           -0.3012233              -8.1967
        98        0.0000           -0.1881601              -5.1201
        99        0.0000           -0.1817461              -4.9456
       100                         -0.1320665              -3.5937
       101                         -0.0658087              -1.7907
       ...                                ...                  ...
       171                          0.5751213              15.6498
      -------------------------------------------------------------
                  HL-Gap            0.0250552 Eh            0.6818 eV

     #   Z          covCN         q      C6AA      α(0)
     1   7 N        1.774    -0.270    27.825     7.811
     2   6 C        2.827     0.102    25.739     8.313
     3   6 C        3.908     0.006    20.415     6.422
     4   6 C        2.974     0.001    27.993     8.679
     5   6 C        2.921    -0.080    30.010     8.983
     6   6 C        2.862     0.129    25.173     8.224
     7   8 O        1.706    -0.231    17.832     5.701
     8   6 C        3.644     0.028    20.439     6.498
     9   6 C        2.864     0.128    25.187     8.226
    10   8 O        1.706    -0.230    17.807     5.697
    11   6 C        3.645     0.027    20.450     6.499
    12   6 C        2.914    -0.074    29.854     8.960
    13   6 C        2.921    -0.053    29.313     8.879
    14   6 C        3.813    -0.064    21.726     6.634
    15   6 C        3.802    -0.069    21.827     6.651
    16   6 C        2.844     0.008    27.844     8.648
    17   7 N        2.729     0.014    21.013     6.808
    18   6 C        3.757    -0.017    20.927     6.522
    19   6 C        3.807    -0.068    21.796     6.646
    20   6 C        2.970     0.009    27.809     8.650
    21   6 C        2.924    -0.041    29.024     8.835
    22   6 C        2.914    -0.072    29.797     8.951
    23   6 C        2.862     0.137    25.005     8.196
    24   8 O        1.705    -0.230    17.811     5.698
    25   6 C        3.646     0.027    20.454     6.499
    26   6 C        2.891     0.108    25.614     8.298
    27   8 O        1.709    -0.099    15.824     5.371
    28   6 C        2.752     0.045    26.979     8.505
    29   6 C        1.996    -0.152    35.363     9.604
    30   6 C        3.700    -0.071    22.020     6.711
    31   6 C        3.853    -0.007    20.673     6.467
    32   6 C        3.756    -0.118    22.816     6.811
    33   6 C        3.755    -0.119    22.836     6.814
    34   1 H        0.926     0.051     2.304     2.374
    35   1 H        0.924     0.053     2.280     2.361
    36   1 H        0.925     0.081     1.973     2.196
    37   1 H        0.924     0.047     2.363     2.404
    38   1 H        0.924     0.055     2.264     2.353
    39   1 H        0.925     0.081     1.973     2.197
    40   1 H        0.924     0.048     2.344     2.394
    41   1 H        0.926     0.052     2.298     2.370
    42   1 H        0.926     0.039     2.464     2.455
    43   1 H        0.925     0.060     2.198     2.319
    44   1 H        0.924     0.054     2.275     2.359
    45   1 H        0.925     0.067     2.117     2.275
    46   1 H        0.923     0.079     1.985     2.203
    47   1 H        0.922     0.004     2.983     2.701
    48   1 H        0.926     0.070     2.090     2.261
    49   1 H        0.924     0.073     2.057     2.243
    50   1 H        0.924     0.064     2.148     2.292
    51   1 H        0.924     0.049     2.333     2.388
    52   1 H        0.924     0.061     2.189     2.314
    53   1 H        0.926     0.048     2.341     2.393
    54   1 H        0.926     0.057     2.231     2.336
    55   1 H        0.924     0.054     2.270     2.356
    56   1 H        0.924     0.055     2.256     2.349
    57   1 H        0.925     0.081     1.971     2.195
    58   1 H        0.926     0.094     1.840     2.121
    59   1 H        0.769     0.005     3.065     2.757
    60   1 H        0.926     0.079     1.984     2.203
    61   1 H        0.769     0.003     3.100     2.773
    62   1 H        0.924     0.077     2.010     2.217
    63   1 H        0.924     0.078     1.997     2.210
    64   1 H        0.925     0.084     1.942     2.179
    65   1 H        0.924     0.037     2.495     2.470
    66   1 H        0.925     0.068     2.111     2.272
    67   1 H        0.925     0.035     2.516     2.481
    68   1 H        0.925     0.050     2.314     2.379
    69   1 H        0.925     0.062     2.177     2.307
    70   1 H        0.925     0.034     2.525     2.485
    71   1 H        0.925     0.054     2.271     2.357
    72   1 H        0.860     0.156     1.363     1.829

Wiberg/Mayer (AO) data.
largest (>0.10) Wiberg bond orders for each atom

     #   Z sym  total        # sym  WBO       # sym  WBO       # sym  WBO
 ---------------------------------------------------------------------------
     1   7 N    3.037 --     2 C    1.955    72 H    0.942
     2   6 C    3.930 --     1 N    1.955     3 C    0.995    47 H    0.904
     3   6 C    3.976 --     2 C    0.995     4 C    0.971    14 C    0.956
                            31 C    0.943
     4   6 C    3.950 --    13 C    1.415     5 C    1.368     3 C    0.971
     5   6 C    3.963 --     6 C    1.402     4 C    1.368    34 H    0.958
     6   6 C    3.906 --     5 C    1.402     9 C    1.223     7 O    1.097
     7   8 O    2.253 --     6 C    1.097     8 C    0.978
     8   6 C    3.933 --     7 O    0.978    36 H    0.977    35 H    0.974
                            37 H    0.974
     9   6 C    3.902 --    12 C    1.392     6 C    1.223    10 O    1.100
    10   8 O    2.252 --     9 C    1.100    11 C    0.978
    11   6 C    3.932 --    10 O    0.978    39 H    0.977    38 H    0.974
                            40 H    0.974
    12   6 C    3.963 --    13 C    1.404     9 C    1.392    41 H    0.964
    13   6 C    3.955 --     4 C    1.415    12 C    1.404    42 H    0.963
    14   6 C    3.974 --    15 C    0.984    44 H    0.972    43 H    0.968
                             3 C    0.956
    15   6 C    3.987 --    16 C    1.060    14 C    0.984    45 H    0.960
                            46 H    0.926
    16   6 C    3.597 --    17 N    1.410    15 C    1.060    48 H    0.957
    17   7 N    3.484 --    16 C    1.410    30 C    0.998    18 C    0.987
    18   6 C    3.954 --    17 N    0.987    50 H    0.968    19 C    0.966
                            49 H    0.963
    19   6 C    3.966 --    20 C    1.000    51 H    0.974    52 H    0.970
                            18 C    0.966
    20   6 C    3.924 --    29 C    1.414    21 C    1.354    19 C    1.000
    21   6 C    3.879 --    22 C    1.433    20 C    1.354    53 H    0.960
    22   6 C    3.958 --    21 C    1.433    23 C    1.372    54 H    0.959
    23   6 C    3.842 --    22 C    1.372    26 C    1.201    24 O    1.111
    24   8 O    2.259 --    23 C    1.111    25 C    0.971
    25   6 C    3.925 --    57 H    0.977    56 H    0.974    55 H    0.974
                            24 O    0.971
    26   6 C    3.847 --    29 C    1.365    23 C    1.201    27 O    1.034
    27   8 O    2.417 --    28 C    1.298    26 C    1.034
    28   6 C    3.403 --    27 O    1.298    58 H    0.967    60 H    0.960
    29   6 C    2.975 --    20 C    1.414    26 C    1.365
    30   6 C    3.957 --    17 N    0.998    64 H    0.977    62 H    0.967
                            63 H    0.963
    31   6 C    3.973 --    33 C    1.009    32 C    1.008    65 H    0.960
                             3 C    0.943
    32   6 C    3.980 --    31 C    1.008    67 H    0.982    68 H    0.982
                            66 H    0.975
    33   6 C    3.983 --    31 C    1.009    70 H    0.983    71 H    0.980
                            69 H    0.976
    34   1 H    0.996 --     5 C    0.958
    35   1 H    0.994 --     8 C    0.974
    36   1 H    0.993 --     8 C    0.977
    37   1 H    0.994 --     8 C    0.974
    38   1 H    0.993 --    11 C    0.974
    39   1 H    0.993 --    11 C    0.977
    40   1 H    0.993 --    11 C    0.974
    41   1 H    0.996 --    12 C    0.964
    42   1 H    0.998 --    13 C    0.963
    43   1 H    0.995 --    14 C    0.968
    44   1 H    0.996 --    14 C    0.972
    45   1 H    0.994 --    15 C    0.960
    46   1 H    0.970 --    15 C    0.926
    47   1 H    0.987 --     2 C    0.904
    48   1 H    0.995 --    16 C    0.957
    49   1 H    0.990 --    18 C    0.963
    50   1 H    0.994 --    18 C    0.968
    51   1 H    0.997 --    19 C    0.974
    52   1 H    0.994 --    19 C    0.970
    53   1 H    0.986 --    21 C    0.960
    54   1 H    0.989 --    22 C    0.959
    55   1 H    0.993 --    25 C    0.974
    56   1 H    0.993 --    25 C    0.974
    57   1 H    0.992 --    25 C    0.977
    58   1 H    0.990 --    28 C    0.967
    59   1 H    0.999 --    61 H    0.963
    60   1 H    0.993 --    28 C    0.960
    61   1 H    0.979 --    59 H    0.963
    62   1 H    0.985 --    30 C    0.967
    63   1 H    0.987 --    30 C    0.963
    64   1 H    0.993 --    30 C    0.977
    65   1 H    0.993 --    31 C    0.960
    66   1 H    0.991 --    32 C    0.975
    67   1 H    0.997 --    32 C    0.982
    68   1 H    0.994 --    32 C    0.982
    69   1 H    0.993 --    33 C    0.976
    70   1 H    0.997 --    33 C    0.983
    71   1 H    0.994 --    33 C    0.980
    72   1 H    0.971 --     1 N    0.942
 ---------------------------------------------------------------------------

molecular dipole:
                 x           y           z       tot (Debye)
 q only:        1.268      -0.297      -0.805
   full:        1.797      -0.089      -0.991       5.222

           -------------------------------------------------
          | TOTAL ENERGY              -99.252615703038 Eh   |
          | GRADIENT NORM               0.003115330818 Eh/α |
          | HOMO-LUMO GAP               0.681786380346 eV   |
           -------------------------------------------------

 * finished run on 2024/04/06 at 11:14:02.768
