   * xtb version 6.6.1 (8d0f1dd) compiled by 'conda@1efc2f54142f' on 2023-08-01
          program call               : xtb xtbopt.xyz --opt crude --input .xc2 --gfn2

   ID    Z sym.   atoms
    1    6 C      1, 3, 5-7, 10, 11, 14
    2    7 N      2, 4, 9, 13
    3    8 O      8, 12
    4    1 H      15-25
########################################################################
[WARNING] Please study the warnings concerning your input carefully
-1- readin_getIntValue: could not parse ''
########################################################################

          :  Hamiltonian                  GFN2-xTB          :
 * total energy  :   -42.1841183 Eh     change       -0.1207923E-12 Eh
 * total energy  :   -42.1959001 Eh     change       -0.1178178E-01 Eh
 * total energy  :   -42.2052344 Eh     change       -0.9334323E-02 Eh
 * total energy  :   -42.2107444 Eh     change       -0.5510045E-02 Eh
 * total energy  :   -42.2153119 Eh     change       -0.4567486E-02 Eh
 * total energy  :   -42.2188861 Eh     change       -0.3574238E-02 Eh
 * total energy  :   -42.2209899 Eh     change       -0.2103729E-02 Eh
 * total energy  :   -42.2219782 Eh     change       -0.9882959E-03 Eh
 * total energy  :   -42.2222300 Eh     change       -0.2518191E-03 Eh
   *** GEOMETRY OPTIMIZATION CONVERGED AFTER 9 ITERATIONS ***

 final structure:
================
25
 xtb: 6.6.1 (8d0f1dd)
C            3.70202317262706        0.75150519832568        0.02203934466335
N            2.57328756689869       -0.14325787068248        0.00374343223083
C            2.61388307158962       -1.47046353366528       -0.00027843089386
N            1.35425881379416       -1.96484573190143       -0.00160012472417
C            0.49262133299737       -0.90661365940429        0.00212130247385
C            1.25937817700603        0.24355064505733        0.00599974395434
C            0.61845527285532        1.57577210139844       -0.01484572258411
O            1.22025179251985        2.61760579191237       -0.04080186245542
N           -0.74976201811243        1.46582333462525       -0.00631782871775
C           -3.44461631617529        1.60263317111556        0.00418949524936
C           -1.42547237567288        0.37399065437387        0.00149422082928
O           -2.73447420317060        0.35903086434407        0.01009276651196
N           -0.86244509385510       -0.90040142439108        0.00021564679575
C           -1.63194392541485       -2.12871748101223       -0.00890961149334
H            4.18977820477727        0.72280368297119        0.99749739710569
H            4.42375222257512        0.46369659803348       -0.74202183147691
H            3.34569172033439        1.76619959620760       -0.16393114948534
H            3.50555806303498       -2.06456008281592       -0.00374097096859
H           -2.75087895147047        2.44478191931360        0.00771353762641
H           -4.06610491976576        1.62810468144910       -0.89044319832119
H           -4.07959494455234        1.63027130314845        0.88972325998441
H           -1.41225157636100       -2.71820335052542        0.88247717348877
H           -1.40397605090613       -2.70964016812756       -0.90389676096557
H           -2.68840699542584       -1.87585700414442       -0.01242750784808
H            1.11141947397215       -2.94497069400616       -0.00692070307632

          :  Hamiltonian                  GFN2-xTB          :
         :: total energy             -42.222229989302 Eh    ::
         :: gradient norm              0.006635037904 Eh/a0 ::
         :: HOMO-LUMO gap              2.804988405547 eV    ::
         :: SCC energy               -42.742688489025 Eh    ::
         :: -> dispersion             -0.022096006620 Eh    ::
         :: repulsion energy           0.520413907497 Eh    ::

    * Orbital Energies and Occupations

         #    Occupation            Energy/Eh            Energy/eV
      -------------------------------------------------------------
         1        2.0000           -0.9078989             -24.7052
       ...           ...                  ...                  ...
        25        2.0000           -0.6716355             -18.2761
        26        2.0000           -0.6645344             -18.0829
        27        2.0000           -0.6443636             -17.5340
        28        1.9999           -0.6357629             -17.3000
        29        1.9999           -0.6291676             -17.1205
        30        1.9998           -0.6250264             -17.0078
        31        1.9996           -0.6123287             -16.6623
        32        1.9996           -0.6103159             -16.6075
        33        1.9989           -0.5951749             -16.1955
        34        1.9914           -0.5620632             -15.2945
        35        1.9876           -0.5561879             -15.1346
        36        1.9828           -0.5510346             -14.9944
        37        1.9376           -0.5302404             -14.4286 (HOMO)
        38        0.0884           -0.4271590             -11.6236 (LUMO)
        39        0.0096           -0.3914178             -10.6510
        40        0.0048           -0.3803591             -10.3501
        41        0.0000           -0.2676514              -7.2832
        42                         -0.2010314              -5.4703
        43                         -0.1865388              -5.0760
        44                         -0.1477721              -4.0211
        45                         -0.1216771              -3.3110
        46                         -0.0769424              -2.0937
        47                         -0.0457291              -1.2444
        48                         -0.0329164              -0.8957
       ...                                ...                  ...
        67                          0.5648559              15.3705
      -------------------------------------------------------------
                  HL-Gap            0.1030814 Eh            2.8050 eV

     #   Z          covCN         q      C6AA      α(0)
     1   6 C        3.691    -0.093    22.474     6.784
     2   7 N        2.839     0.083    19.802     6.609
     3   6 C        3.061     0.050    26.831     8.494
     4   7 N        2.796    -0.062    22.446     7.036
     5   6 C        3.077     0.112    25.445     8.270
     6   6 C        3.120    -0.023    28.401     8.728
     7   6 C        2.772     0.298    21.953     7.674
     8   8 O        0.858    -0.341    20.536     6.076
     9   7 N        1.840    -0.290    28.364     7.893
    10   6 C        3.648    -0.000    20.921     6.572
    11   6 C        2.779     0.301    21.889     7.663
    12   8 O        1.707    -0.200    17.337     5.622
    13   7 N        2.739    -0.049    22.194     6.997
    14   6 C        3.693    -0.072    22.063     6.721
    15   1 H        0.924     0.109     1.709     2.044
    16   1 H        0.925     0.104     1.749     2.068
    17   1 H        0.924     0.139     1.472     1.897
    18   1 H        0.926     0.123     1.590     1.972
    19   1 H        0.924     0.105     1.742     2.064
    20   1 H        0.925     0.099     1.796     2.096
    21   1 H        0.925     0.099     1.793     2.094
    22   1 H        0.924     0.084     1.938     2.177
    23   1 H        0.924     0.084     1.940     2.178
    24   1 H        0.925     0.117     1.640     2.003
    25   1 H        0.860     0.227     0.980     1.551

Wiberg/Mayer (AO) data.
largest (>0.10) Wiberg bond orders for each atom

     #   Z sym  total        # sym  WBO       # sym  WBO       # sym  WBO
 ---------------------------------------------------------------------------
     1   6 C    3.914 --     2 N    0.984    16 H    0.965    17 H    0.960
                            15 H    0.956
     2   7 N    3.690 --     3 C    1.392     6 C    1.174     1 C    0.984
     3   6 C    3.858 --     2 N    1.392     4 N    1.272    18 H    0.953
     4   7 N    3.583 --     3 C    1.272     5 C    1.190    25 H    0.920
     5   6 C    3.946 --     6 C    1.384     4 N    1.190    13 N    1.182
     6   6 C    3.901 --     5 C    1.384     2 N    1.174     7 C    1.013
     7   6 C    3.947 --     8 O    1.721     9 N    1.131     6 C    1.013
     8   8 O    2.042 --     7 C    1.721     9 N    0.112
     9   7 N    3.048 --    11 C    1.513     7 C    1.131     8 O    0.112
                            12 O    0.111
    10   6 C    3.871 --    19 H    0.970    21 H    0.969    20 H    0.969
                            12 O    0.924
    11   6 C    3.935 --     9 N    1.513    12 O    1.198    13 N    1.088
    12   8 O    2.353 --    11 C    1.198    10 C    0.924     9 N    0.111
    13   7 N    3.557 --     5 C    1.182    11 C    1.088    14 C    0.975
    14   6 C    3.931 --    13 N    0.975    23 H    0.971    22 H    0.971
                            24 H    0.969
    15   1 H    0.985 --     1 C    0.956
    16   1 H    0.987 --     1 C    0.965
    17   1 H    0.980 --     1 C    0.960
    18   1 H    0.984 --     3 C    0.953
    19   1 H    0.988 --    10 C    0.970
    20   1 H    0.987 --    10 C    0.969
    21   1 H    0.987 --    10 C    0.969
    22   1 H    0.990 --    14 C    0.971
    23   1 H    0.990 --    14 C    0.971
    24   1 H    0.986 --    14 C    0.969
    25   1 H    0.948 --     4 N    0.920
 ---------------------------------------------------------------------------

molecular dipole:
                 x           y           z       tot (Debye)
 q only:        1.173      -2.639       0.025
   full:        1.318      -3.418       0.034       9.313

           -------------------------------------------------
          | TOTAL ENERGY              -42.222229989302 Eh   |
          | GRADIENT NORM               0.006635037904 Eh/α |
          | HOMO-LUMO GAP               2.804988405547 eV   |
           -------------------------------------------------

 * finished run on 2024/06/05 at 19:57:58.246
