   * xtb version 6.6.1 (8d0f1dd) compiled by 'conda@1efc2f54142f' on 2023-08-01
          program call               : xtb struc.xyz --opt loose --input .xc1 --gfn2

   ID    Z sym.   atoms
    1    7 N      1, 17
    2    6 C      2-6, 8, 9, 11-16, 18-23, 25, 26, 28-33
    3    8 O      7, 10, 24, 27
    4    1 H      34-72
constraining bond 17 18 to    3.9200000 Å, actual value:    1.4462760 Å

          :  Hamiltonian                  GFN2-xTB          :
 * total energy  :   -98.3115084 Eh     change       -0.4035485E-08 Eh
 * total energy  :   -98.5076144 Eh     change       -0.1961060E+00 Eh
 * total energy  :   -98.7413633 Eh     change       -0.2337489E+00 Eh
 * total energy  :   -98.9928454 Eh     change       -0.2514821E+00 Eh
 * total energy  :   -99.1260632 Eh     change       -0.1332178E+00 Eh
 * total energy  :   -99.1903851 Eh     change       -0.6432188E-01 Eh
 * total energy  :   -99.2260466 Eh     change       -0.3566157E-01 Eh
 * total energy  :   -99.2509883 Eh     change       -0.2494163E-01 Eh
 * total energy  :   -99.2757490 Eh     change       -0.2476074E-01 Eh
 * total energy  :   -99.2919589 Eh     change       -0.1620993E-01 Eh
 * total energy  :   -99.3400779 Eh     change       -0.1813666E-03 Eh
 * total energy  :   -99.3402328 Eh     change       -0.1548537E-03 Eh
 * total energy  :   -99.3403640 Eh     change       -0.1311618E-03 Eh
 * total energy  :   -99.3404904 Eh     change       -0.1263934E-03 Eh
 * total energy  :   -99.3406052 Eh     change       -0.1148438E-03 Eh
 * total energy  :   -99.3407070 Eh     change       -0.1018040E-03 Eh
 * total energy  :   -99.3408021 Eh     change       -0.9508903E-04 Eh
 * total energy  :   -99.3408982 Eh     change       -0.9611037E-04 Eh
 * total energy  :   -99.3409452 Eh     change       -0.4695630E-04 Eh
   *** GEOMETRY OPTIMIZATION CONVERGED AFTER 44 ITERATIONS ***

 final structure:
================
72
 xtb: 6.6.1 (8d0f1dd)
N           -1.86014893048995        2.83218739465556        2.31678478646528
C           -1.87380880027296        1.98662407030986        1.39586848173193
C           -2.96353871863697        1.88299293732942        0.36026344690735
C           -3.53639868653039        0.47805903170422        0.37263397875190
C           -4.40158784179958        0.06992074963736       -0.64124240938805
C           -4.92709316654027       -1.21235516173948       -0.67043468819743
O           -5.76702187154754       -1.69020182395344       -1.60777049841979
C           -6.21050675834965       -0.84097346042406       -2.63960380971683
C           -4.57476867408737       -2.13743374752683        0.35172119026398
O           -5.10011822592592       -3.36916265932156        0.22570277436183
C           -4.78297974577782       -4.35257734378655        1.18280145696424
C           -3.74922680740221       -1.70866390660101        1.38042438624008
C           -3.24702691320148       -0.41743967044001        1.39356428433061
C           -2.27199371268875        2.19438857832678       -1.00150549269584
C           -1.64703858841507        1.00846053035731       -1.75380046945640
C           -0.73159568447780        0.16282464831395       -0.93858603491866
N           -0.92942387554599       -1.06885536047779       -0.83791467337808
C            2.68559472268340        0.41804361215565       -0.37138198994220
C            2.95317566193024       -0.18436993906562       -1.69033550228453
C            4.15265053899417        0.18231651937205       -0.80439614371043
C            4.93647882388451        1.35030462597168       -1.14958149880697
C            6.25937884037421        1.43920248621498       -0.83576972550587
C            6.92685585715894        0.39434755493416       -0.17575091115762
O            8.20841506605846        0.39746624150502        0.18207875849473
C            9.01615821207082        1.52351732140491       -0.08825734980060
C            6.19876039503062       -0.80147118765194        0.15787674913851
O            6.93957450706809       -1.74579941506092        0.76938764353555
C            6.32874368892508       -2.96205215310005        1.13620581962021
C            4.87348537824041       -0.89905921483074       -0.14735900132484
C           -0.12940450458459       -1.96298502914957       -0.07941707805732
C           -4.12525229191776        2.89166996901811        0.60239854072634
C           -4.82729067766143        2.62416532745087        1.93156046970381
C           -3.68366897208161        4.35143269491746        0.53955502299424
H           -4.67140040917312        0.76855279873043       -1.41642594240195
H           -6.75644736206917        0.02033770382178       -2.24274588579546
H           -6.88313872820197       -1.44503214102441       -3.24549956576964
H           -5.37864819611908       -0.49418191324529       -3.26066273360685
H           -5.13571941262537       -4.07210014108228        2.17980941176127
H           -5.29907242880042       -5.25420826968913        0.85874731156664
H           -3.70578313670648       -4.54364888945473        1.21698020380681
H           -3.49377980299189       -2.37612890606724        2.18768865723387
H           -2.63047998541582       -0.11477053503448        2.22553525898969
H           -3.00780366165086        2.64259605479889       -1.66983896477989
H           -1.50150697467169        2.94689667589693       -0.81788480808015
H           -2.41913549309048        0.35940127441574       -2.16339480900308
H           -1.07031643443080        1.42241215265389       -2.58636363256947
H           -1.06434346050156        1.26177931103420        1.23006473166735
H            0.11828349259054        0.67733897548194       -0.46659989410686
H            2.33934551760146       -0.20409137971562        0.43826223630320
H            2.37553257640491        1.45031421760065       -0.31602989938590
H            2.80550001863751        0.41512851545005       -2.57502138522836
H            2.76490358337724       -1.23679148231868       -1.83293982033326
H            4.44360704321379        2.16430147561951       -1.65751582824386
H            6.80300952849582        2.33156644049833       -1.10167715940719
H            8.64158531266386        2.41383862297885        0.42480065795719
H            9.08281022756076        1.71850277089191       -1.16202584957074
H           10.00294402119560        1.27283553388293        0.29569920759999
H            7.11211837494243       -3.55084628205397        1.60870478002053
H            5.51531741644348       -2.80144169648960        1.85035666205360
H            5.94963730065929       -3.49827616880868        0.26096824821918
H            4.31323829859684       -1.78731157523974        0.09538464892193
H            0.40853846264453       -2.61490955584264       -0.76989074621246
H           -0.79910252624116       -2.58967676940712        0.50959128883471
H            0.58551418945045       -1.46615463029702        0.58855820479873
H           -4.85244977025079        2.72203321688252       -0.20044184835395
H           -4.14919183113465        2.81939630089455        2.75679799927342
H           -5.17282492545640        1.59482661936849        1.99334364447580
H           -5.68699861328972        3.28183983553004        2.03047503350407
H           -2.95019819334418        4.55348151010986        1.31401537230049
H           -3.26023045785511        4.60886985279994       -0.42742799900456
H           -4.54509053720469        4.99251912929318        0.70898060703200
H           -1.06108567070500        2.84041664921037        2.94316693462267

          :  Hamiltonian                  GFN2-xTB          :
         :: total energy             -99.340945160692 Eh    ::
         :: gradient norm              0.001533883943 Eh/a0 ::
         :: HOMO-LUMO gap              1.299356316854 eV    ::
         :: SCC energy              -100.733425893116 Eh    ::
         :: -> dispersion             -0.073627732555 Eh    ::
         :: repulsion energy           1.390953013709 Eh    ::

    * Orbital Energies and Occupations

         #    Occupation            Energy/Eh            Energy/eV
      -------------------------------------------------------------
         1        2.0000           -0.8280077             -22.5312
       ...           ...                  ...                  ...
        78        1.9972           -0.5270399             -14.3415
        79        1.9971           -0.5261265             -14.3166
        80        1.9966           -0.5236197             -14.2484
        81        1.9955           -0.5192317             -14.1290
        82        1.9954           -0.5188397             -14.1183
        83        1.9926           -0.5113207             -13.9137
        84        1.9912           -0.5086244             -13.8404
        85        1.9899           -0.5065027             -13.7826
        86        1.9640           -0.4861461             -13.2287
        87        1.9628           -0.4855944             -13.2137
        88        1.9179           -0.4727023             -12.8629
        89        1.8693           -0.4649430             -12.6517
        90        1.7716           -0.4552564             -12.3882 (HOMO)
        91        0.5510           -0.4075059             -11.0888 (LUMO)
        92        0.0083           -0.3360494              -9.1444
        93        0.0062           -0.3314121              -9.0182
        94        0.0039           -0.3240298              -8.8173
        95        0.0018           -0.3116751              -8.4811
        96        0.0015           -0.3088814              -8.4051
        97        0.0000           -0.2493159              -6.7842
        98        0.0000           -0.1868842              -5.0854
        99                         -0.1442903              -3.9263
       100                         -0.0778022              -2.1171
       101                         -0.0698804              -1.9015
       ...                                ...                  ...
       171                          0.5762429              15.6804
      -------------------------------------------------------------
                  HL-Gap            0.0477505 Eh            1.2994 eV

     #   Z          covCN         q      C6AA      α(0)
     1   7 N        1.774    -0.267    27.742     7.800
     2   6 C        2.828     0.104    25.693     8.306
     3   6 C        3.907     0.008    20.391     6.419
     4   6 C        2.974     0.012    27.736     8.639
     5   6 C        2.920    -0.071    29.767     8.947
     6   6 C        2.862     0.136    25.022     8.199
     7   8 O        1.706    -0.219    17.638     5.670
     8   6 C        3.644     0.025    20.487     6.506
     9   6 C        2.865     0.136    25.026     8.200
    10   8 O        1.706    -0.217    17.602     5.665
    11   6 C        3.646     0.025    20.485     6.504
    12   6 C        2.913    -0.066    29.648     8.929
    13   6 C        2.922    -0.042    29.038     8.837
    14   6 C        3.809    -0.058    21.616     6.618
    15   6 C        3.809    -0.072    21.874     6.658
    16   6 C        2.837     0.078    26.259     8.398
    17   7 N        1.827    -0.198    26.112     7.572
    18   6 C        3.805    -0.052    21.508     6.602
    19   6 C        3.807    -0.055    21.554     6.609
    20   6 C        3.920     0.035    19.933     6.345
    21   6 C        2.909    -0.037    28.909     8.816
    22   6 C        2.903    -0.063    29.573     8.917
    23   6 C        2.863     0.142    24.899     8.179
    24   8 O        1.706    -0.191    17.192     5.598
    25   6 C        3.645     0.018    20.614     6.525
    26   6 C        2.853     0.135    25.037     8.201
    27   8 O        1.706    -0.229    17.795     5.696
    28   6 C        3.646     0.024    20.497     6.506
    29   6 C        2.907    -0.081    30.016     8.983
    30   6 C        3.705    -0.027    21.206     6.583
    31   6 C        3.853    -0.008    20.683     6.468
    32   6 C        3.756    -0.117    22.797     6.808
    33   6 C        3.755    -0.120    22.863     6.818
    34   1 H        0.926     0.057     2.228     2.334
    35   1 H        0.924     0.056     2.246     2.343
    36   1 H        0.925     0.083     1.944     2.180
    37   1 H        0.924     0.053     2.287     2.365
    38   1 H        0.924     0.057     2.229     2.335
    39   1 H        0.925     0.083     1.945     2.181
    40   1 H        0.924     0.052     2.290     2.367
    41   1 H        0.926     0.055     2.253     2.347
    42   1 H        0.926     0.044     2.395     2.420
    43   1 H        0.924     0.060     2.201     2.320
    44   1 H        0.924     0.047     2.360     2.403
    45   1 H        0.925     0.069     2.096     2.264
    46   1 H        0.924     0.064     2.151     2.294
    47   1 H        0.923     0.014     2.834     2.633
    48   1 H        0.923     0.012     2.854     2.642
    49   1 H        0.926     0.057     2.238     2.339
    50   1 H        0.926     0.057     2.229     2.335
    51   1 H        0.926     0.065     2.145     2.291
    52   1 H        0.926     0.064     2.148     2.292
    53   1 H        0.926     0.062     2.173     2.305
    54   1 H        0.926     0.068     2.103     2.268
    55   1 H        0.924     0.064     2.148     2.292
    56   1 H        0.924     0.065     2.139     2.287
    57   1 H        0.925     0.091     1.866     2.136
    58   1 H        0.925     0.085     1.925     2.170
    59   1 H        0.924     0.051     2.307     2.375
    60   1 H        0.924     0.053     2.279     2.361
    61   1 H        0.926     0.059     2.212     2.326
    62   1 H        0.924     0.064     2.157     2.297
    63   1 H        0.925     0.064     2.156     2.296
    64   1 H        0.924     0.021     2.716     2.577
    65   1 H        0.924     0.039     2.456     2.451
    66   1 H        0.925     0.066     2.128     2.281
    67   1 H        0.925     0.035     2.513     2.479
    68   1 H        0.925     0.052     2.290     2.366
    69   1 H        0.925     0.068     2.104     2.269
    70   1 H        0.925     0.038     2.482     2.463
    71   1 H        0.925     0.055     2.264     2.353
    72   1 H        0.860     0.158     1.350     1.820

Wiberg/Mayer (AO) data.
largest (>0.10) Wiberg bond orders for each atom

     #   Z sym  total        # sym  WBO       # sym  WBO       # sym  WBO
 ---------------------------------------------------------------------------
     1   7 N    3.013 --     2 C    1.952    72 H    0.940
     2   6 C    3.939 --     1 N    1.952     3 C    0.991    47 H    0.922
     3   6 C    3.968 --     2 C    0.991     4 C    0.978    14 C    0.947
                            31 C    0.944
     4   6 C    3.926 --    13 C    1.395     5 C    1.376     3 C    0.978
     5   6 C    3.950 --     6 C    1.390     4 C    1.376    34 H    0.957
     6   6 C    3.883 --     5 C    1.390     9 C    1.210     7 O    1.110
     7   8 O    2.249 --     6 C    1.110     8 C    0.977
     8   6 C    3.928 --     7 O    0.977    36 H    0.976    35 H    0.972
                            37 H    0.972
     9   6 C    3.876 --    12 C    1.378     6 C    1.210    10 O    1.113
    10   8 O    2.248 --     9 C    1.113    11 C    0.977
    11   6 C    3.928 --    10 O    0.977    39 H    0.977    40 H    0.972
                            38 H    0.971
    12   6 C    3.951 --    13 C    1.419     9 C    1.378    41 H    0.963
    13   6 C    3.931 --    12 C    1.419     4 C    1.395    42 H    0.961
    14   6 C    3.983 --    15 C    0.988    44 H    0.973    43 H    0.967
                             3 C    0.947
    15   6 C    3.985 --    16 C    1.026    14 C    0.988    45 H    0.966
                            46 H    0.948
    16   6 C    3.954 --    17 N    1.894    15 C    1.026    48 H    0.922
    17   7 N    3.057 --    16 C    1.894    30 C    1.046
    18   6 C    3.852 --    19 C    1.023    50 H    0.975    49 H    0.970
                            20 C    0.815
    19   6 C    3.870 --    18 C    1.023    51 H    0.975    52 H    0.974
                            20 C    0.842
    20   6 C    3.938 --    21 C    1.118    29 C    1.099    19 C    0.842
                            18 C    0.815
    21   6 C    3.783 --    22 C    1.575    20 C    1.118    53 H    0.966
    22   6 C    3.978 --    21 C    1.575    23 C    1.286    54 H    0.960
    23   6 C    3.734 --    22 C    1.286    24 O    1.165    26 C    1.150
    24   8 O    2.280 --    23 C    1.165    25 C    0.967
    25   6 C    3.920 --    57 H    0.976    55 H    0.971    56 H    0.971
                            24 O    0.967
    26   6 C    3.934 --    29 C    1.533    23 C    1.150    27 O    1.102
    27   8 O    2.267 --    26 C    1.102    28 C    0.975    29 C    0.101
    28   6 C    3.930 --    58 H    0.976    27 O    0.975    59 H    0.974
                            60 H    0.974
    29   6 C    3.825 --    26 C    1.533    20 C    1.099    61 H    0.962
                            27 O    0.101
    30   6 C    3.976 --    17 N    1.046    63 H    0.964    64 H    0.962
                            62 H    0.959
    31   6 C    3.968 --    33 C    1.008    32 C    1.008    65 H    0.957
                             3 C    0.944
    32   6 C    3.975 --    31 C    1.008    67 H    0.981    68 H    0.981
                            66 H    0.973
    33   6 C    3.973 --    31 C    1.008    70 H    0.981    71 H    0.979
                            69 H    0.970
    34   1 H    0.995 --     5 C    0.957
    35   1 H    0.991 --     8 C    0.972
    36   1 H    0.992 --     8 C    0.976
    37   1 H    0.991 --     8 C    0.972
    38   1 H    0.990 --    11 C    0.971
    39   1 H    0.992 --    11 C    0.977
    40   1 H    0.991 --    11 C    0.972
    41   1 H    0.995 --    12 C    0.963
    42   1 H    0.997 --    13 C    0.961
    43   1 H    0.994 --    14 C    0.967
    44   1 H    0.996 --    14 C    0.973
    45   1 H    0.994 --    15 C    0.966
    46   1 H    0.994 --    15 C    0.948
    47   1 H    0.976 --     2 C    0.922
    48   1 H    0.981 --    16 C    0.922
    49   1 H    0.995 --    18 C    0.970
    50   1 H    0.995 --    18 C    0.975
    51   1 H    0.994 --    19 C    0.975
    52   1 H    0.994 --    19 C    0.974
    53   1 H    0.996 --    21 C    0.966
    54   1 H    0.994 --    22 C    0.960
    55   1 H    0.989 --    25 C    0.971
    56   1 H    0.989 --    25 C    0.971
    57   1 H    0.991 --    25 C    0.976
    58   1 H    0.992 --    28 C    0.976
    59   1 H    0.995 --    28 C    0.974
    60   1 H    0.995 --    28 C    0.974
    61   1 H    0.995 --    29 C    0.962
    62   1 H    0.994 --    30 C    0.959
    63   1 H    0.993 --    30 C    0.964
    64   1 H    0.988 --    30 C    0.962
    65   1 H    0.988 --    31 C    0.957
    66   1 H    0.989 --    32 C    0.973
    67   1 H    0.996 --    32 C    0.981
    68   1 H    0.993 --    32 C    0.981
    69   1 H    0.989 --    33 C    0.970
    70   1 H    0.996 --    33 C    0.981
    71   1 H    0.992 --    33 C    0.979
    72   1 H    0.967 --     1 N    0.940
 ---------------------------------------------------------------------------

molecular dipole:
                 x           y           z       tot (Debye)
 q only:        1.813       0.186      -0.520
   full:        2.395       0.203      -0.441       6.211

           -------------------------------------------------
          | TOTAL ENERGY              -99.340945160692 Eh   |
          | GRADIENT NORM               0.001533883943 Eh/α |
          | HOMO-LUMO GAP               1.299356316854 eV   |
           -------------------------------------------------

 * finished run on 2024/04/06 at 11:13:29.239
