   * xtb version 6.6.1 (8d0f1dd) compiled by 'conda@1efc2f54142f' on 2023-08-01
          program call               : xtb xtbopt.xyz --opt crude --input .xc2 --gfn2

   ID    Z sym.   atoms
    1    7 N      1, 17
    2    6 C      2-6, 8, 9, 11-16, 18-23, 25, 26, 28-33
    3    8 O      7, 10, 24, 27
    4    1 H      34-72

          :  Hamiltonian                  GFN2-xTB          :
 * total energy  :   -99.3409944 Eh     change        0.9947598E-13 Eh
 * total energy  :   -99.3412346 Eh     change       -0.2402116E-03 Eh
   *** GEOMETRY OPTIMIZATION CONVERGED AFTER 2 ITERATIONS ***

 final structure:
================
72
 xtb: 6.6.1 (8d0f1dd)
N           -1.86183545544112        2.83144757805591        2.31763025814188
C           -1.87521244258436        1.98607613043051        1.39660559658368
C           -2.96484094824243        1.88264051348677        0.36079386175187
C           -3.53793338351824        0.47778589391100        0.37301946646321
C           -4.40256890633825        0.06974400156873       -0.64139558789800
C           -4.92809721799654       -1.21248615337446       -0.67118016153274
O           -5.76741187066169       -1.68999722130949       -1.60917482738240
C           -6.20985405854509       -0.84041208620559       -2.64113592008334
C           -4.57659784120466       -2.13763089594881        0.35115763328437
O           -5.10211355687632       -3.36926578460957        0.22491691644369
C           -4.78671019658098       -4.35233759786514        1.18293890823318
C           -3.75148716361823       -1.70910225028991        1.38029267251101
C           -3.24900752341747       -0.41797091716135        1.39384822164721
C           -2.27385597876921        2.19388764064748       -1.00116012480067
C           -1.65502942874935        1.00539549352960       -1.75424908621106
C           -0.74465150303557        0.15550897573597       -0.93866874975937
N           -0.95087505885199       -1.07518076583358       -0.83429435748873
C            2.70216987945086        0.42941654212634       -0.36611024193956
C            2.95719502941532       -0.17843950444092       -1.68574451195062
C            4.16302666603854        0.18457536473522       -0.80681151540305
C            4.94667235617662        1.35128790421261       -1.15421626767032
C            6.26880748803485        1.43921806193785       -0.83904946199247
C            6.93410520127893        0.39364525251181       -0.17789647294001
O            8.21504296093798        0.39652084460594        0.18152583981888
C            9.02189278666584        1.52295440018250       -0.08890163526240
C            6.20550862766354       -0.80179235915103        0.15603032928648
O            6.94470686626841       -1.74624903334251        0.76905887563591
C            6.33188995266778       -2.96140660751696        1.13595255142723
C            4.88053322161472       -0.89813172662642       -0.14934775768482
C           -0.14304318368635       -1.96674103758483       -0.07971284882697
C           -4.12659550050309        2.89120741143486        0.60252173924843
C           -4.82952917843181        2.62316444276181        1.93099099769872
C           -3.68490792757731        4.35095377804298        0.54032234441918
H           -4.67163496725156        0.76837699650818       -1.41679311985569
H           -6.75469080159899        0.02166430899789       -2.24437651802513
H           -6.88330793116909       -1.44369537921389       -3.24691143863191
H           -5.37758865385988       -0.49481200026726       -3.26227093562629
H           -5.14038031201979       -4.07093485787595        2.17935164020302
H           -5.30312408393745       -5.25378378840080        0.85887507352696
H           -3.70973673570681       -4.54420992971708        1.21842526456404
H           -3.49654598305660       -2.37673863319705        2.18752462659613
H           -2.63235510895342       -0.11572497424802        2.22589216615152
H           -3.00894522061602        2.64441542627834       -1.66874012824826
H           -1.50094948586002        2.94382688755725       -0.81755915445746
H           -2.42992197729587        0.35813127437072       -2.16162327213140
H           -1.07798333837029        1.41642406046828       -2.58846220344729
H           -1.06604248499040        1.26077059014953        1.23113493407980
H            0.11143786358142        0.66434526408249       -0.47142618761362
H            2.35360096679819       -0.19066888772346        0.44440230589959
H            2.39315921835384        1.46201603281069       -0.31320976134039
H            2.80739447460575        0.41921323681374       -2.57121732851812
H            2.76341717406200       -1.23048013563959       -1.82487467229497
H            4.45283379339455        2.16573197792012       -1.66053211841147
H            6.81284856236330        2.33153024060544       -1.10365877456699
H            8.64575671357043        2.41330153638463        0.42285591985600
H            9.08932402737350        1.71682916495823       -1.16283072297705
H           10.00838510763014        1.27337442738967        0.29645964954905
H            7.11449136235605       -3.55144945468968        1.60809188519414
H            5.51892232412705       -2.79970785651971        1.85040661580427
H            5.95145000404602       -3.49698155589879        0.26092741707840
H            4.31794572123648       -1.78449799021933        0.09520494471381
H            0.39047659476860       -2.62104051405882       -0.77109206413794
H           -0.80762130939611       -2.58975057453508        0.51899238708436
H            0.57873540787822       -1.46680576794224        0.57932541938609
H           -4.85304163088440        2.72170224293374       -0.20098372758475
H           -4.15213553842875        2.81839321530586        2.75679616706103
H           -5.17472367521391        1.59367740515710        1.99219872907608
H           -5.68950735142668        3.28050093640815        2.02932056357944
H           -2.95210602061630        4.55290840609834        1.31540045860678
H           -3.26069660306143        4.60863605530576       -0.42624832499614
H           -4.54657781871639        4.99187566243912        0.70918814337419
H           -1.06343939826975        2.83949018506510        2.94474430027170

          :  Hamiltonian                  GFN2-xTB          :
         :: total energy             -99.341234623520 Eh    ::
         :: gradient norm              0.002792794614 Eh/a0 ::
         :: HOMO-LUMO gap              1.297783591632 eV    ::
         :: SCC energy              -100.733903602194 Eh    ::
         :: -> dispersion             -0.073626271711 Eh    ::
         :: repulsion energy           1.391188158432 Eh    ::

    * Orbital Energies and Occupations

         #    Occupation            Energy/Eh            Energy/eV
      -------------------------------------------------------------
         1        2.0000           -0.8281516             -22.5352
       ...           ...                  ...                  ...
        78        1.9972           -0.5268657             -14.3367
        79        1.9971           -0.5261442             -14.3171
        80        1.9966           -0.5235879             -14.2476
        81        1.9955           -0.5193496             -14.1322
        82        1.9954           -0.5188464             -14.1185
        83        1.9925           -0.5113098             -13.9134
        84        1.9911           -0.5085540             -13.8385
        85        1.9899           -0.5065104             -13.7829
        86        1.9638           -0.4861044             -13.2276
        87        1.9629           -0.4856796             -13.2160
        88        1.9187           -0.4729064             -12.8684
        89        1.8699           -0.4650603             -12.6549
        90        1.7708           -0.4552254             -12.3873 (HOMO)
        91        0.5507           -0.4075328             -11.0895 (LUMO)
        92        0.0083           -0.3360584              -9.1446
        93        0.0062           -0.3314628              -9.0196
        94        0.0039           -0.3240103              -8.8168
        95        0.0018           -0.3116443              -8.4803
        96        0.0015           -0.3088343              -8.4038
        97        0.0000           -0.2492211              -6.7817
        98        0.0000           -0.1868522              -5.0845
        99                         -0.1439286              -3.9165
       100                         -0.0775051              -2.1090
       101                         -0.0695988              -1.8939
       ...                                ...                  ...
       171                          0.5762889              15.6816
      -------------------------------------------------------------
                  HL-Gap            0.0476927 Eh            1.2978 eV

     #   Z          covCN         q      C6AA      α(0)
     1   7 N        1.774    -0.267    27.740     7.799
     2   6 C        2.828     0.104    25.692     8.306
     3   6 C        3.907     0.008    20.391     6.419
     4   6 C        2.974     0.012    27.734     8.638
     5   6 C        2.920    -0.071    29.765     8.947
     6   6 C        2.862     0.136    25.021     8.199
     7   8 O        1.706    -0.219    17.636     5.670
     8   6 C        3.644     0.025    20.487     6.506
     9   6 C        2.865     0.136    25.024     8.200
    10   8 O        1.706    -0.217    17.600     5.664
    11   6 C        3.646     0.025    20.485     6.504
    12   6 C        2.913    -0.066    29.646     8.928
    13   6 C        2.922    -0.042    29.035     8.836
    14   6 C        3.810    -0.058    21.616     6.618
    15   6 C        3.809    -0.072    21.875     6.658
    16   6 C        2.838     0.078    26.256     8.397
    17   7 N        1.827    -0.198    26.125     7.574
    18   6 C        3.806    -0.052    21.505     6.602
    19   6 C        3.806    -0.055    21.561     6.610
    20   6 C        3.920     0.035    19.928     6.345
    21   6 C        2.909    -0.036    28.905     8.816
    22   6 C        2.903    -0.063    29.573     8.917
    23   6 C        2.864     0.142    24.899     8.179
    24   8 O        1.706    -0.191    17.190     5.598
    25   6 C        3.646     0.018    20.613     6.525
    26   6 C        2.853     0.136    25.036     8.201
    27   8 O        1.706    -0.229    17.794     5.695
    28   6 C        3.646     0.024    20.496     6.506
    29   6 C        2.907    -0.081    30.014     8.983
    30   6 C        3.706    -0.027    21.202     6.582
    31   6 C        3.853    -0.008    20.683     6.468
    32   6 C        3.756    -0.117    22.797     6.808
    33   6 C        3.755    -0.120    22.863     6.818
    34   1 H        0.926     0.058     2.228     2.334
    35   1 H        0.924     0.056     2.246     2.343
    36   1 H        0.925     0.083     1.944     2.180
    37   1 H        0.924     0.053     2.287     2.365
    38   1 H        0.924     0.057     2.229     2.335
    39   1 H        0.925     0.083     1.945     2.181
    40   1 H        0.924     0.053     2.289     2.366
    41   1 H        0.926     0.056     2.252     2.347
    42   1 H        0.926     0.044     2.395     2.420
    43   1 H        0.924     0.060     2.201     2.320
    44   1 H        0.924     0.047     2.360     2.403
    45   1 H        0.925     0.069     2.095     2.263
    46   1 H        0.924     0.064     2.152     2.294
    47   1 H        0.923     0.014     2.834     2.633
    48   1 H        0.923     0.012     2.860     2.645
    49   1 H        0.926     0.056     2.242     2.341
    50   1 H        0.926     0.057     2.228     2.334
    51   1 H        0.926     0.064     2.147     2.291
    52   1 H        0.926     0.064     2.150     2.293
    53   1 H        0.926     0.062     2.171     2.304
    54   1 H        0.926     0.068     2.102     2.267
    55   1 H        0.924     0.064     2.148     2.292
    56   1 H        0.924     0.065     2.139     2.287
    57   1 H        0.925     0.091     1.866     2.136
    58   1 H        0.925     0.085     1.925     2.170
    59   1 H        0.924     0.051     2.307     2.375
    60   1 H        0.924     0.053     2.279     2.361
    61   1 H        0.926     0.059     2.210     2.325
    62   1 H        0.924     0.063     2.160     2.298
    63   1 H        0.925     0.063     2.159     2.298
    64   1 H        0.924     0.021     2.722     2.580
    65   1 H        0.924     0.040     2.455     2.451
    66   1 H        0.925     0.066     2.128     2.281
    67   1 H        0.925     0.035     2.513     2.479
    68   1 H        0.925     0.052     2.290     2.366
    69   1 H        0.925     0.068     2.104     2.268
    70   1 H        0.925     0.038     2.481     2.463
    71   1 H        0.925     0.055     2.264     2.353
    72   1 H        0.860     0.158     1.350     1.820

Wiberg/Mayer (AO) data.
largest (>0.10) Wiberg bond orders for each atom

     #   Z sym  total        # sym  WBO       # sym  WBO       # sym  WBO
 ---------------------------------------------------------------------------
     1   7 N    3.013 --     2 C    1.953    72 H    0.940
     2   6 C    3.939 --     1 N    1.953     3 C    0.991    47 H    0.922
     3   6 C    3.968 --     2 C    0.991     4 C    0.978    14 C    0.947
                            31 C    0.944
     4   6 C    3.926 --    13 C    1.394     5 C    1.376     3 C    0.978
     5   6 C    3.950 --     6 C    1.390     4 C    1.376    34 H    0.957
     6   6 C    3.883 --     5 C    1.390     9 C    1.210     7 O    1.110
     7   8 O    2.249 --     6 C    1.110     8 C    0.977
     8   6 C    3.928 --     7 O    0.977    36 H    0.976    35 H    0.972
                            37 H    0.972
     9   6 C    3.876 --    12 C    1.378     6 C    1.210    10 O    1.113
    10   8 O    2.248 --     9 C    1.113    11 C    0.977
    11   6 C    3.928 --    10 O    0.977    39 H    0.977    40 H    0.972
                            38 H    0.971
    12   6 C    3.951 --    13 C    1.419     9 C    1.378    41 H    0.963
    13   6 C    3.930 --    12 C    1.419     4 C    1.394    42 H    0.961
    14   6 C    3.983 --    15 C    0.988    44 H    0.973    43 H    0.967
                             3 C    0.947
    15   6 C    3.985 --    16 C    1.026    14 C    0.988    45 H    0.966
                            46 H    0.948
    16   6 C    3.954 --    17 N    1.894    15 C    1.026    48 H    0.922
    17   7 N    3.056 --    16 C    1.894    30 C    1.045
    18   6 C    3.853 --    19 C    1.022    50 H    0.975    49 H    0.970
                            20 C    0.815
    19   6 C    3.870 --    18 C    1.022    51 H    0.975    52 H    0.975
                            20 C    0.842
    20   6 C    3.938 --    21 C    1.117    29 C    1.099    19 C    0.842
                            18 C    0.815
    21   6 C    3.784 --    22 C    1.576    20 C    1.117    53 H    0.966
    22   6 C    3.978 --    21 C    1.576    23 C    1.286    54 H    0.960
    23   6 C    3.734 --    22 C    1.286    24 O    1.165    26 C    1.150
    24   8 O    2.280 --    23 C    1.165    25 C    0.967
    25   6 C    3.920 --    57 H    0.976    55 H    0.971    56 H    0.971
                            24 O    0.967
    26   6 C    3.935 --    29 C    1.533    23 C    1.150    27 O    1.102
    27   8 O    2.267 --    26 C    1.102    28 C    0.975    29 C    0.101
    28   6 C    3.930 --    58 H    0.976    27 O    0.975    59 H    0.974
                            60 H    0.974
    29   6 C    3.825 --    26 C    1.533    20 C    1.099    61 H    0.962
                            27 O    0.101
    30   6 C    3.976 --    17 N    1.045    63 H    0.964    64 H    0.963
                            62 H    0.959
    31   6 C    3.968 --    33 C    1.008    32 C    1.008    65 H    0.957
                             3 C    0.944
    32   6 C    3.975 --    31 C    1.008    67 H    0.981    68 H    0.981
                            66 H    0.973
    33   6 C    3.973 --    31 C    1.008    70 H    0.981    71 H    0.979
                            69 H    0.970
    34   1 H    0.995 --     5 C    0.957
    35   1 H    0.991 --     8 C    0.972
    36   1 H    0.992 --     8 C    0.976
    37   1 H    0.991 --     8 C    0.972
    38   1 H    0.990 --    11 C    0.971
    39   1 H    0.992 --    11 C    0.977
    40   1 H    0.991 --    11 C    0.972
    41   1 H    0.995 --    12 C    0.963
    42   1 H    0.997 --    13 C    0.961
    43   1 H    0.994 --    14 C    0.967
    44   1 H    0.996 --    14 C    0.973
    45   1 H    0.994 --    15 C    0.966
    46   1 H    0.994 --    15 C    0.948
    47   1 H    0.976 --     2 C    0.922
    48   1 H    0.982 --    16 C    0.922
    49   1 H    0.995 --    18 C    0.970
    50   1 H    0.995 --    18 C    0.975
    51   1 H    0.994 --    19 C    0.975
    52   1 H    0.994 --    19 C    0.975
    53   1 H    0.996 --    21 C    0.966
    54   1 H    0.994 --    22 C    0.960
    55   1 H    0.989 --    25 C    0.971
    56   1 H    0.989 --    25 C    0.971
    57   1 H    0.991 --    25 C    0.976
    58   1 H    0.992 --    28 C    0.976
    59   1 H    0.995 --    28 C    0.974
    60   1 H    0.995 --    28 C    0.974
    61   1 H    0.995 --    29 C    0.962
    62   1 H    0.994 --    30 C    0.959
    63   1 H    0.993 --    30 C    0.964
    64   1 H    0.989 --    30 C    0.963
    65   1 H    0.988 --    31 C    0.957
    66   1 H    0.989 --    32 C    0.973
    67   1 H    0.996 --    32 C    0.981
    68   1 H    0.993 --    32 C    0.981
    69   1 H    0.989 --    33 C    0.970
    70   1 H    0.996 --    33 C    0.981
    71   1 H    0.992 --    33 C    0.979
    72   1 H    0.967 --     1 N    0.940
 ---------------------------------------------------------------------------

molecular dipole:
                 x           y           z       tot (Debye)
 q only:        1.816       0.193      -0.517
   full:        2.401       0.209      -0.439       6.226

           -------------------------------------------------
          | TOTAL ENERGY              -99.341234623520 Eh   |
          | GRADIENT NORM               0.002792794614 Eh/α |
          | HOMO-LUMO GAP               1.297783591632 eV   |
           -------------------------------------------------

 * finished run on 2024/04/06 at 11:13:29.874
