   * xtb version 6.6.1 (8d0f1dd) compiled by 'conda@1efc2f54142f' on 2023-08-01
          program call               : xtb xtbopt.xyz --opt crude --input .xc2 --gfn2

   ID    Z sym.   atoms
    1    7 N      1, 17
    2    6 C      2-6, 8, 9, 11-16, 18-23, 25, 26, 28-33
    3    8 O      7, 10, 24, 27
    4    1 H      34-72

          :  Hamiltonian                  GFN2-xTB          :
 * total energy  :   -99.3575471 Eh     change       -0.3410605E-12 Eh
   *** GEOMETRY OPTIMIZATION CONVERGED AFTER 1 ITERATIONS ***

 final structure:
================
72
 xtb: 6.6.1 (8d0f1dd)
N           -1.82963087908336        3.26088022559529        2.11754239128114
C           -1.80553597731401        2.46885088282191        1.15318246929259
C           -2.96383844630766        2.20408283403357        0.23221506497971
C           -3.43805214130746        0.76848045920587        0.41023991101473
C           -4.37051287341279        0.23833047465565       -0.47810146376656
C           -4.82557882872925       -1.07081142731194       -0.34080589731677
O           -5.73804205679440       -1.65440524944853       -1.14557265485408
C           -6.37301743915026       -0.89125207329016       -2.14534422522911
C           -4.31530366461158       -1.87132060277326        0.68895456048461
O           -3.89352175321061       -5.66611368825844        0.74886191362895
C           -4.06330219158437       -6.79061167393039        1.12133202607331
C           -3.40313424415064       -1.34191915471286        1.57442263025581
C           -2.96688791289394       -0.02852330763254        1.44613342202452
C           -2.41401110229622        2.40314409440804       -1.20514594312006
C           -1.51822110736115        1.25818435642880       -1.71292512278004
C           -0.19326849033153        1.19815913533891       -1.05731015695981
N            0.40057468973370        0.09522610714148       -0.62505253171147
C            1.77969036804724        0.12890214012571       -0.19679334944084
C            2.73001510722429       -0.36900864945623       -1.30322059581892
C            4.15997483904871       -0.19087774831984       -0.87498746612756
C            4.80695860765554        1.01793102881362       -1.07787773096694
C            6.11875762419469        1.19974039062858       -0.66934161047666
C            6.81179320429569        0.17293922288827       -0.04405153236689
O            8.08407882313371        0.23351935302976        0.38854392434357
C            8.82122254324148        1.41913063395563        0.19660815454060
C            6.15505442217606       -1.07065493803197        0.17253705717299
O            6.90229552517684       -2.01210260737727        0.78068312178844
C            6.35674019093322       -3.29023431379660        1.00534249907408
C            4.84128391182300       -1.22729560126953       -0.24191802088609
C           -0.25663268651309       -1.19022635991456       -0.64373581400489
C           -4.17372510316838        3.15297129517567        0.47716988901436
C           -4.79591609409207        2.91765524372591        1.85152849346389
C           -3.82416640884193        4.62952310207124        0.31495310799012
H           -4.74974964472253        0.85467650028936       -1.27671962805300
H           -6.86513214228392       -0.00969316213847       -1.72531311129013
H           -7.12342201495209       -1.54606434605975       -2.58294466838336
H           -5.66807361297206       -0.58296170923070       -2.92376611911604
H           -4.65570701034561       -2.89038151854967        0.77124599168085
H           -5.05572236325797       -7.26569343397778        1.14540730840900
H           -3.23732783682747       -7.43480499485645        1.46269971605488
H           -3.02721433948369       -1.95308036191433        2.38031946528474
H           -2.27437310852882        0.37415577882210        2.16933019705828
H           -3.25493886595635        2.49896271878707       -1.89130310115795
H           -1.85302086096487        3.33796285692166       -1.24049689664095
H           -2.04993819243246        0.31215096338477       -1.62853725658670
H           -1.34287875914571        1.44925128414899       -2.77987954150896
H           -0.90430561583537        1.90458700487482        0.84204760196510
H            0.40281096989255        2.09941176219225       -1.05697373773602
H            1.89484653999180       -0.49551853243709        0.69269766584434
H            2.05214850657036        1.15304844555402        0.06685892716746
H            2.54206047538570        0.20973951757980       -2.20956666166502
H            2.52746410260269       -1.41913315695861       -1.51571850971569
H            4.29401825919876        1.82900331096408       -1.57228363738156
H            6.59744432905887        2.14824620324964       -0.84927246792953
H            8.36529503529878        2.26395946926445        0.72167136104402
H            8.92238043855476        1.65987156044903       -0.86586862521484
H            9.80538184580525        1.22195220821079        0.61716515368757
H            7.15066590561040       -3.86750808430245        1.47518397941996
H            5.49513137469563       -3.24633411515069        1.67911075609816
H            6.06521892775402       -3.77261206666229        0.06730723879899
H            4.33748496918551       -2.16866689098408       -0.08791294799141
H           -0.43188756795386       -1.52940311074798       -1.66655938550566
H           -1.21487451611597       -1.13933917948419       -0.12137119048088
H            0.36955253689643       -1.92125841982593       -0.13969382087400
H           -4.92487959533692        2.89939868218754       -0.27977512346772
H           -4.08333282970306        3.16859546068748        2.63071995754582
H           -5.10225111646248        1.88151265097901        1.97368255694125
H           -5.67232038031413        3.54972314733761        1.96781532743404
H           -3.07412423939042        4.92154620820506        1.04332808100430
H           -3.46120476027498        4.85471161912012       -0.68431321269505
H           -4.71554862951048        5.22693820458591        0.48736849774217
H           -0.97930107226841        3.38489346347242        2.65750818213499

          :  Hamiltonian                  GFN2-xTB          :
         :: total energy             -99.357547097130 Eh    ::
         :: gradient norm              0.001576766880 Eh/a0 ::
         :: HOMO-LUMO gap              1.673227235962 eV    ::
         :: SCC energy              -100.761591957381 Eh    ::
         :: -> dispersion             -0.072828025683 Eh    ::
         :: repulsion energy           1.402866661290 Eh    ::

    * Orbital Energies and Occupations

         #    Occupation            Energy/Eh            Energy/eV
      -------------------------------------------------------------
         1        2.0000           -0.8074502             -21.9718
       ...           ...                  ...                  ...
        78        1.9980           -0.5280430             -14.3688
        79        1.9977           -0.5258787             -14.3099
        80        1.9969           -0.5211583             -14.1814
        81        1.9968           -0.5206206             -14.1668
        82        1.9955           -0.5153241             -14.0227
        83        1.9944           -0.5119490             -13.9308
        84        1.9910           -0.5042716             -13.7219
        85        1.9821           -0.4933432             -13.4246
        86        1.9774           -0.4896539             -13.3242
        87        1.9689           -0.4845092             -13.1842
        88        1.9299           -0.4713128             -12.8251
        89        1.9234           -0.4698677             -12.7858
        90        1.8344           -0.4569001             -12.4329 (HOMO)
        91        0.3713           -0.3954102             -10.7597 (LUMO)
        92        0.0298           -0.3524392              -9.5904
        93        0.0128           -0.3389558              -9.2235
        94        0.0035           -0.3184790              -8.6663
        95        0.0026           -0.3134987              -8.5307
        96        0.0023           -0.3114359              -8.4746
        97        0.0018           -0.3081555              -8.3853
        98        0.0000           -0.1888082              -5.1377
        99        0.0000           -0.1868141              -5.0835
       100                         -0.1365982              -3.7170
       101                         -0.0684319              -1.8621
       ...                                ...                  ...
       171                          0.5747984              15.6411
      -------------------------------------------------------------
                  HL-Gap            0.0614900 Eh            1.6732 eV

     #   Z          covCN         q      C6AA      α(0)
     1   7 N        1.774    -0.266    27.724     7.797
     2   6 C        2.827     0.102    25.724     8.311
     3   6 C        3.908     0.006    20.426     6.424
     4   6 C        2.976     0.011    27.773     8.644
     5   6 C        2.921    -0.076    29.902     8.967
     6   6 C        2.863     0.150    24.736     8.152
     7   8 O        1.706    -0.243    18.027     5.733
     8   6 C        3.643     0.030    20.414     6.495
     9   6 C        2.918    -0.053    29.323     8.880
    10   8 O        0.856    -0.281    19.448     5.913
    11   6 C        2.702     0.180    24.132     8.040
    12   6 C        2.917    -0.031    28.764     8.795
    13   6 C        2.921    -0.052    29.300     8.877
    14   6 C        3.812    -0.064    21.709     6.632
    15   6 C        3.802    -0.069    21.829     6.652
    16   6 C        2.844     0.010    27.790     8.639
    17   7 N        2.729     0.016    20.976     6.802
    18   6 C        3.756    -0.017    20.935     6.524
    19   6 C        3.808    -0.071    21.844     6.653
    20   6 C        2.969     0.000    28.018     8.682
    21   6 C        2.922    -0.049    29.209     8.863
    22   6 C        2.914    -0.067    29.676     8.933
    23   6 C        2.865     0.134    25.070     8.207
    24   8 O        1.706    -0.220    17.658     5.674
    25   6 C        3.645     0.025    20.495     6.506
    26   6 C        2.863     0.134    25.074     8.208
    27   8 O        1.706    -0.223    17.701     5.680
    28   6 C        3.645     0.026    20.466     6.502
    29   6 C        2.919    -0.079    29.972     8.978
    30   6 C        3.700    -0.073    22.066     6.718
    31   6 C        3.853    -0.007    20.660     6.465
    32   6 C        3.756    -0.118    22.812     6.810
    33   6 C        3.755    -0.119    22.830     6.813
    34   1 H        0.926     0.044     2.393     2.419
    35   1 H        0.924     0.052     2.299     2.371
    36   1 H        0.925     0.078     2.003     2.213
    37   1 H        0.924     0.046     2.376     2.410
    38   1 H        0.926     0.078     1.998     2.210
    39   1 H        0.923     0.054     2.273     2.358
    40   1 H        0.923     0.049     2.328     2.386
    41   1 H        0.926     0.051     2.305     2.374
    42   1 H        0.926     0.033     2.539     2.492
    43   1 H        0.925     0.061     2.188     2.313
    44   1 H        0.924     0.053     2.288     2.365
    45   1 H        0.925     0.068     2.103     2.268
    46   1 H        0.923     0.081     1.972     2.196
    47   1 H        0.922     0.006     2.949     2.686
    48   1 H        0.926     0.071     2.080     2.255
    49   1 H        0.924     0.070     2.090     2.261
    50   1 H        0.924     0.068     2.112     2.273
    51   1 H        0.924     0.055     2.253     2.348
    52   1 H        0.924     0.057     2.237     2.339
    53   1 H        0.926     0.045     2.385     2.415
    54   1 H        0.926     0.059     2.212     2.326
    55   1 H        0.924     0.055     2.261     2.351
    56   1 H        0.924     0.056     2.241     2.341
    57   1 H        0.925     0.083     1.948     2.183
    58   1 H        0.925     0.083     1.953     2.185
    59   1 H        0.924     0.050     2.319     2.381
    60   1 H        0.924     0.053     2.279     2.361
    61   1 H        0.926     0.049     2.333     2.389
    62   1 H        0.924     0.078     1.997     2.210
    63   1 H        0.924     0.085     1.931     2.173
    64   1 H        0.925     0.082     1.955     2.187
    65   1 H        0.924     0.038     2.482     2.464
    66   1 H        0.925     0.068     2.105     2.269
    67   1 H        0.925     0.037     2.490     2.467
    68   1 H        0.925     0.051     2.303     2.373
    69   1 H        0.925     0.062     2.180     2.309
    70   1 H        0.925     0.034     2.524     2.485
    71   1 H        0.925     0.054     2.267     2.355
    72   1 H        0.860     0.158     1.349     1.819

Wiberg/Mayer (AO) data.
largest (>0.10) Wiberg bond orders for each atom

     #   Z sym  total        # sym  WBO       # sym  WBO       # sym  WBO
 ---------------------------------------------------------------------------
     1   7 N    3.042 --     2 C    1.958    72 H    0.941
     2   6 C    3.930 --     1 N    1.958     3 C    0.995    47 H    0.899
     3   6 C    3.974 --     2 C    0.995     4 C    0.968    14 C    0.956
                            31 C    0.943
     4   6 C    3.967 --    13 C    1.408     5 C    1.400     3 C    0.968
     5   6 C    3.957 --     4 C    1.400     6 C    1.362    34 H    0.959
     6   6 C    3.913 --     5 C    1.362     9 C    1.318     7 O    1.095
     7   8 O    2.248 --     6 C    1.095     8 C    0.979
     8   6 C    3.935 --     7 O    0.979    36 H    0.977    35 H    0.974
                            37 H    0.974
     9   6 C    3.950 --    12 C    1.477     6 C    1.318    38 H    0.963
    10   8 O    2.071 --    11 C    1.982
    11   6 C    3.860 --    10 O    1.982    39 H    0.939    40 H    0.939
    12   6 C    3.977 --     9 C    1.477    13 C    1.402    41 H    0.968
    13   6 C    3.952 --     4 C    1.408    12 C    1.402    42 H    0.962
    14   6 C    3.974 --    15 C    0.981    44 H    0.972    43 H    0.968
                             3 C    0.956
    15   6 C    3.986 --    16 C    1.060    14 C    0.981    45 H    0.961
                            46 H    0.927
    16   6 C    3.612 --    17 N    1.416    15 C    1.060    48 H    0.957
    17   7 N    3.493 --    16 C    1.416    30 C    0.997    18 C    0.988
    18   6 C    3.955 --    17 N    0.988    50 H    0.968    19 C    0.966
                            49 H    0.964
    19   6 C    3.976 --    20 C    1.008    52 H    0.972    51 H    0.971
                            18 C    0.966
    20   6 C    3.943 --    21 C    1.407    29 C    1.382    19 C    1.008
    21   6 C    3.948 --    22 C    1.418    20 C    1.407    53 H    0.968
    22   6 C    3.958 --    21 C    1.418    23 C    1.382    54 H    0.963
    23   6 C    3.893 --    22 C    1.382    26 C    1.218    24 O    1.112
    24   8 O    2.255 --    23 C    1.112    25 C    0.976
    25   6 C    3.927 --    57 H    0.977    24 O    0.976    55 H    0.972
                            56 H    0.972
    26   6 C    3.897 --    29 C    1.393    23 C    1.218    27 O    1.106
    27   8 O    2.255 --    26 C    1.106    28 C    0.978
    28   6 C    3.931 --    27 O    0.978    58 H    0.977    59 H    0.973
                            60 H    0.973
    29   6 C    3.958 --    26 C    1.393    20 C    1.382    61 H    0.962
    30   6 C    3.954 --    17 N    0.997    64 H    0.977    62 H    0.966
                            63 H    0.958
    31   6 C    3.973 --    33 C    1.009    32 C    1.008    65 H    0.959
                             3 C    0.943
    32   6 C    3.977 --    31 C    1.008    67 H    0.981    68 H    0.981
                            66 H    0.973
    33   6 C    3.981 --    31 C    1.009    70 H    0.983    71 H    0.980
                            69 H    0.976
    34   1 H    0.997 --     5 C    0.959
    35   1 H    0.994 --     8 C    0.974
    36   1 H    0.993 --     8 C    0.977
    37   1 H    0.994 --     8 C    0.974
    38   1 H    0.992 --     9 C    0.963
    39   1 H    0.987 --    11 C    0.939
    40   1 H    0.988 --    11 C    0.939
    41   1 H    0.995 --    12 C    0.968
    42   1 H    0.998 --    13 C    0.962
    43   1 H    0.995 --    14 C    0.968
    44   1 H    0.996 --    14 C    0.972
    45   1 H    0.995 --    15 C    0.961
    46   1 H    0.971 --    15 C    0.927
    47   1 H    0.985 --     2 C    0.899
    48   1 H    0.995 --    16 C    0.957
    49   1 H    0.991 --    18 C    0.964
    50   1 H    0.994 --    18 C    0.968
    51   1 H    0.995 --    19 C    0.971
    52   1 H    0.996 --    19 C    0.972
    53   1 H    0.997 --    21 C    0.968
    54   1 H    0.995 --    22 C    0.963
    55   1 H    0.991 --    25 C    0.972
    56   1 H    0.991 --    25 C    0.972
    57   1 H    0.992 --    25 C    0.977
    58   1 H    0.992 --    28 C    0.977
    59   1 H    0.993 --    28 C    0.973
    60   1 H    0.992 --    28 C    0.973
    61   1 H    0.996 --    29 C    0.962
    62   1 H    0.985 --    30 C    0.966
    63   1 H    0.986 --    30 C    0.958
    64   1 H    0.993 --    30 C    0.977
    65   1 H    0.992 --    31 C    0.959
    66   1 H    0.990 --    32 C    0.973
    67   1 H    0.996 --    32 C    0.981
    68   1 H    0.994 --    32 C    0.981
    69   1 H    0.993 --    33 C    0.976
    70   1 H    0.997 --    33 C    0.983
    71   1 H    0.994 --    33 C    0.980
    72   1 H    0.969 --     1 N    0.941
 ---------------------------------------------------------------------------

molecular dipole:
                 x           y           z       tot (Debye)
 q only:        0.780      -0.133      -0.895
   full:        0.959      -0.374      -1.109       3.847

           -------------------------------------------------
          | TOTAL ENERGY              -99.357547097130 Eh   |
          | GRADIENT NORM               0.001576766880 Eh/α |
          | HOMO-LUMO GAP               1.673227235962 eV   |
           -------------------------------------------------

 * finished run on 2024/04/06 at 11:13:02.038
