   * xtb version 6.6.1 (8d0f1dd) compiled by 'conda@1efc2f54142f' on 2023-08-01
          program call               : xtb struc.xyz --opt loose --input .xc1 --gfn2

   ID    Z sym.   atoms
    1    6 C      1, 3, 5-7, 10, 11, 14
    2    7 N      2, 4, 9, 13
    3    8 O      8, 12
    4    1 H      15-25
constraining bond 9 13 to    4.8400000 Å, actual value:    2.3869999 Å

          :  Hamiltonian                  GFN2-xTB          :
 * total energy  :   -31.5039378 Eh     change       -0.6650680E-10 Eh
 * total energy  :   -35.4563169 Eh     change       -0.3952379E+01 Eh
 * total energy  :   -38.4044006 Eh     change       -0.2948084E+01 Eh
 * total energy  :   -40.2049734 Eh     change       -0.1800573E+01 Eh
 * total energy  :   -41.2803400 Eh     change       -0.1075367E+01 Eh
 * total energy  :   -41.5875544 Eh     change       -0.3072143E+00 Eh
 * total energy  :   -41.6343597 Eh     change       -0.4680534E-01 Eh
 * total energy  :   -41.6925489 Eh     change       -0.5818921E-01 Eh
 * total energy  :   -41.7433630 Eh     change       -0.5081409E-01 Eh
 * total energy  :   -41.7704958 Eh     change       -0.2713279E-01 Eh
 * total energy  :   -42.0990835 Eh     change       -0.1085383E-03 Eh
 * total energy  :   -42.0991494 Eh     change       -0.6590377E-04 Eh
 * total energy  :   -42.0992231 Eh     change       -0.7364408E-04 Eh
 * total energy  :   -42.0992781 Eh     change       -0.5508707E-04 Eh
 * total energy  :   -42.0993572 Eh     change       -0.7901175E-04 Eh
 * total energy  :   -42.0994309 Eh     change       -0.7374475E-04 Eh
 * total energy  :   -42.0994574 Eh     change       -0.2653382E-04 Eh
 * total energy  :   -42.0994813 Eh     change       -0.2389662E-04 Eh
 * total energy  :   -42.0994943 Eh     change       -0.1300941E-04 Eh
   *** GEOMETRY OPTIMIZATION CONVERGED AFTER 102 ITERATIONS ***

 final structure:
================
25
 xtb: 6.6.1 (8d0f1dd)
C            2.06191407891571        1.52949560657794       -0.32080591560469
N            1.67014902772729        0.14191901245002       -0.29895327384251
C            2.49025755061121       -0.82497302532433       -0.67459964349458
N            1.92627683885363       -2.00798452006154       -0.46402563530811
C            0.66123481793913       -1.86579625344305        0.11927326778598
C            0.48889496493266       -0.40736667565293        0.19633790147943
C           -0.58598480796799        0.35737293788333        0.77611991922888
O           -1.43884055545700       -0.13347830287283        1.49297030790686
N           -0.64332477763636        1.80250596260559        0.54167124964626
C           -1.13588683116579        2.24307081571702       -0.75556662828704
C           -2.54131123797935        1.94675346320113       -0.90044948303467
O           -3.59272777143738        1.57509865842748       -0.59659768081633
N            0.06392625766706       -2.97386638777046        0.38396004349157
C           -1.20316095257334       -3.16540696055462        0.97346588315863
H            1.57261561107440        2.06666701488736        0.48805471263953
H            3.14144923374493        1.59573141650279       -0.19680221312844
H            1.79751344116838        1.99593513185818       -1.27106653618342
H            3.47301759786285       -0.66942665288965       -1.07772625829632
H           -1.19063218272954        2.20163226792894        1.30163008589648
H           -0.57903338218317        1.74857898023966       -1.55983379152601
H           -0.98422187506343        3.32680689476798       -0.85006382070567
H           -1.10866587353661       -3.96920096342285        1.70675849390095
H           -1.90180761299034       -3.51018628974458        0.20546448159826
H           -1.60755233629271       -2.26783580494576        1.45139315004477
H            2.32633229061503       -2.91780778476559       -0.63943699864786

          :  Hamiltonian                  GFN2-xTB          :
         :: total energy             -42.099494343506 Eh    ::
         :: gradient norm              0.001557981370 Eh/a0 ::
         :: HOMO-LUMO gap              1.220102062388 eV    ::
         :: SCC energy               -42.621824158705 Eh    ::
         :: -> dispersion             -0.021594463227 Eh    ::
         :: repulsion energy           0.521957893224 Eh    ::

    * Orbital Energies and Occupations

         #    Occupation            Energy/Eh            Energy/eV
      -------------------------------------------------------------
         1        2.0000           -0.9280958             -25.2548
       ...           ...                  ...                  ...
        25        2.0000           -0.6652305             -18.1018
        26        2.0000           -0.6532032             -17.7746
        27        2.0000           -0.6420816             -17.4719
        28        2.0000           -0.6406344             -17.4325
        29        1.9999           -0.6323137             -17.2061
        30        1.9999           -0.6294894             -17.1293
        31        1.9995           -0.6030825             -16.4107
        32        1.9993           -0.5979641             -16.2714
        33        1.9965           -0.5730884             -15.5945
        34        1.9960           -0.5709898             -15.5374
        35        1.9781           -0.5440819             -14.8052
        36        1.8037           -0.5078835             -13.8202
        37        1.6276           -0.4961140             -13.4999 (HOMO)
        38        0.4095           -0.4512761             -12.2798 (LUMO)
        39        0.1456           -0.4324742             -11.7682
        40        0.0423           -0.4120467             -11.2124
        41        0.0022           -0.3649539              -9.9309
        42        0.0000           -0.2983070              -8.1173
        43                         -0.1758271              -4.7845
        44                         -0.1663245              -4.5259
        45                         -0.1211396              -3.2964
        46                         -0.0726233              -1.9762
        47                         -0.0646704              -1.7598
        48                         -0.0621369              -1.6908
       ...                                ...                  ...
        67                          0.7310805              19.8937
      -------------------------------------------------------------
                  HL-Gap            0.0448379 Eh            1.2201 eV

     #   Z          covCN         q      C6AA      α(0)
     1   6 C        3.696    -0.092    22.430     6.775
     2   7 N        2.816     0.051    20.343     6.699
     3   6 C        2.968     0.068    26.475     8.440
     4   7 N        2.802    -0.071    22.609     7.062
     5   6 C        2.931     0.140    24.940     8.190
     6   6 C        3.033    -0.039    28.927     8.822
     7   6 C        2.747     0.260    22.616     7.787
     8   8 O        0.858    -0.386    21.399     6.202
     9   7 N        2.683    -0.237    26.208     7.603
    10   6 C        3.738     0.000    20.654     6.485
    11   6 C        1.842     0.226    25.872     8.217
    12   8 O        0.856    -0.070    16.076     5.376
    13   7 N        1.838    -0.194    26.031     7.561
    14   6 C        3.693    -0.045    21.571     6.646
    15   1 H        0.925     0.113     1.669     2.020
    16   1 H        0.925     0.098     1.805     2.101
    17   1 H        0.924     0.088     1.896     2.153
    18   1 H        0.926     0.109     1.708     2.044
    19   1 H        0.860     0.201     1.101     1.644
    20   1 H        0.924     0.124     1.580     1.966
    21   1 H        0.923     0.140     1.460     1.889
    22   1 H        0.924     0.097     1.810     2.104
    23   1 H        0.924     0.091     1.865     2.136
    24   1 H        0.924     0.095     1.828     2.114
    25   1 H        0.860     0.230     0.965     1.539

Wiberg/Mayer (AO) data.
largest (>0.10) Wiberg bond orders for each atom

     #   Z sym  total        # sym  WBO       # sym  WBO       # sym  WBO
 ---------------------------------------------------------------------------
     1   6 C    3.934 --     2 N    0.989    16 H    0.972    17 H    0.963
                            15 H    0.961
     2   7 N    3.659 --     3 C    1.382     6 C    1.125     1 C    0.989
                             4 N    0.104
     3   6 C    3.882 --     2 N    1.382     4 N    1.341    18 H    0.952
     4   7 N    3.554 --     3 C    1.341     5 C    1.082    25 H    0.918
                             2 N    0.104
     5   6 C    3.936 --    13 N    1.569     6 C    1.137     4 N    1.082
     6   6 C    3.737 --     7 C    1.164     5 C    1.137     2 N    1.125
     7   6 C    3.915 --     8 O    1.679     6 C    1.164     9 N    0.981
     8   8 O    1.971 --     7 C    1.679
     9   7 N    3.151 --     7 C    0.981    10 C    0.978    19 H    0.932
    10   6 C    3.951 --    11 C    1.072     9 N    0.978    20 H    0.919
                            21 H    0.910
    11   6 C    3.346 --    12 O    2.164    10 C    1.072
    12   8 O    2.301 --    11 C    2.164
    13   7 N    2.836 --     5 C    1.569    14 C    1.067
    14   6 C    3.902 --    13 N    1.067    22 H    0.939    23 H    0.928
                            24 H    0.927
    15   1 H    0.986 --     1 C    0.961
    16   1 H    0.989 --     1 C    0.972
    17   1 H    0.989 --     1 C    0.963
    18   1 H    0.986 --     3 C    0.952
    19   1 H    0.959 --     9 N    0.932
    20   1 H    0.973 --    10 C    0.919
    21   1 H    0.968 --    10 C    0.910
    22   1 H    0.961 --    14 C    0.939
    23   1 H    0.957 --    14 C    0.928
    24   1 H    0.948 --    14 C    0.927
    25   1 H    0.946 --     4 N    0.918
 ---------------------------------------------------------------------------

molecular dipole:
                 x           y           z       tot (Debye)
 q only:        1.796       0.944      -1.590
   full:        1.837       1.168      -1.706       7.031

           -------------------------------------------------
          | TOTAL ENERGY              -42.099494343506 Eh   |
          | GRADIENT NORM               0.001557981370 Eh/α |
          | HOMO-LUMO GAP               1.220102062388 eV   |
           -------------------------------------------------

 * finished run on 2024/06/05 at 20:00:14.684
