   * xtb version 6.6.1 (8d0f1dd) compiled by 'conda@1efc2f54142f' on 2023-08-01
          program call               : xtb struc.xyz --opt loose --input .xc1 --gfn2

   ID    Z sym.   atoms
    1    6 C      1, 3, 5-7, 10, 11, 14
    2    7 N      2, 4, 9, 13
    3    8 O      8, 12
    4    1 H      15-25
constraining bond 7 18 to    4.7133300 Å, actual value:    4.6162989 Å

          :  Hamiltonian                  GFN2-xTB          :
 * total energy  :   -42.2646694 Eh     change       -0.6650680E-10 Eh
 * total energy  :   -43.1838168 Eh     change       -0.9191475E+00 Eh
 * total energy  :   -45.1969295 Eh     change       -0.2013113E+01 Eh
 * total energy  :   -48.4427846 Eh     change       -0.3245855E+01 Eh
 * total energy  :   -53.5421623 Eh     change       -0.5099378E+01 Eh
 * total energy  :   -59.1491116 Eh     change       -0.5606949E+01 Eh
 * total energy  :   -63.0971730 Eh     change       -0.3948061E+01 Eh
 * total energy  :   -68.3490768 Eh     change       -0.5251904E+01 Eh
 * total energy  :   -58.5405988 Eh     change        0.9808478E+01 Eh
 * total energy  :   -70.7141814 Eh     change       -0.1217358E+02 Eh
 * total energy  :   -73.3340473 Eh     change       -0.9026232E-04 Eh
 * total energy  :   -73.3340959 Eh     change       -0.4859883E-04 Eh
 * total energy  :   -73.3341494 Eh     change       -0.5351333E-04 Eh
 * total energy  :   -73.3341805 Eh     change       -0.3107480E-04 Eh
 * total energy  :   -73.3342063 Eh     change       -0.2581576E-04 Eh
 * total energy  :   -73.3342228 Eh     change       -0.1645959E-04 Eh
 * total energy  :   -73.3342310 Eh     change       -0.8276241E-05 Eh
 * total energy  :   -73.3342331 Eh     change       -0.2114961E-05 Eh
 * total energy  :   -73.3342574 Eh     change       -0.2421199E-04 Eh
   *** GEOMETRY OPTIMIZATION CONVERGED AFTER 93 ITERATIONS ***

 final structure:
================
25
 xtb: 6.6.1 (8d0f1dd)
C            4.54690827130621        0.41351770535315        0.19780390472590
N            3.35109772125015       -0.21737062604495       -0.13041516504826
C            2.33135867971804       -0.75873682722064        0.10550752711912
N            1.18442211722560       -1.33742077395397        0.08198022100618
C           -0.05744115185785       -0.70200073257782        0.01276472823857
C           -0.37329772783888        0.64115201959857       -0.14516891966823
C            0.61163769287753        1.77576149265151       -0.29998705277687
O            0.09229280880060        2.91553997621636       -0.40345050247106
N           -1.74836556200526        0.71914751988978       -0.14011996318185
C           -2.55232016424549        1.90252698173523       -0.28553885390455
C           -2.29696012033252       -0.53357822867684        0.01485173508596
O           -3.45513106896523       -0.84409153807352        0.06167985229327
N           -1.21023339035634       -1.41764761672120        0.11404897201700
C           -1.37421975677734       -2.83827917799040        0.26290740438357
H            4.78988468924427        0.30964182514081        1.25679022811598
H            5.33987052798959       -0.01646958954467       -0.41593606338911
H            4.45552835498947        1.47210707919978       -0.05583382588209
H            0.98396932045067        1.68396884647355       -0.30427506548153
H           -2.33397530746486        2.61208149404557        0.51308827425614
H           -2.34304988154748        2.38967392437811       -1.23810744449598
H           -3.59632063910531        1.59791236258985       -0.24158084876452
H           -0.92174209564833       -3.19522053445328        1.19064040214543
H           -0.96120301800759       -3.37588331955444       -0.59411619610544
H           -2.44846895459394       -3.02490895727057        0.30464376847573
H            1.14619016898683       -2.35318476360460        0.16899450120625

          :  Hamiltonian                  GFN2-xTB          :
         :: total energy             -73.334257361045 Eh    ::
         :: gradient norm              0.002703511986 Eh/a0 ::
         :: HOMO-LUMO gap              1.944419081226 eV    ::
         :: SCC energy               -42.711892027173 Eh    ::
         :: -> dispersion             -0.020914651215 Eh    ::
         :: repulsion energy           2.851674090736 Eh    ::

    * Orbital Energies and Occupations

         #    Occupation            Energy/Eh            Energy/eV
      -------------------------------------------------------------
         1        2.0000           -0.8910608             -24.2470
       ...           ...                  ...                  ...
        25        2.0000           -0.6571040             -17.8807
        26        2.0000           -0.6558999             -17.8479
        27        1.9999           -0.6495032             -17.6739
        28        1.9999           -0.6366828             -17.3250
        29        1.9999           -0.6351788             -17.2841
        30        1.9998           -0.6307163             -17.1627
        31        1.9997           -0.6222609             -16.9326
        32        1.9988           -0.5994667             -16.3123
        33        1.9984           -0.5949615             -16.1897
        34        1.9934           -0.5721500             -15.5690
        35        1.9879           -0.5626074             -15.3093
        36        1.9296           -0.5342074             -14.5365
        37        1.7919           -0.5158786             -14.0378 (HOMO)
        38        0.1726           -0.4444225             -12.0934 (LUMO)
        39        0.1174           -0.4378510             -11.9145
        40        0.0105           -0.3987848             -10.8515
        41        0.0001           -0.3274672              -8.9108
        42        0.0001           -0.3165519              -8.6138
        43        0.0000           -0.2344407              -6.3795
        44                         -0.1710348              -4.6541
        45                         -0.1329874              -3.6188
        46                         -0.1039844              -2.8296
        47                         -0.0467330              -1.2717
        48                         -0.0308040              -0.8382
       ...                                ...                  ...
        67                         13.8315177             376.3748
      -------------------------------------------------------------
                  HL-Gap            0.0714561 Eh            1.9444 eV

     #   Z          covCN         q      C6AA      α(0)
     1   6 C        3.686    -0.064    21.944     6.706
     2   7 N        1.821     0.011    21.748     6.910
     3   6 C        1.843     0.145    27.634     8.492
     4   7 N        2.683    -0.040    22.029     6.971
     5   6 C        2.982     0.079    26.240     8.403
     6   6 C        3.019    -0.014    28.337     8.732
     7   6 C        2.763     0.105    25.666     8.297
     8   8 O        0.870    -0.334    20.408     6.057
     9   7 N        2.828    -0.026    21.740     6.925
    10   6 C        3.691    -0.065    21.943     6.703
    11   6 C        2.862     0.305    21.834     7.659
    12   8 O        0.857    -0.372    21.125     6.162
    13   7 N        2.815    -0.062    22.432     7.034
    14   6 C        3.688    -0.067    21.990     6.712
    15   1 H        0.924     0.116     1.644     2.005
    16   1 H        0.924     0.134     1.502     1.917
    17   1 H        0.924     0.136     1.489     1.908
    18   1 H        0.957     0.166     1.287     1.773
    19   1 H        0.924     0.106     1.730     2.057
    20   1 H        0.925     0.105     1.738     2.062
    21   1 H        0.925     0.108     1.716     2.049
    22   1 H        0.924     0.077     2.008     2.216
    23   1 H        0.924     0.078     2.001     2.212
    24   1 H        0.924     0.124     1.582     1.967
    25   1 H        0.860     0.250     0.882     1.471

Wiberg/Mayer (AO) data.
largest (>0.10) Wiberg bond orders for each atom

     #   Z sym  total        # sym  WBO       # sym  WBO       # sym  WBO
 ---------------------------------------------------------------------------
     1   6 C    3.917 --     2 N    1.037    15 H    0.945    16 H    0.939
                            17 H    0.928
     2   7 N    3.495 --     3 C    2.217     1 C    1.037     4 N    0.157
     3   6 C    3.795 --     2 N    2.217     4 N    1.376
     4   7 N    3.553 --     3 C    1.376     5 C    1.038    25 H    0.874
                             2 N    0.157
     5   6 C    3.823 --     6 C    1.365    13 N    1.198     4 N    1.038
     6   6 C    3.858 --     5 C    1.365     9 N    1.161     7 C    1.067
     7   6 C    3.836 --     8 O    1.748     6 C    1.067    18 H    0.952
     8   8 O    1.925 --     7 C    1.748
     9   7 N    3.535 --     6 C    1.161    11 C    1.128    10 C    0.990
                            12 O    0.135
    10   6 C    3.911 --     9 N    0.990    21 H    0.968    20 H    0.955
                            19 H    0.955
    11   6 C    3.945 --    12 O    1.664     9 N    1.128    13 N    1.047
    12   8 O    1.980 --    11 C    1.664     9 N    0.135    13 N    0.123
    13   7 N    3.529 --     5 C    1.198    11 C    1.047    14 C    0.991
                            12 O    0.123
    14   6 C    3.934 --    13 N    0.991    22 H    0.968    23 H    0.967
                            24 H    0.963
    15   1 H    0.978 --     1 C    0.945
    16   1 H    0.976 --     1 C    0.939
    17   1 H    0.974 --     1 C    0.928
    18   1 H    0.968 --     7 C    0.952
    19   1 H    0.975 --    10 C    0.955
    20   1 H    0.975 --    10 C    0.955
    21   1 H    0.985 --    10 C    0.968
    22   1 H    0.988 --    14 C    0.968
    23   1 H    0.988 --    14 C    0.967
    24   1 H    0.983 --    14 C    0.963
    25   1 H    0.929 --     4 N    0.874
 ---------------------------------------------------------------------------

molecular dipole:
                 x           y           z       tot (Debye)
 q only:        3.834      -1.720       0.264
   full:        4.061      -2.086       0.379      11.643

           -------------------------------------------------
          | TOTAL ENERGY              -73.334257361045 Eh   |
          | GRADIENT NORM               0.002703511986 Eh/α |
          | HOMO-LUMO GAP               1.944419081226 eV   |
           -------------------------------------------------

 * finished run on 2024/06/05 at 19:58:13.090
