   * xtb version 6.6.1 (8d0f1dd) compiled by 'conda@1efc2f54142f' on 2023-08-01
          program call               : xtb xtbopt.xyz --opt crude --input .xc2 --gfn2

   ID    Z sym.   atoms
    1    6 C      1, 3, 5-7, 10, 11, 14
    2    7 N      2, 4, 9, 13
    3    8 O      8, 12
    4    1 H      15-25
########################################################################
[WARNING] Please study the warnings concerning your input carefully
-1- readin_getIntValue: could not parse ''
########################################################################

          :  Hamiltonian                  GFN2-xTB          :
 * total energy  :   -39.8601819 Eh     change       -0.2060574E-12 Eh
 * total energy  :   -42.1130773 Eh     change       -0.2252895E+01 Eh
 * total energy  :   -42.1384303 Eh     change       -0.2535296E-01 Eh
 * total energy  :   -42.1438811 Eh     change       -0.5450863E-02 Eh
 * total energy  :   -42.1470872 Eh     change       -0.3206090E-02 Eh
 * total energy  :   -42.1477626 Eh     change       -0.6753813E-03 Eh
 * total energy  :   -42.1487880 Eh     change       -0.1025453E-02 Eh
 * total energy  :   -42.1496924 Eh     change       -0.9043284E-03 Eh
 * total energy  :   -42.1503668 Eh     change       -0.6744083E-03 Eh
 * total energy  :   -42.1507310 Eh     change       -0.3642041E-03 Eh
   *** GEOMETRY OPTIMIZATION CONVERGED AFTER 10 ITERATIONS ***

 final structure:
================
25
 xtb: 6.6.1 (8d0f1dd)
C            4.60004912657338        0.34267997229004        0.19745187454650
N            3.41952537913597       -0.32691588366794       -0.11246162818326
C            2.31663390301668       -0.68069783430812        0.11161923170668
N            1.17191247971698       -1.26562784537808        0.08176370264728
C           -0.07942502547859       -0.65260830321059        0.00575240115819
C           -0.42841345270579        0.68177719802819       -0.14989154264725
C            0.40973389279054        1.84870959528742       -0.29020243725012
O            0.01369228721503        2.98186225653930       -0.39889872857714
N           -1.80599884831799        0.73067079603647       -0.15213420965639
C           -2.64990006871734        1.88802284460810       -0.28300882876190
C           -2.32447367781622       -0.53412367577955       -0.00598405379025
O           -3.47452954743683       -0.87558648432402        0.03602376270081
N           -1.21579032118659       -1.39426568297024        0.09416052516615
C           -1.34213948735370       -2.81680036539578        0.26339076891195
H            4.85067673156719        0.25907381539558        1.25575298578826
H            5.39850893539058       -0.08332858924214       -0.41068696260116
H            4.48860666317536        1.39570663798416       -0.07153390867113
H            1.48895845902064        1.60511446382089       -0.29449414373533
H           -2.45519692359282        2.59799486587943        0.52153232765066
H           -2.46905887993622        2.39016612130907       -1.23392962083600
H           -3.68119197473371        1.54106725663329       -0.23408673095687
H           -0.88948351147354       -3.14489532256666        1.20085423250839
H           -0.90631410483347       -3.35549399259016       -0.58020359419095
H           -2.40999014722660       -3.03320457770976        0.29890661089247
H            1.13403962729918       -2.28105872508374        0.18147958407988

          :  Hamiltonian                  GFN2-xTB          :
         :: total energy             -42.150730980605 Eh    ::
         :: gradient norm              0.007217468248 Eh/a0 ::
         :: HOMO-LUMO gap              2.027178170598 eV    ::
         :: SCC energy               -42.722532581991 Eh    ::
         :: -> dispersion             -0.020936253904 Eh    ::
         :: repulsion energy           0.571772668998 Eh    ::

    * Orbital Energies and Occupations

         #    Occupation            Energy/Eh            Energy/eV
      -------------------------------------------------------------
         1        2.0000           -0.8904418             -24.2302
       ...           ...                  ...                  ...
        25        2.0000           -0.6598522             -17.9555
        26        2.0000           -0.6569680             -17.8770
        27        2.0000           -0.6519180             -17.7396
        28        1.9999           -0.6374986             -17.3472
        29        1.9999           -0.6342016             -17.2575
        30        1.9998           -0.6320192             -17.1981
        31        1.9997           -0.6237581             -16.9733
        32        1.9988           -0.6002909             -16.3347
        33        1.9986           -0.5973110             -16.2537
        34        1.9940           -0.5743869             -15.6299
        35        1.9880           -0.5632935             -15.3280
        36        1.9512           -0.5407751             -14.7152
        37        1.8044           -0.5175658             -14.0837 (HOMO)
        38        0.1541           -0.4430683             -12.0565 (LUMO)
        39        0.1054           -0.4366373             -11.8815
        40        0.0062           -0.3909715             -10.6389
        41        0.0001           -0.3280174              -8.9258
        42        0.0000           -0.3023447              -8.2272
        43        0.0000           -0.2346913              -6.3863
        44                         -0.1737438              -4.7278
        45                         -0.1291019              -3.5130
        46                         -0.0983811              -2.6771
        47                         -0.0511508              -1.3919
        48                         -0.0315121              -0.8575
       ...                                ...                  ...
        67                          0.9529288              25.9305
      -------------------------------------------------------------
                  HL-Gap            0.0744974 Eh            2.0272 eV

     #   Z          covCN         q      C6AA      α(0)
     1   6 C        3.686    -0.062    21.897     6.699
     2   7 N        1.821     0.007    21.815     6.921
     3   6 C        1.842     0.147    27.572     8.483
     4   7 N        2.683    -0.041    22.046     6.973
     5   6 C        2.976     0.085    26.091     8.379
     6   6 C        3.012    -0.002    28.062     8.690
     7   6 C        2.760     0.195    23.833     7.995
     8   8 O        0.857    -0.290    19.604     5.936
     9   7 N        2.826    -0.027    21.768     6.929
    10   6 C        3.691    -0.065    21.943     6.703
    11   6 C        2.862     0.305    21.838     7.660
    12   8 O        0.857    -0.373    21.147     6.166
    13   7 N        2.817    -0.061    22.417     7.032
    14   6 C        3.688    -0.068    22.002     6.714
    15   1 H        0.924     0.117     1.640     2.003
    16   1 H        0.924     0.134     1.505     1.919
    17   1 H        0.924     0.132     1.521     1.929
    18   1 H        0.922     0.018     2.757     2.597
    19   1 H        0.924     0.104     1.750     2.069
    20   1 H        0.924     0.103     1.755     2.072
    21   1 H        0.925     0.110     1.699     2.038
    22   1 H        0.924     0.078     2.003     2.213
    23   1 H        0.924     0.079     1.992     2.207
    24   1 H        0.925     0.125     1.573     1.961
    25   1 H        0.860     0.250     0.883     1.472

Wiberg/Mayer (AO) data.
largest (>0.10) Wiberg bond orders for each atom

     #   Z sym  total        # sym  WBO       # sym  WBO       # sym  WBO
 ---------------------------------------------------------------------------
     1   6 C    3.917 --     2 N    1.035    15 H    0.945    16 H    0.942
                            17 H    0.927
     2   7 N    3.482 --     3 C    2.207     1 C    1.035     4 N    0.155
     3   6 C    3.786 --     2 N    2.207     4 N    1.370
     4   7 N    3.551 --     3 C    1.370     5 C    1.046    25 H    0.870
                             2 N    0.155
     5   6 C    3.842 --     6 C    1.364    13 N    1.204     4 N    1.046
     6   6 C    3.877 --     5 C    1.364     9 N    1.147     7 C    1.112
     7   6 C    3.906 --     8 O    1.814     6 C    1.112    18 H    0.913
     8   8 O    2.027 --     7 C    1.814
     9   7 N    3.528 --     6 C    1.147    11 C    1.135    10 C    0.990
                            12 O    0.138
    10   6 C    3.913 --     9 N    0.990    21 H    0.968    19 H    0.956
                            20 H    0.956
    11   6 C    3.947 --    12 O    1.664     9 N    1.135    13 N    1.043
    12   8 O    1.983 --    11 C    1.664     9 N    0.138    13 N    0.124
    13   7 N    3.535 --     5 C    1.204    11 C    1.043    14 C    0.991
                            12 O    0.124
    14   6 C    3.934 --    13 N    0.991    22 H    0.967    23 H    0.967
                            24 H    0.963
    15   1 H    0.979 --     1 C    0.945
    16   1 H    0.976 --     1 C    0.942
    17   1 H    0.974 --     1 C    0.927
    18   1 H    0.986 --     7 C    0.913
    19   1 H    0.977 --    10 C    0.956
    20   1 H    0.976 --    10 C    0.956
    21   1 H    0.985 --    10 C    0.968
    22   1 H    0.988 --    14 C    0.967
    23   1 H    0.988 --    14 C    0.967
    24   1 H    0.983 --    14 C    0.963
    25   1 H    0.926 --     4 N    0.870
 ---------------------------------------------------------------------------

molecular dipole:
                 x           y           z       tot (Debye)
 q only:        3.615      -1.655       0.287
   full:        3.919      -1.996       0.405      11.225

           -------------------------------------------------
          | TOTAL ENERGY              -42.150730980605 Eh   |
          | GRADIENT NORM               0.007217468248 Eh/α |
          | HOMO-LUMO GAP               2.027178170598 eV   |
           -------------------------------------------------

 * finished run on 2024/06/05 at 19:58:13.497
