   * xtb version 6.6.1 (8d0f1dd) compiled by 'conda@1efc2f54142f' on 2023-08-01
          program call               : xtb struc.xyz --opt loose --input .xc1 --gfn2

   ID    Z sym.   atoms
    1    7 N      1, 17
    2    6 C      2-6, 8, 9, 11-16, 18-23, 25, 26, 28-33
    3    8 O      7, 10, 24, 27
    4    1 H      34-72
constraining bond 23 61 to    3.7133300 Å, actual value:    3.4015202 Å

          :  Hamiltonian                  GFN2-xTB          :
 * total energy  :   -99.4214908 Eh     change       -0.4035485E-08 Eh
 * total energy  :   -99.4518833 Eh     change       -0.3039253E-01 Eh
 * total energy  :   -99.4791620 Eh     change       -0.2727868E-01 Eh
 * total energy  :   -99.5051319 Eh     change       -0.2596989E-01 Eh
 * total energy  :   -99.5481563 Eh     change       -0.4302439E-01 Eh
 * total energy  :   -99.5869476 Eh     change       -0.3879131E-01 Eh
 * total energy  :   -99.7255796 Eh     change       -0.1386320E+00 Eh
 * total energy  :   -99.9243125 Eh     change       -0.1987328E+00 Eh
 * total energy  :  -100.1597234 Eh     change       -0.2354110E+00 Eh
 * total energy  :   -99.2569633 Eh     change        0.9027601E+00 Eh
 * total energy  :  -100.8027579 Eh     change       -0.1597597E-03 Eh
 * total energy  :  -100.8028540 Eh     change       -0.9614193E-04 Eh
 * total energy  :  -100.8029341 Eh     change       -0.8001743E-04 Eh
 * total energy  :  -100.8030259 Eh     change       -0.9186477E-04 Eh
 * total energy  :  -100.8031146 Eh     change       -0.8872628E-04 Eh
 * total energy  :  -100.8031666 Eh     change       -0.5192163E-04 Eh
 * total energy  :  -100.8032286 Eh     change       -0.6206363E-04 Eh
 * total energy  :  -100.8032981 Eh     change       -0.6948725E-04 Eh
 * total energy  :  -100.8033342 Eh     change       -0.3611416E-04 Eh
   *** GEOMETRY OPTIMIZATION CONVERGED AFTER 157 ITERATIONS ***

 final structure:
================
72
 xtb: 6.6.1 (8d0f1dd)
N           -1.58985758482048        3.19303913828282        2.10738428958051
C           -1.55126054431868        2.46697074837607        1.09121856929235
C           -2.74175010194217        2.14315480656831        0.22991599931817
C           -3.15841220256830        0.69648209752909        0.44746299660736
C           -4.06453918808751        0.09936509950572       -0.43165825585601
C           -4.47835834061901       -1.21127414443715       -0.26542540245197
O           -5.34208788302343       -1.86341673043832       -1.07137880570606
C           -5.94534692477013       -1.17123705441966       -2.13895326393973
C           -3.97483390078372       -1.97090328506923        0.82476860903559
O           -4.42540431087705       -3.23951266132801        0.90375877592837
C           -4.03249959222203       -4.03911998533755        1.99429331326473
C           -3.08596120509439       -1.36896357911913        1.70052361071375
C           -2.68217784105548       -0.05237265338323        1.51218977913958
C           -2.27794707218470        2.34900143300752       -1.23557620132358
C           -1.35337436789254        1.24250041204242       -1.78015729979436
C            0.04598165587743        1.33436979198080       -1.30600712175233
N            0.76406574323759        0.34342684517739       -0.80109241644421
C            2.19785522935954        0.45386375819516       -0.66774527060889
C            2.91948236673197       -0.56248542673058       -1.57714924317691
C            4.35728980396591       -0.21171058117558       -1.75259652448124
C            4.87302065656950        0.40231708810390       -2.86475782882170
C            6.27012750533291        0.55693361831674       -2.70096714434563
C            6.66484896478658        0.03257203759464       -1.49052463120304
O            4.14888921791185       -1.36269725377787        0.87539396889412
C            4.07124572329861       -2.01055430259561        2.13764948652522
C            5.36554078511698       -1.09103203328607        0.38067727608292
O            6.33564422761375       -1.48539992601821        1.20316478762808
C            7.70822646335796       -1.42131488132367        0.87269058640741
C            5.46167839450724       -0.47305339318236       -0.84752738067224
C            0.18141404627895       -0.92197676842964       -0.42462302430924
C           -3.97733846842169        3.04723441664152        0.52392263299625
C           -4.54678395775363        2.78825831002920        1.91687137830548
C           -3.68309249172848        4.53543760440651        0.35792409802415
H           -4.46078487828262        0.67358537619004       -1.25225122547847
H           -6.52014239834754       -0.30987284716152       -1.78577941496619
H           -6.61980673925779       -1.88625260395379       -2.60592484209133
H           -5.20446656591113       -0.84153545383690       -2.87495842565780
H           -4.33902469642649       -3.59664395173605        2.94670526973563
H           -4.54305175012495       -4.99036863982224        1.85751692232198
H           -2.95058568382098       -4.20675098328782        2.00014611116907
H           -2.70329485711238       -1.91446703039280        2.54772582471177
H           -2.00918840798720        0.39154937630303        2.22947221363556
H           -3.15747809307218        2.40071087654767       -1.87610672752466
H           -1.76331981748386        3.30779228899347       -1.31027633552147
H           -1.78606792082351        0.26459731429493       -1.57764628872317
H           -1.32146943702450        1.37551638432200       -2.86910374080825
H           -0.62200823637603        2.01543963220053        0.69587616639422
H            0.57624502856066        2.25186424404434       -1.51688636642421
H            2.48686463635727        0.27478180765623        0.37047199000219
H            2.50700081119343        1.46148938962667       -0.94905434272027
H            2.44266929080935       -0.54270018817309       -2.56007971970033
H            2.82326303736185       -1.56497810943363       -1.15990425207108
H            4.31470764550427        0.70671998028899       -3.73044051726962
H            6.92530839677310        1.01551260061508       -3.41857331610159
H            4.52776803090260       -1.39961345608990        2.92056393820123
H            4.56203918418576       -2.98396650359244        2.10912634642120
H            3.00763205597604       -2.13773733496798        2.33714709234975
H            8.21280957868622       -1.99742967875841        1.64645377510214
H            7.90292209820690       -1.86685604583276       -0.10362953822251
H            8.06724137561651       -0.39127562338982        0.89724823624121
H            7.39270564463375        0.03021595138871       -1.20439231644415
H            0.00497460436085       -1.55442437254633       -1.29825159725729
H           -0.76612932733654       -0.76838151370019        0.09600446363955
H            0.86727423321102       -1.43881063949855        0.24300223914229
H           -4.74362609790246        2.76846599704834       -0.20879202383474
H           -3.81288564247518        3.04796703691856        2.67276948470839
H           -4.82836816570623        1.74536919142554        2.04003069566148
H           -5.43168204032259        3.40110307367092        2.06691863229104
H           -2.91735738192481        4.84932898497257        1.06073590811915
H           -3.36370088318449        4.77728507163263       -0.65234533361832
H           -4.58660135355571        5.10261990772253        0.56577940489131
H           -0.71815448673155        3.36638746710052        2.59829610939841

          :  Hamiltonian                  GFN2-xTB          :
         :: total energy            -100.803334237819 Eh    ::
         :: gradient norm              0.002949876114 Eh/a0 ::
         :: HOMO-LUMO gap              1.652758336335 eV    ::
         :: SCC energy              -100.781501218982 Eh    ::
         :: -> dispersion             -0.076541899698 Eh    ::
         :: repulsion energy           1.510818193659 Eh    ::

    * Orbital Energies and Occupations

         #    Occupation            Energy/Eh            Energy/eV
      -------------------------------------------------------------
         1        2.0000           -0.8538711             -23.2350
       ...           ...                  ...                  ...
        78        1.9986           -0.5300141             -14.4224
        79        1.9984           -0.5271025             -14.3432
        80        1.9983           -0.5262102             -14.3189
        81        1.9976           -0.5208577             -14.1733
        82        1.9975           -0.5200698             -14.1518
        83        1.9960           -0.5130527             -13.9609
        84        1.9953           -0.5102379             -13.8843
        85        1.9944           -0.5076586             -13.8141
        86        1.9819           -0.4888965             -13.3036
        87        1.9396           -0.4694600             -12.7747
        88        1.9385           -0.4691505             -12.7662
        89        1.8792           -0.4579755             -12.4621
        90        1.8307           -0.4522193             -12.3055 (HOMO)
        91        0.3784           -0.3914815             -10.6528 (LUMO)
        92        0.0612           -0.3598050              -9.7908
        93        0.0150           -0.3371546              -9.1744
        94        0.0037           -0.3149778              -8.5710
        95        0.0031           -0.3120494              -8.4913
        96        0.0000           -0.2322524              -6.3199
        97        0.0000           -0.2212730              -6.0211
        98        0.0000           -0.1892747              -5.1504
        99                         -0.1305247              -3.5518
       100                         -0.1037840              -2.8241
       101                         -0.0879047              -2.3920
       ...                                ...                  ...
       171                          1.2976099              35.3098
      -------------------------------------------------------------
                  HL-Gap            0.0607378 Eh            1.6528 eV

     #   Z          covCN         q      C6AA      α(0)
     1   7 N        1.774    -0.271    27.851     7.815
     2   6 C        2.826     0.102    25.740     8.313
     3   6 C        3.907     0.006    20.415     6.422
     4   6 C        2.974     0.002    27.967     8.675
     5   6 C        2.921    -0.081    30.016     8.984
     6   6 C        2.862     0.129    25.168     8.223
     7   8 O        1.706    -0.231    17.827     5.701
     8   6 C        3.644     0.028    20.444     6.499
     9   6 C        2.864     0.128    25.190     8.227
    10   8 O        1.706    -0.230    17.809     5.698
    11   6 C        3.645     0.027    20.450     6.499
    12   6 C        2.914    -0.075    29.867     8.962
    13   6 C        2.921    -0.054    29.342     8.883
    14   6 C        3.812    -0.065    21.733     6.636
    15   6 C        3.802    -0.069    21.822     6.651
    16   6 C        2.842     0.008    27.835     8.646
    17   7 N        2.729     0.018    20.933     6.795
    18   6 C        3.756    -0.021    21.005     6.535
    19   6 C        3.804    -0.069    21.824     6.651
    20   6 C        3.056    -0.010    28.221     8.712
    21   6 C        3.021    -0.050    29.216     8.866
    22   6 C        3.037    -0.041    28.991     8.831
    23   6 C        2.991    -0.082    30.041     8.991
    24   8 O        1.705    -0.242    18.009     5.730
    25   6 C        3.647     0.024    20.496     6.505
    26   6 C        2.732     0.283    22.213     7.716
    27   8 O        1.704    -0.235    17.900     5.712
    28   6 C        3.637     0.019    20.626     6.534
    29   6 C        3.086    -0.063    29.452     8.896
    30   6 C        3.701    -0.072    22.050     6.715
    31   6 C        3.853    -0.007    20.665     6.466
    32   6 C        3.756    -0.119    22.838     6.814
    33   6 C        3.755    -0.118    22.810     6.810
    34   1 H        0.926     0.052     2.293     2.368
    35   1 H        0.924     0.054     2.276     2.359
    36   1 H        0.925     0.081     1.971     2.195
    37   1 H        0.924     0.047     2.364     2.404
    38   1 H        0.924     0.055     2.263     2.353
    39   1 H        0.925     0.081     1.973     2.196
    40   1 H        0.924     0.047     2.360     2.402
    41   1 H        0.926     0.051     2.307     2.375
    42   1 H        0.926     0.039     2.457     2.451
    43   1 H        0.925     0.059     2.206     2.322
    44   1 H        0.924     0.053     2.280     2.361
    45   1 H        0.925     0.065     2.138     2.287
    46   1 H        0.924     0.080     1.977     2.199
    47   1 H        0.922     0.003     3.012     2.714
    48   1 H        0.926     0.070     2.090     2.261
    49   1 H        0.924     0.075     2.033     2.230
    50   1 H        0.924     0.069     2.096     2.264
    51   1 H        0.924     0.054     2.272     2.357
    52   1 H        0.925     0.060     2.202     2.320
    53   1 H        0.926     0.035     2.522     2.484
    54   1 H        0.926     0.042     2.424     2.435
    55   1 H        0.924     0.071     2.076     2.253
    56   1 H        0.924     0.072     2.060     2.245
    57   1 H        0.925     0.072     2.066     2.248
    58   1 H        0.925     0.088     1.897     2.154
    59   1 H        0.924     0.071     2.072     2.251
    60   1 H        0.924     0.070     2.081     2.256
    61   1 H        0.930     0.082     1.954     2.186
    62   1 H        0.924     0.076     2.016     2.220
    63   1 H        0.924     0.080     1.975     2.198
    64   1 H        0.925     0.080     1.977     2.199
    65   1 H        0.924     0.037     2.494     2.470
    66   1 H        0.925     0.070     2.086     2.259
    67   1 H        0.925     0.036     2.509     2.477
    68   1 H        0.925     0.051     2.308     2.376
    69   1 H        0.925     0.059     2.208     2.323
    70   1 H        0.925     0.034     2.527     2.486
    71   1 H        0.925     0.054     2.271     2.357
    72   1 H        0.860     0.155     1.364     1.830

Wiberg/Mayer (AO) data.
largest (>0.10) Wiberg bond orders for each atom

     #   Z sym  total        # sym  WBO       # sym  WBO       # sym  WBO
 ---------------------------------------------------------------------------
     1   7 N    3.032 --     2 C    1.956    72 H    0.943
     2   6 C    3.932 --     1 N    1.956     3 C    0.995    47 H    0.910
     3   6 C    3.976 --     2 C    0.995     4 C    0.969    14 C    0.960
                            31 C    0.940
     4   6 C    3.951 --    13 C    1.414     5 C    1.367     3 C    0.969
     5   6 C    3.963 --     6 C    1.402     4 C    1.367    34 H    0.958
     6   6 C    3.907 --     5 C    1.402     9 C    1.223     7 O    1.098
     7   8 O    2.255 --     6 C    1.098     8 C    0.978
     8   6 C    3.933 --     7 O    0.978    36 H    0.977    37 H    0.974
                            35 H    0.974
     9   6 C    3.903 --    12 C    1.394     6 C    1.223    10 O    1.100
    10   8 O    2.252 --     9 C    1.100    11 C    0.978
    11   6 C    3.932 --    10 O    0.978    39 H    0.977    40 H    0.974
                            38 H    0.974
    12   6 C    3.963 --    13 C    1.401     9 C    1.394    41 H    0.964
    13   6 C    3.956 --     4 C    1.414    12 C    1.401    42 H    0.963
    14   6 C    3.971 --    15 C    0.978    44 H    0.972    43 H    0.969
                             3 C    0.960
    15   6 C    3.986 --    16 C    1.059    14 C    0.978    45 H    0.962
                            46 H    0.929
    16   6 C    3.605 --    17 N    1.421    15 C    1.059    48 H    0.957
    17   7 N    3.492 --    16 C    1.421    30 C    0.998    18 C    0.986
    18   6 C    3.947 --    17 N    0.986    50 H    0.969    19 C    0.962
                            49 H    0.957
    19   6 C    3.976 --    20 C    1.021    51 H    0.972    52 H    0.964
                            18 C    0.962
    20   6 C    3.861 --    21 C    1.536    29 C    1.141    19 C    1.021
    21   6 C    3.907 --    20 C    1.536    22 C    1.253    53 H    0.972
    22   6 C    3.903 --    23 C    1.560    21 C    1.253    54 H    0.972
    23   6 C    3.858 --    22 C    1.560    29 C    1.162    61 H    0.979
    24   8 O    2.281 --    26 C    1.114    25 C    0.957
    25   6 C    3.919 --    57 H    0.979    55 H    0.974    56 H    0.974
                            24 O    0.957
    26   6 C    3.840 --    29 C    1.396    27 O    1.139    24 O    1.114
    27   8 O    2.309 --    26 C    1.139    28 C    0.956
    28   6 C    3.912 --    58 H    0.976    59 H    0.973    60 H    0.972
                            27 O    0.956
    29   6 C    3.921 --    26 C    1.396    23 C    1.162    20 C    1.141
    30   6 C    3.957 --    17 N    0.998    64 H    0.976    62 H    0.964
                            63 H    0.960
    31   6 C    3.973 --    33 C    1.009    32 C    1.008    65 H    0.961
                             3 C    0.940
    32   6 C    3.979 --    31 C    1.008    67 H    0.982    68 H    0.981
                            66 H    0.974
    33   6 C    3.984 --    31 C    1.009    70 H    0.983    71 H    0.980
                            69 H    0.977
    34   1 H    0.996 --     5 C    0.958
    35   1 H    0.994 --     8 C    0.974
    36   1 H    0.993 --     8 C    0.977
    37   1 H    0.994 --     8 C    0.974
    38   1 H    0.993 --    11 C    0.974
    39   1 H    0.993 --    11 C    0.977
    40   1 H    0.994 --    11 C    0.974
    41   1 H    0.996 --    12 C    0.964
    42   1 H    0.998 --    13 C    0.963
    43   1 H    0.995 --    14 C    0.969
    44   1 H    0.996 --    14 C    0.972
    45   1 H    0.996 --    15 C    0.962
    46   1 H    0.971 --    15 C    0.929
    47   1 H    0.987 --     2 C    0.910
    48   1 H    0.995 --    16 C    0.957
    49   1 H    0.987 --    18 C    0.957
    50   1 H    0.995 --    18 C    0.969
    51   1 H    0.996 --    19 C    0.972
    52   1 H    0.993 --    19 C    0.964
    53   1 H    0.998 --    21 C    0.972
    54   1 H    0.996 --    22 C    0.972
    55   1 H    0.992 --    25 C    0.974
    56   1 H    0.992 --    25 C    0.974
    57   1 H    0.994 --    25 C    0.979
    58   1 H    0.992 --    28 C    0.976
    59   1 H    0.994 --    28 C    0.973
    60   1 H    0.993 --    28 C    0.972
    61   1 H    0.993 --    23 C    0.979
    62   1 H    0.984 --    30 C    0.964
    63   1 H    0.989 --    30 C    0.960
    64   1 H    0.992 --    30 C    0.976
    65   1 H    0.993 --    31 C    0.961
    66   1 H    0.991 --    32 C    0.974
    67   1 H    0.997 --    32 C    0.982
    68   1 H    0.994 --    32 C    0.981
    69   1 H    0.994 --    33 C    0.977
    70   1 H    0.997 --    33 C    0.983
    71   1 H    0.994 --    33 C    0.980
    72   1 H    0.971 --     1 N    0.943
 ---------------------------------------------------------------------------

molecular dipole:
                 x           y           z       tot (Debye)
 q only:        1.484      -0.542       0.061
   full:        1.985      -0.632      -0.033       5.296

           -------------------------------------------------
          | TOTAL ENERGY             -100.803334237819 Eh   |
          | GRADIENT NORM               0.002949876114 Eh/α |
          | HOMO-LUMO GAP               1.652758336335 eV   |
           -------------------------------------------------

 * finished run on 2024/04/06 at 11:17:27.038
