   * xtb version 6.6.1 (8d0f1dd) compiled by 'conda@1efc2f54142f' on 2023-08-01
          program call               : xtb xtbopt.xyz --opt crude --input .xc2 --gfn2

   ID    Z sym.   atoms
    1    7 N      1, 17
    2    6 C      2-6, 8, 9, 11-16, 18-23, 25, 26, 28-33
    3    8 O      7, 10, 24, 27
    4    1 H      34-72
########################################################################
[WARNING] Please study the warnings concerning your input carefully
-1- readin_getIntValue: could not parse ''
########################################################################

          :  Hamiltonian                  GFN2-xTB          :
 * total energy  :   -99.2691670 Eh     change       -0.4931167E-11 Eh
 * total energy  :   -99.3747905 Eh     change       -0.1056235E+00 Eh
 * total energy  :   -99.3762090 Eh     change       -0.1418539E-02 Eh
 * total energy  :   -99.3766801 Eh     change       -0.4710846E-03 Eh
 * total energy  :   -99.3767643 Eh     change       -0.8417097E-04 Eh
   *** GEOMETRY OPTIMIZATION CONVERGED AFTER 5 ITERATIONS ***

 final structure:
================
72
 xtb: 6.6.1 (8d0f1dd)
N           -1.58852583187013        3.19716430124525        2.10200625860500
C           -1.55142181914424        2.46773911730631        1.08820230212766
C           -2.74217106215172        2.14320184056213        0.22765959787508
C           -3.15840088522364        0.69665757845931        0.44665561292620
C           -4.06545413471102        0.09862341363627       -0.43083639445922
C           -4.47989292060957       -1.21153177910376       -0.26211990575201
O           -5.34547048438499       -1.86428908329085       -1.06558143747248
C           -5.94991910533800       -1.17327004555299       -2.13321219070687
C           -3.97538398520426       -1.96993210099828        0.82847760524121
O           -4.42672457916697       -3.23812907720668        0.90965117380118
C           -4.03302294151445       -4.03681249775672        2.00053394366630
C           -3.08521021062125       -1.36726253230553        1.70233992399437
C           -2.68134773226606       -0.05095015928842        1.51191956571394
C           -2.27871239214317        2.34808852996680       -1.23809503096605
C           -1.35310047385382        1.24182882219164       -1.78091181579077
C            0.04484630021183        1.33262097978558       -1.30279885105872
N            0.76090255603086        0.34040979808090       -0.79696296210076
C            2.19473654753840        0.44787418418409       -0.66442763948693
C            2.91393491826169       -0.56758885577457       -1.57771132797622
C            4.35056374522575       -0.21268531999583       -1.75887721507435
C            4.85062640693871        0.41197040426187       -2.87210363268978
C            6.25091732042279        0.58342552894149       -2.72396415844588
C            6.63572022859791        0.05497152181777       -1.52263749743036
O            4.14966937459592       -1.36277635917136        0.85734832208833
C            4.06414487540903       -2.01785330464104        2.11620167711622
C            5.36999157065671       -1.08663295637388        0.37138900896857
O            6.33055162976077       -1.47917004468608        1.20494313868729
C            7.70902951865426       -1.43810410027548        0.89555743688110
C            5.46455306876350       -0.46824403555737       -0.85727217676872
C            0.17610978163156       -0.92433318156117       -0.42302733636070
C           -3.97769961645512        3.04725403740861        0.52140889171598
C           -4.54593019691265        2.78934342492467        1.91499392057656
C           -3.68385381029206        4.53533651585952        0.35385206777188
H           -4.46213958407927        0.67189937127882       -1.25188567553844
H           -6.52494602514080       -0.31199327357610       -1.78016350084160
H           -6.62433173957860       -1.88896549799131       -2.59912738597515
H           -5.20987527439233       -0.84365651111895       -2.87000037013308
H           -4.33757160134754       -3.59294189296064        2.95290708887647
H           -4.54487388595482       -4.98760639699741        1.86562771083838
H           -2.95128647271609       -4.20566749031024        2.00494771290476
H           -2.70174317907233       -1.91186386195231        2.54977174848809
H           -2.00765454255546        0.39373484929448        2.22805014044938
H           -3.15813970323508        2.39817103051055       -1.87886494169132
H           -1.76489784470066        3.30720160005713       -1.31365090349332
H           -1.78691802338850        0.26401124891591       -1.58017573224323
H           -1.31800773236148        1.37549039870159       -2.86972924817197
H           -0.62272782170731        2.01463106520410        0.69333628959884
H            0.57627785933510        2.25010594379173       -1.51123324296995
H            2.48459500250328        0.26472746814422        0.37306168147107
H            2.50557331796249        1.45615063372284       -0.94248732575814
H            2.43321233693531       -0.54594641802703       -2.55855908134835
H            2.81878114592499       -1.57016212373114       -1.16167760093038
H            4.27915586275244        0.71445178571106       -3.73077236651070
H            6.89772768387056        1.05037310364229       -3.44160335327947
H            4.51633098091932       -1.41195100413817        2.90348115795376
H            4.55774697943627       -2.99059036959825        2.08862721509152
H            3.00123699853839       -2.14591242707799        2.30930352345580
H            8.19251741488259       -2.02035796530332        1.67956434154824
H            7.90952488895617       -1.88990853521005       -0.07705900230334
H            8.08458405801201       -0.41373261202418        0.92639256431534
H            7.63190856156943        0.06928906790027       -1.13974374617762
H           -0.00108203288558       -1.55489354547571       -1.29717803925183
H           -0.77119943291690       -0.76999289610616        0.09752109280310
H            0.86074355776291       -1.44318377158161        0.24380635292650
H           -4.74438129083320        2.76768481043709       -0.21054429031954
H           -3.81209901090749        3.05167437774795        2.67003453839219
H           -4.82528091635908        1.74611428877894        2.03992517910414
H           -5.43197964173248        3.40061651742080        2.06461078079261
H           -2.91728630344867        4.84978845988208        1.05542743209560
H           -3.36574861330104        4.77635917497883       -0.65696864442364
H           -4.58715721789509        5.10257103068081        0.56239047889468
H           -0.71612882275592        3.37147532378266        2.59130138870306

          :  Hamiltonian                  GFN2-xTB          :
         :: total energy             -99.376764271719 Eh    ::
         :: gradient norm              0.004840581453 Eh/a0 ::
         :: HOMO-LUMO gap              1.645153236805 eV    ::
         :: SCC energy              -100.751844899443 Eh    ::
         :: -> dispersion             -0.076542715328 Eh    ::
         :: repulsion energy           1.373557882228 Eh    ::

    * Orbital Energies and Occupations

         #    Occupation            Energy/Eh            Energy/eV
      -------------------------------------------------------------
         1        2.0000           -0.8540930             -23.2411
       ...           ...                  ...                  ...
        78        1.9986           -0.5295266             -14.4092
        79        1.9984           -0.5270999             -14.3431
        80        1.9983           -0.5262157             -14.3191
        81        1.9976           -0.5208426             -14.1728
        82        1.9973           -0.5191723             -14.1274
        83        1.9960           -0.5130534             -13.9609
        84        1.9953           -0.5102464             -13.8845
        85        1.9944           -0.5076738             -13.8145
        86        1.9820           -0.4889169             -13.3041
        87        1.9408           -0.4697707             -12.7831
        88        1.9386           -0.4691782             -12.7670
        89        1.8794           -0.4579906             -12.4626
        90        1.8282           -0.4519466             -12.2981 (HOMO)
        91        0.3789           -0.3914883             -10.6529 (LUMO)
        92        0.0615           -0.3598565              -9.7922
        93        0.0150           -0.3371554              -9.1745
        94        0.0037           -0.3149979              -8.5715
        95        0.0031           -0.3120820              -8.4922
        96        0.0000           -0.2323265              -6.3219
        97        0.0000           -0.2189087              -5.9568
        98        0.0000           -0.1893025              -5.1512
        99                         -0.1302699              -3.5448
       100                         -0.1051674              -2.8618
       101                         -0.0895541              -2.4369
       ...                                ...                  ...
       171                          0.5947848              16.1849
      -------------------------------------------------------------
                  HL-Gap            0.0604583 Eh            1.6452 eV

     #   Z          covCN         q      C6AA      α(0)
     1   7 N        1.774    -0.271    27.850     7.815
     2   6 C        2.826     0.102    25.742     8.314
     3   6 C        3.907     0.006    20.415     6.422
     4   6 C        2.974     0.002    27.968     8.675
     5   6 C        2.921    -0.081    30.016     8.984
     6   6 C        2.862     0.129    25.168     8.223
     7   8 O        1.706    -0.231    17.827     5.701
     8   6 C        3.644     0.028    20.443     6.499
     9   6 C        2.864     0.128    25.191     8.227
    10   8 O        1.706    -0.230    17.809     5.698
    11   6 C        3.645     0.027    20.450     6.499
    12   6 C        2.914    -0.075    29.868     8.962
    13   6 C        2.921    -0.054    29.343     8.883
    14   6 C        3.812    -0.065    21.732     6.636
    15   6 C        3.802    -0.069    21.821     6.651
    16   6 C        2.842     0.008    27.837     8.647
    17   7 N        2.729     0.018    20.937     6.796
    18   6 C        3.756    -0.021    21.005     6.535
    19   6 C        3.805    -0.069    21.822     6.650
    20   6 C        3.062    -0.010    28.210     8.710
    21   6 C        3.032    -0.049    29.175     8.860
    22   6 C        3.023    -0.038    28.923     8.822
    23   6 C        3.013    -0.053    29.284     8.877
    24   8 O        1.705    -0.242    18.003     5.729
    25   6 C        3.647     0.024    20.503     6.507
    26   6 C        2.730     0.283    22.202     7.714
    27   8 O        1.704    -0.235    17.900     5.712
    28   6 C        3.635     0.020    20.614     6.533
    29   6 C        3.072    -0.058    29.363     8.885
    30   6 C        3.701    -0.072    22.050     6.715
    31   6 C        3.853    -0.007    20.665     6.466
    32   6 C        3.756    -0.119    22.837     6.814
    33   6 C        3.755    -0.118    22.811     6.810
    34   1 H        0.926     0.052     2.293     2.368
    35   1 H        0.924     0.054     2.276     2.359
    36   1 H        0.925     0.081     1.971     2.195
    37   1 H        0.924     0.047     2.364     2.404
    38   1 H        0.924     0.055     2.263     2.353
    39   1 H        0.925     0.081     1.973     2.196
    40   1 H        0.924     0.047     2.360     2.402
    41   1 H        0.926     0.051     2.308     2.376
    42   1 H        0.926     0.039     2.457     2.451
    43   1 H        0.925     0.059     2.206     2.322
    44   1 H        0.924     0.053     2.280     2.361
    45   1 H        0.925     0.065     2.139     2.287
    46   1 H        0.924     0.080     1.978     2.199
    47   1 H        0.922     0.003     3.009     2.713
    48   1 H        0.926     0.069     2.091     2.261
    49   1 H        0.924     0.075     2.033     2.230
    50   1 H        0.924     0.069     2.099     2.266
    51   1 H        0.924     0.054     2.271     2.357
    52   1 H        0.925     0.060     2.199     2.319
    53   1 H        0.926     0.035     2.519     2.482
    54   1 H        0.926     0.044     2.390     2.418
    55   1 H        0.924     0.071     2.074     2.252
    56   1 H        0.924     0.072     2.062     2.245
    57   1 H        0.925     0.072     2.062     2.246
    58   1 H        0.925     0.088     1.896     2.154
    59   1 H        0.924     0.072     2.069     2.249
    60   1 H        0.924     0.071     2.076     2.253
    61   1 H        0.927     0.039     2.467     2.456
    62   1 H        0.924     0.076     2.017     2.221
    63   1 H        0.924     0.080     1.974     2.197
    64   1 H        0.925     0.080     1.979     2.200
    65   1 H        0.924     0.037     2.494     2.470
    66   1 H        0.925     0.070     2.087     2.259
    67   1 H        0.925     0.036     2.509     2.477
    68   1 H        0.925     0.051     2.308     2.376
    69   1 H        0.925     0.059     2.207     2.323
    70   1 H        0.925     0.034     2.527     2.486
    71   1 H        0.925     0.054     2.271     2.357
    72   1 H        0.860     0.155     1.364     1.830

Wiberg/Mayer (AO) data.
largest (>0.10) Wiberg bond orders for each atom

     #   Z sym  total        # sym  WBO       # sym  WBO       # sym  WBO
 ---------------------------------------------------------------------------
     1   7 N    3.032 --     2 C    1.956    72 H    0.943
     2   6 C    3.932 --     1 N    1.956     3 C    0.995    47 H    0.909
     3   6 C    3.976 --     2 C    0.995     4 C    0.969    14 C    0.960
                            31 C    0.940
     4   6 C    3.951 --    13 C    1.414     5 C    1.367     3 C    0.969
     5   6 C    3.963 --     6 C    1.402     4 C    1.367    34 H    0.958
     6   6 C    3.907 --     5 C    1.402     9 C    1.223     7 O    1.098
     7   8 O    2.255 --     6 C    1.098     8 C    0.978
     8   6 C    3.933 --     7 O    0.978    36 H    0.977    37 H    0.974
                            35 H    0.974
     9   6 C    3.903 --    12 C    1.394     6 C    1.223    10 O    1.100
    10   8 O    2.253 --     9 C    1.100    11 C    0.978
    11   6 C    3.932 --    10 O    0.978    39 H    0.977    40 H    0.974
                            38 H    0.974
    12   6 C    3.963 --    13 C    1.400     9 C    1.394    41 H    0.964
    13   6 C    3.956 --     4 C    1.414    12 C    1.400    42 H    0.963
    14   6 C    3.971 --    15 C    0.978    44 H    0.972    43 H    0.969
                             3 C    0.960
    15   6 C    3.986 --    16 C    1.059    14 C    0.978    45 H    0.962
                            46 H    0.929
    16   6 C    3.605 --    17 N    1.420    15 C    1.059    48 H    0.957
    17   7 N    3.492 --    16 C    1.420    30 C    0.998    18 C    0.987
    18   6 C    3.947 --    17 N    0.987    50 H    0.969    19 C    0.961
                            49 H    0.957
    19   6 C    3.976 --    20 C    1.021    51 H    0.972    52 H    0.964
                            18 C    0.961
    20   6 C    3.859 --    21 C    1.541    29 C    1.133    19 C    1.021
    21   6 C    3.906 --    20 C    1.541    22 C    1.243    53 H    0.972
    22   6 C    3.901 --    23 C    1.567    21 C    1.243    54 H    0.972
    23   6 C    3.856 --    22 C    1.567    29 C    1.169    61 H    0.968
    24   8 O    2.281 --    26 C    1.114    25 C    0.956
    25   6 C    3.918 --    57 H    0.979    55 H    0.975    56 H    0.974
                            24 O    0.956
    26   6 C    3.841 --    29 C    1.396    27 O    1.140    24 O    1.114
    27   8 O    2.310 --    26 C    1.140    28 C    0.955
    28   6 C    3.912 --    58 H    0.975    59 H    0.973    60 H    0.970
                            27 O    0.955
    29   6 C    3.922 --    26 C    1.396    23 C    1.169    20 C    1.133
    30   6 C    3.957 --    17 N    0.998    64 H    0.976    62 H    0.964
                            63 H    0.960
    31   6 C    3.973 --    33 C    1.009    32 C    1.008    65 H    0.961
                             3 C    0.940
    32   6 C    3.979 --    31 C    1.008    67 H    0.982    68 H    0.981
                            66 H    0.974
    33   6 C    3.984 --    31 C    1.009    70 H    0.983    71 H    0.980
                            69 H    0.977
    34   1 H    0.996 --     5 C    0.958
    35   1 H    0.994 --     8 C    0.974
    36   1 H    0.993 --     8 C    0.977
    37   1 H    0.994 --     8 C    0.974
    38   1 H    0.993 --    11 C    0.974
    39   1 H    0.993 --    11 C    0.977
    40   1 H    0.994 --    11 C    0.974
    41   1 H    0.996 --    12 C    0.964
    42   1 H    0.998 --    13 C    0.963
    43   1 H    0.995 --    14 C    0.969
    44   1 H    0.996 --    14 C    0.972
    45   1 H    0.996 --    15 C    0.962
    46   1 H    0.971 --    15 C    0.929
    47   1 H    0.987 --     2 C    0.909
    48   1 H    0.995 --    16 C    0.957
    49   1 H    0.987 --    18 C    0.957
    50   1 H    0.995 --    18 C    0.969
    51   1 H    0.995 --    19 C    0.972
    52   1 H    0.993 --    19 C    0.964
    53   1 H    0.998 --    21 C    0.972
    54   1 H    0.996 --    22 C    0.972
    55   1 H    0.992 --    25 C    0.975
    56   1 H    0.992 --    25 C    0.974
    57   1 H    0.994 --    25 C    0.979
    58   1 H    0.991 --    28 C    0.975
    59   1 H    0.994 --    28 C    0.973
    60   1 H    0.993 --    28 C    0.970
    61   1 H    0.998 --    23 C    0.968
    62   1 H    0.984 --    30 C    0.964
    63   1 H    0.989 --    30 C    0.960
    64   1 H    0.992 --    30 C    0.976
    65   1 H    0.993 --    31 C    0.961
    66   1 H    0.991 --    32 C    0.974
    67   1 H    0.997 --    32 C    0.982
    68   1 H    0.994 --    32 C    0.981
    69   1 H    0.994 --    33 C    0.977
    70   1 H    0.997 --    33 C    0.983
    71   1 H    0.994 --    33 C    0.980
    72   1 H    0.971 --     1 N    0.943
 ---------------------------------------------------------------------------

molecular dipole:
                 x           y           z       tot (Debye)
 q only:        1.433      -0.562       0.051
   full:        1.972      -0.651      -0.032       5.278

           -------------------------------------------------
          | TOTAL ENERGY              -99.376764271719 Eh   |
          | GRADIENT NORM               0.004840581453 Eh/α |
          | HOMO-LUMO GAP               1.645153236805 eV   |
           -------------------------------------------------

 * finished run on 2024/04/06 at 11:17:28.131
