   * xtb version 6.6.1 (8d0f1dd) compiled by 'conda@1efc2f54142f' on 2023-08-01
          program call               : xtb xtbopt.xyz --opt crude --input .xc2 --gfn2

   ID    Z sym.   atoms
    1    6 C      1, 3, 5-7, 10, 11, 14
    2    7 N      2, 4, 9, 13
    3    8 O      8, 12
    4    1 H      15-25
########################################################################
[WARNING] Please study the warnings concerning your input carefully
-1- readin_getIntValue: could not parse ''
########################################################################

          :  Hamiltonian                  GFN2-xTB          :
 * total energy  :   -42.1670908 Eh     change       -0.1705303E-12 Eh
 * total energy  :   -42.1727802 Eh     change       -0.5689416E-02 Eh
 * total energy  :   -42.1752621 Eh     change       -0.2481949E-02 Eh
 * total energy  :   -42.1761464 Eh     change       -0.8842197E-03 Eh
 * total energy  :   -42.1767728 Eh     change       -0.6264732E-03 Eh
 * total energy  :   -42.1770856 Eh     change       -0.3127861E-03 Eh
   *** GEOMETRY OPTIMIZATION CONVERGED AFTER 6 ITERATIONS ***

 final structure:
================
25
 xtb: 6.6.1 (8d0f1dd)
C            3.11946135262739        0.29253739661700       -0.27048193979660
N            1.70132700742240        0.19818952411162       -0.09565032394005
C            3.87724353005397       -0.81139666054854        0.44834754583221
N            1.05462798879640       -0.95811958447129       -0.12417115674448
C           -0.23884156509302       -0.66576275135732       -0.05124146595729
C           -0.46067514501136        0.73881793884702        0.01065691247874
C            0.85376579484069        1.34634533860016       -0.00600808275625
O            1.25779305537238        2.48153290227323        0.04553433756675
N           -1.77738793997748        0.96781897526992        0.02127619335807
C           -2.47802578167871        2.21361881274605        0.03159368707948
C           -2.43234387204815       -0.29262547238946       -0.02893543984631
O           -3.61427427663603       -0.45922123221928       -0.04462293651190
N           -1.43868667105394       -1.28501751385663       -0.06334107825607
C           -1.74308732068827       -2.68727386527177       -0.12238604167182
H            3.74308388924430       -0.73447262560666        1.52774061743528
H            3.34120073728140        0.24221490435226       -1.34927659044535
H            3.41557925027798        1.29038642218945        0.07435138631732
H            4.93734648915371       -0.72326089251380        0.21875258145524
H           -1.76433752617450        3.03123896327855        0.11314570920757
H           -3.06103493076908        2.31572600524844       -0.88765263384985
H           -3.18019166224477        2.23578459986701        0.86804664196041
H           -1.32370258379691       -3.20454944152994        0.74208976332057
H           -1.32481655483905       -3.12962188961546       -1.02824469008234
H           -2.82767040834897       -2.79389854943948       -0.12620692901786
H            3.52407865735670       -1.79075276293600        0.12785555078004

          :  Hamiltonian                  GFN2-xTB          :
         :: total energy             -42.177085617649 Eh    ::
         :: gradient norm              0.005670336503 Eh/a0 ::
         :: HOMO-LUMO gap              0.542831991043 eV    ::
         :: SCC energy               -42.677276831505 Eh    ::
         :: -> dispersion             -0.021106118438 Eh    ::
         :: repulsion energy           0.500154855580 Eh    ::

    * Orbital Energies and Occupations

         #    Occupation            Energy/Eh            Energy/eV
      -------------------------------------------------------------
         1        2.0000           -0.9119137             -24.8144
       ...           ...                  ...                  ...
        25        1.9997           -0.6804483             -18.5159
        26        1.9991           -0.6609496             -17.9854
        27        1.9976           -0.6451924             -17.5566
        28        1.9970           -0.6419686             -17.4689
        29        1.9955           -0.6353722             -17.2894
        30        1.9939           -0.6306173             -17.1600
        31        1.9928           -0.6280746             -17.0908
        32        1.9776           -0.6098526             -16.5949
        33        1.9749           -0.6080834             -16.5468
        34        1.9721           -0.6063339             -16.4992
        35        1.9384           -0.5935468             -16.1512
        36        1.8543           -0.5792146             -15.7612
        37        1.4507           -0.5543091             -15.0835 (HOMO)
        38        0.8566           -0.5343604             -14.5407 (LUMO)
        39        0.0003           -0.4019453             -10.9375
        40        0.0000           -0.3663110              -9.9678
        41        0.0000           -0.3359180              -9.1408
        42                         -0.2231069              -6.0710
        43                         -0.1910172              -5.1978
        44                         -0.1786613              -4.8616
        45                         -0.1088700              -2.9625
        46                         -0.0506404              -1.3780
        47                         -0.0449404              -1.2229
        48                         -0.0403737              -1.0986
       ...                                ...                  ...
        67                          0.5655731              15.3900
      -------------------------------------------------------------
                  HL-Gap            0.0199487 Eh            0.5428 eV

     #   Z          covCN         q      C6AA      α(0)
     1   6 C        3.738    -0.012    20.875     6.519
     2   7 N        3.006     0.069    20.033     6.648
     3   6 C        3.752    -0.124    22.938     6.830
     4   7 N        1.947    -0.138    24.749     7.377
     5   6 C        3.176     0.120    24.989     8.163
     6   6 C        3.119     0.009    27.640     8.611
     7   6 C        2.827     0.251    22.800     7.824
     8   8 O        0.856    -0.289    19.593     5.935
     9   7 N        2.790     0.011    21.062     6.816
    10   6 C        3.689    -0.070    22.043     6.720
    11   6 C        2.909     0.311    21.740     7.646
    12   8 O        0.857    -0.299    19.759     5.960
    13   7 N        2.788    -0.023    21.685     6.916
    14   6 C        3.688    -0.070    22.036     6.719
    15   1 H        0.924     0.094     1.842     2.122
    16   1 H        0.923     0.120     1.615     1.987
    17   1 H        0.924     0.121     1.609     1.984
    18   1 H        0.925     0.101     1.773     2.082
    19   1 H        0.925     0.117     1.640     2.003
    20   1 H        0.924     0.125     1.572     1.961
    21   1 H        0.924     0.126     1.563     1.955
    22   1 H        0.924     0.113     1.669     2.020
    23   1 H        0.924     0.113     1.671     2.022
    24   1 H        0.925     0.123     1.592     1.973
    25   1 H        0.925     0.101     1.774     2.083

Wiberg/Mayer (AO) data.
largest (>0.10) Wiberg bond orders for each atom

     #   Z sym  total        # sym  WBO       # sym  WBO       # sym  WBO
 ---------------------------------------------------------------------------
     1   6 C    3.884 --     3 C    1.004     2 N    0.992    17 H    0.937
                            16 H    0.903
     2   7 N    3.439 --     4 N    1.232     7 C    1.013     1 C    0.992
     3   6 C    3.890 --     1 C    1.004    18 H    0.960    25 H    0.953
                            15 H    0.952
     4   7 N    2.759 --     5 C    1.344     2 N    1.232
     5   6 C    3.859 --     4 N    1.344    13 N    1.203     6 C    1.159
     6   6 C    3.706 --     9 N    1.281     5 C    1.159     7 C    1.067
     7   6 C    3.863 --     8 O    1.700     6 C    1.067     2 N    1.013
     8   8 O    1.882 --     7 C    1.700
     9   7 N    3.492 --     6 C    1.281    11 C    1.022    10 C    1.001
    10   6 C    3.896 --     9 N    1.001    19 H    0.969    21 H    0.939
                            20 H    0.934
    11   6 C    3.918 --    12 O    1.731    13 N    1.072     9 N    1.022
    12   8 O    1.982 --    11 C    1.731    13 N    0.111
    13   7 N    3.490 --     5 C    1.203    11 C    1.072    14 C    0.989
                            12 O    0.111
    14   6 C    3.891 --    13 N    0.989    24 H    0.965    22 H    0.947
                            23 H    0.947
    15   1 H    0.962 --     3 C    0.952
    16   1 H    0.930 --     1 C    0.903
    17   1 H    0.965 --     1 C    0.937
    18   1 H    0.974 --     3 C    0.960
    19   1 H    0.983 --    10 C    0.969
    20   1 H    0.959 --    10 C    0.934
    21   1 H    0.962 --    10 C    0.939
    22   1 H    0.965 --    14 C    0.947
    23   1 H    0.965 --    14 C    0.947
    24   1 H    0.981 --    14 C    0.965
    25   1 H    0.964 --     3 C    0.953
 ---------------------------------------------------------------------------

molecular dipole:
                 x           y           z       tot (Debye)
 q only:        0.542      -0.690      -0.114
   full:        0.470      -0.534      -0.141       1.843

           -------------------------------------------------
          | TOTAL ENERGY              -42.177085617649 Eh   |
          | GRADIENT NORM               0.005670336503 Eh/α |
          | HOMO-LUMO GAP               0.542831991043 eV   |
           -------------------------------------------------

 * finished run on 2024/06/05 at 20:00:09.988
