   * xtb version 6.6.1 (8d0f1dd) compiled by 'conda@1efc2f54142f' on 2023-08-01
          program call               : xtb struc.xyz --opt loose --input .xc1 --gfn2

   ID    Z sym.   atoms
    1    6 C      1, 3, 5-7, 10, 11, 14
    2    7 N      2, 4, 9, 13
    3    8 O      8, 12
    4    1 H      15-25
constraining bond 2 6 to    3.9200000 Å, actual value:    1.3708515 Å

          :  Hamiltonian                  GFN2-xTB          :
 * total energy  :   -19.0425198 Eh     change       -0.6650680E-10 Eh
 * total energy  :   -28.8548129 Eh     change       -0.9812293E+01 Eh
 * total energy  :   -35.6605214 Eh     change       -0.6805709E+01 Eh
 * total energy  :   -39.7280699 Eh     change       -0.4067548E+01 Eh
 * total energy  :   -41.3728913 Eh     change       -0.1644821E+01 Eh
 * total energy  :   -41.6209597 Eh     change       -0.2480684E+00 Eh
 * total energy  :   -41.6615490 Eh     change       -0.4058934E-01 Eh
 * total energy  :   -41.7351466 Eh     change       -0.7359754E-01 Eh
 * total energy  :   -41.7834306 Eh     change       -0.4828406E-01 Eh
 * total energy  :   -41.8322202 Eh     change       -0.4878958E-01 Eh
 * total energy  :   -42.1186737 Eh     change       -0.3178980E-01 Eh
 * total energy  :   -42.1348234 Eh     change       -0.1614964E-01 Eh
 * total energy  :   -42.1404364 Eh     change       -0.5612994E-02 Eh
 * total energy  :   -42.1435319 Eh     change       -0.3095500E-02 Eh
 * total energy  :   -42.1445643 Eh     change       -0.1032434E-02 Eh
 * total energy  :   -42.1459362 Eh     change       -0.1371840E-02 Eh
 * total energy  :   -42.1461752 Eh     change       -0.2390618E-03 Eh
 * total energy  :   -42.1463145 Eh     change       -0.1393071E-03 Eh
 * total energy  :   -42.1463560 Eh     change       -0.4148711E-04 Eh
   *** GEOMETRY OPTIMIZATION CONVERGED AFTER 30 ITERATIONS ***

 final structure:
================
25
 xtb: 6.6.1 (8d0f1dd)
C            3.38504000167711        0.89538437125248        0.04050669742717
N            3.56200128215031       -0.49243549289728        0.02768611913030
C            2.69262807488297       -1.38815740942327        0.00769066966247
N            1.27722409282249       -1.40668331043703       -0.01738836908478
C            0.16633984689136       -0.62305474503745       -0.01202210266550
C           -0.14242140127559        0.77683553073595       -0.01870136569441
C            0.63649196675047        1.88595776378011       -0.04096428778491
O            0.83582660869099        3.03416541395249       -0.05288525672445
N           -1.54328906902711        0.88917461592480       -0.00712752454260
C           -2.33843801390862        2.09002364959630       -0.00411795813827
C           -2.10748640964883       -0.35355764782830        0.00042235499900
O           -3.26658717612656       -0.64694734832100        0.01020579655557
N           -1.02902602850007       -1.26487921051336       -0.00356222318403
C           -1.27602260665836       -2.68366108500430       -0.00016098078906
H            3.80755400506313        1.30216308226127        0.96210289868783
H            3.93139775962641        1.33167915445264       -0.79887442094795
H            2.30509127685554        1.20603320376462       -0.02967566993164
H            3.06530880920893       -2.40568727288881        0.00453956124369
H           -1.70408191853291        2.97135002904286        0.01270666280727
H           -2.97037145413384        2.11209467150011       -0.89373743604925
H           -2.98935525343714        2.09174726818253        0.87180647134140
H           -0.86797863761119       -3.15863584783874        0.89402924999428
H           -0.88457350435012       -3.15935127409898       -0.90153839886748
H           -2.35982284257645       -2.80837154308066        0.00928512903197
H            0.97498210526693       -2.37694802547709       -0.02905399857676

          :  Hamiltonian                  GFN2-xTB          :
         :: total energy             -42.146356010735 Eh    ::
         :: gradient norm              0.003922258841 Eh/a0 ::
         :: HOMO-LUMO gap              2.095831413309 eV    ::
         :: SCC energy               -42.690593607487 Eh    ::
         :: -> dispersion             -0.021774929922 Eh    ::
         :: repulsion energy           0.544065386646 Eh    ::

    * Orbital Energies and Occupations

         #    Occupation            Energy/Eh            Energy/eV
      -------------------------------------------------------------
         1        2.0000           -0.9312500             -25.3406
       ...           ...                  ...                  ...
        25        2.0000           -0.6796519             -18.4943
        26        2.0000           -0.6733776             -18.3235
        27        1.9999           -0.6652404             -18.1021
        28        1.9999           -0.6553623             -17.8333
        29        1.9995           -0.6377319             -17.3536
        30        1.9994           -0.6335642             -17.2402
        31        1.9993           -0.6306751             -17.1615
        32        1.9991           -0.6267796             -17.0555
        33        1.9959           -0.6026809             -16.3998
        34        1.9861           -0.5834498             -15.8765
        35        1.9831           -0.5803073             -15.7910
        36        1.9136           -0.5539195             -15.0729
        37        1.8357           -0.5430814             -14.7780 (HOMO)
        38        0.1588           -0.4660610             -12.6822 (LUMO)
        39        0.1286           -0.4624595             -12.5842
        40        0.0011           -0.3866681             -10.5218
        41        0.0001           -0.3464053              -9.4262
        42        0.0000           -0.3204187              -8.7190
        43                         -0.2174135              -5.9161
        44                         -0.1934292              -5.2635
        45                         -0.1229017              -3.3443
        46                         -0.1192256              -3.2443
        47                         -0.0772374              -2.1017
        48                         -0.0528841              -1.4390
       ...                                ...                  ...
        67                          0.7853828              21.3714
      -------------------------------------------------------------
                  HL-Gap            0.0770204 Eh            2.0958 eV

     #   Z          covCN         q      C6AA      α(0)
     1   6 C        3.696    -0.035    21.380     6.614
     2   7 N        1.820    -0.129    24.569     7.344
     3   6 C        2.765     0.106    25.630     8.291
     4   7 N        2.689    -0.127    23.755     7.239
     5   6 C        2.896     0.131    25.136     8.220
     6   6 C        3.006     0.003    27.952     8.673
     7   6 C        1.847     0.240    25.569     8.168
     8   8 O        0.856    -0.137    17.078     5.541
     9   7 N        2.800    -0.046    22.125     6.986
    10   6 C        3.691    -0.065    21.941     6.703
    11   6 C        2.826     0.314    21.670     7.628
    12   8 O        0.857    -0.351    20.733     6.105
    13   7 N        2.830    -0.055    22.309     7.015
    14   6 C        3.690    -0.075    22.128     6.732
    15   1 H        0.924     0.111     1.687     2.031
    16   1 H        0.924     0.113     1.672     2.022
    17   1 H        0.921     0.055     2.255     2.348
    18   1 H        0.925     0.104     1.750     2.069
    19   1 H        0.925     0.091     1.872     2.140
    20   1 H        0.924     0.107     1.724     2.054
    21   1 H        0.924     0.108     1.717     2.049
    22   1 H        0.924     0.088     1.895     2.153
    23   1 H        0.924     0.088     1.896     2.153
    24   1 H        0.924     0.131     1.530     1.935
    25   1 H        0.860     0.231     0.959     1.534

Wiberg/Mayer (AO) data.
largest (>0.10) Wiberg bond orders for each atom

     #   Z sym  total        # sym  WBO       # sym  WBO       # sym  WBO
 ---------------------------------------------------------------------------
     1   6 C    3.933 --     2 N    1.083    16 H    0.940    15 H    0.939
                            17 H    0.838
     2   7 N    3.155 --     3 C    1.823     1 C    1.083     4 N    0.101
     3   6 C    3.932 --     2 N    1.823     4 N    1.059    18 H    0.938
     4   7 N    3.485 --     5 C    1.232     3 C    1.059    25 H    0.902
                             2 N    0.101
     5   6 C    3.884 --    13 N    1.252     4 N    1.232     6 C    1.195
     6   6 C    3.877 --     7 C    1.362     5 C    1.195     9 N    1.047
                             8 O    0.116
     7   6 C    3.701 --     8 O    2.017     6 C    1.362    17 H    0.119
     8   8 O    2.334 --     7 C    2.017     6 C    0.116
     9   7 N    3.466 --    11 C    1.146     6 C    1.047    10 C    0.988
                            12 O    0.150
    10   6 C    3.917 --     9 N    0.988    19 H    0.975    21 H    0.958
                            20 H    0.958
    11   6 C    3.948 --    12 O    1.689     9 N    1.146    13 N    1.019
    12   8 O    2.018 --    11 C    1.689     9 N    0.150    13 N    0.111
    13   7 N    3.567 --     5 C    1.252    11 C    1.019    14 C    0.987
                            12 O    0.111
    14   6 C    3.928 --    13 N    0.987    22 H    0.962    23 H    0.962
                            24 H    0.959
    15   1 H    0.980 --     1 C    0.939
    16   1 H    0.979 --     1 C    0.940
    17   1 H    0.982 --     1 C    0.838     7 C    0.119
    18   1 H    0.983 --     3 C    0.938
    19   1 H    0.990 --    10 C    0.975
    20   1 H    0.976 --    10 C    0.958
    21   1 H    0.976 --    10 C    0.958
    22   1 H    0.987 --    14 C    0.962
    23   1 H    0.987 --    14 C    0.962
    24   1 H    0.982 --    14 C    0.959
    25   1 H    0.945 --     4 N    0.902
 ---------------------------------------------------------------------------

molecular dipole:
                 x           y           z       tot (Debye)
 q only:        1.412      -0.781       0.001
   full:        1.320      -0.850      -0.007       3.990

           -------------------------------------------------
          | TOTAL ENERGY              -42.146356010735 Eh   |
          | GRADIENT NORM               0.003922258841 Eh/α |
          | HOMO-LUMO GAP               2.095831413309 eV   |
           -------------------------------------------------

 * finished run on 2024/06/05 at 19:59:06.175
