   * xtb version 6.6.1 (8d0f1dd) compiled by 'conda@1efc2f54142f' on 2023-08-01
          program call               : xtb xtbopt.xyz --opt crude --input .xc2 --gfn2

   ID    Z sym.   atoms
    1    6 C      1, 3, 5-7, 10, 11, 14
    2    7 N      2, 4, 9, 13
    3    8 O      8, 12
    4    1 H      15-25
########################################################################
[WARNING] Please study the warnings concerning your input carefully
-1- readin_getIntValue: could not parse ''
########################################################################

          :  Hamiltonian                  GFN2-xTB          :
 * total energy  :   -42.1464099 Eh     change       -0.1563194E-12 Eh
 * total energy  :   -42.1477937 Eh     change       -0.1383763E-02 Eh
 * total energy  :   -42.1488548 Eh     change       -0.1061125E-02 Eh
 * total energy  :   -42.1494050 Eh     change       -0.5501723E-03 Eh
 * total energy  :   -42.1501196 Eh     change       -0.7146055E-03 Eh
 * total energy  :   -42.1507767 Eh     change       -0.6571336E-03 Eh
 * total energy  :   -42.1514639 Eh     change       -0.6871718E-03 Eh
 * total energy  :   -42.1517865 Eh     change       -0.3226112E-03 Eh
   *** GEOMETRY OPTIMIZATION CONVERGED AFTER 8 ITERATIONS ***

 final structure:
================
25
 xtb: 6.6.1 (8d0f1dd)
C            3.24185322347290        0.98629277671660        0.04460433154658
N            3.40685114595473       -0.36477515142485        0.02253931573099
C            2.66716583224313       -1.36965210140706       -0.00164239848349
N            1.28491821007736       -1.52861465791321       -0.01532997352254
C            0.18534704553852       -0.71970010305090       -0.00606833102346
C           -0.04213327583599        0.67828603554678       -0.01531480818402
C            0.77475171368604        1.78570219127790       -0.02638543767161
O            0.73821329480642        2.96740183450608       -0.03918278291742
N           -1.43687251086935        0.86249230715949       -0.01013695487416
C           -2.17173720152696        2.10059005849295       -0.01170435317222
C           -2.06446780641226       -0.34837528471193       -0.00057869543576
O           -3.23684494516124       -0.58527409558195        0.00789805376108
N           -1.03213792181359       -1.31257119894922       -0.00132493467003
C           -1.34184585018304       -2.71886297360655        0.00363590118158
H            3.66078471866800        1.41998657789484        0.95601788015227
H            3.70485490663757        1.45325138238443       -0.82847510124968
H            2.10536832016716        1.32384002481481        0.02027663221481
H            3.17186584834870       -2.32761048898782       -0.01486859768379
H           -1.49587820301262        2.95077383461169        0.02053997359803
H           -2.78542581998176        2.15961634511751       -0.91206100570442
H           -2.83339210124568        2.12808201812195        0.85515451478498
H           -0.95298212592592       -3.20972150530636        0.89743595231933
H           -0.97086766237680       -3.21259346947440       -0.89631500054223
H           -2.43053892199188       -2.79366646783665        0.01388148124622
H            1.01358160083641       -2.50665934679386       -0.03142404350099

          :  Hamiltonian                  GFN2-xTB          :
         :: total energy             -42.151786512858 Eh    ::
         :: gradient norm              0.009599280514 Eh/a0 ::
         :: HOMO-LUMO gap              2.108670904020 eV    ::
         :: SCC energy               -42.691762960509 Eh    ::
         :: -> dispersion             -0.021991018791 Eh    ::
         :: repulsion energy           0.539844585139 Eh    ::

    * Orbital Energies and Occupations

         #    Occupation            Energy/Eh            Energy/eV
      -------------------------------------------------------------
         1        2.0000           -0.9116823             -24.8081
       ...           ...                  ...                  ...
        25        2.0000           -0.6764951             -18.4084
        26        2.0000           -0.6742265             -18.3466
        27        1.9999           -0.6608879             -17.9837
        28        1.9999           -0.6515037             -17.7283
        29        1.9998           -0.6477573             -17.6264
        30        1.9996           -0.6332225             -17.2309
        31        1.9995           -0.6324866             -17.2108
        32        1.9989           -0.6190730             -16.8458
        33        1.9960           -0.5984320             -16.2842
        34        1.9890           -0.5824049             -15.8480
        35        1.9855           -0.5779304             -15.7263
        36        1.9594           -0.5614650             -15.2782
        37        1.8220           -0.5369005             -14.6098 (HOMO)
        38        0.1424           -0.4594083             -12.5011 (LUMO)
        39        0.1060           -0.4544221             -12.3655
        40        0.0020           -0.3907784             -10.6336
        41        0.0001           -0.3415939              -9.2952
        42        0.0000           -0.3180320              -8.6541
        43                         -0.1989329              -5.4132
        44                         -0.1904986              -5.1837
        45                         -0.1156247              -3.1463
        46                         -0.1031187              -2.8060
        47                         -0.0797249              -2.1694
        48                         -0.0474673              -1.2916
       ...                                ...                  ...
        67                          0.6346224              17.2690
      -------------------------------------------------------------
                  HL-Gap            0.0774922 Eh            2.1087 eV

     #   Z          covCN         q      C6AA      α(0)
     1   6 C        3.667    -0.026    21.301     6.618
     2   7 N        1.822    -0.120    24.384     7.317
     3   6 C        2.758     0.108    25.593     8.284
     4   7 N        2.688    -0.119    23.597     7.215
     5   6 C        2.910     0.123    25.309     8.249
     6   6 C        3.007    -0.003    28.087     8.694
     7   6 C        2.357     0.218    24.294     8.019
     8   8 O        0.856    -0.205    18.144     5.711
     9   7 N        2.808    -0.046    22.124     6.986
    10   6 C        3.691    -0.067    21.973     6.708
    11   6 C        2.831     0.312    21.705     7.634
    12   8 O        0.857    -0.355    20.805     6.115
    13   7 N        2.831    -0.055    22.307     7.015
    14   6 C        3.690    -0.073    22.098     6.728
    15   1 H        0.924     0.123     1.586     1.969
    16   1 H        0.924     0.123     1.586     1.969
    17   1 H        1.409     0.109     1.694     2.032
    18   1 H        0.925     0.111     1.691     2.034
    19   1 H        0.925     0.102     1.769     2.080
    20   1 H        0.924     0.105     1.742     2.064
    21   1 H        0.924     0.106     1.733     2.059
    22   1 H        0.924     0.086     1.914     2.164
    23   1 H        0.924     0.086     1.915     2.164
    24   1 H        0.924     0.129     1.546     1.944
    25   1 H        0.860     0.229     0.969     1.542

Wiberg/Mayer (AO) data.
largest (>0.10) Wiberg bond orders for each atom

     #   Z sym  total        # sym  WBO       # sym  WBO       # sym  WBO
 ---------------------------------------------------------------------------
     1   6 C    3.904 --     2 N    1.182    16 H    0.934    15 H    0.933
                            17 H    0.621     8 O    0.106
     2   7 N    3.283 --     3 C    1.769     1 C    1.182     4 N    0.109
     3   6 C    3.932 --     2 N    1.769     4 N    1.110    18 H    0.935
     4   7 N    3.499 --     5 C    1.193     3 C    1.110    25 H    0.907
                             2 N    0.109
     5   6 C    3.880 --    13 N    1.250     6 C    1.240     4 N    1.193
     6   6 C    3.875 --     7 C    1.291     5 C    1.240     9 N    1.060
     7   6 C    3.780 --     8 O    1.889     6 C    1.291    17 H    0.324
     8   8 O    2.284 --     7 C    1.889     1 C    0.106
     9   7 N    3.481 --    11 C    1.149     6 C    1.060    10 C    0.990
                            12 O    0.148
    10   6 C    3.912 --     9 N    0.990    19 H    0.967    21 H    0.957
                            20 H    0.956
    11   6 C    3.947 --    12 O    1.684     9 N    1.149    13 N    1.019
    12   8 O    2.007 --    11 C    1.684     9 N    0.148    13 N    0.112
    13   7 N    3.564 --     5 C    1.250    11 C    1.019    14 C    0.988
                            12 O    0.112
    14   6 C    3.929 --    13 N    0.988    22 H    0.964    23 H    0.964
                            24 H    0.961
    15   1 H    0.979 --     1 C    0.933
    16   1 H    0.979 --     1 C    0.934
    17   1 H    0.981 --     1 C    0.621     7 C    0.324
    18   1 H    0.982 --     3 C    0.935
    19   1 H    0.988 --    10 C    0.967
    20   1 H    0.975 --    10 C    0.956
    21   1 H    0.976 --    10 C    0.957
    22   1 H    0.987 --    14 C    0.964
    23   1 H    0.986 --    14 C    0.964
    24   1 H    0.983 --    14 C    0.961
    25   1 H    0.947 --     4 N    0.907
 ---------------------------------------------------------------------------

molecular dipole:
                 x           y           z       tot (Debye)
 q only:        1.988      -1.060       0.011
   full:        1.985      -1.215       0.006       5.917

           -------------------------------------------------
          | TOTAL ENERGY              -42.151786512858 Eh   |
          | GRADIENT NORM               0.009599280514 Eh/α |
          | HOMO-LUMO GAP               2.108670904020 eV   |
           -------------------------------------------------

 * finished run on 2024/06/05 at 19:59:06.526
