   * xtb version 6.6.1 (8d0f1dd) compiled by 'conda@1efc2f54142f' on 2023-08-01
          program call               : xtb struc.xyz --opt loose --input .xc1 --gfn2

   ID    Z sym.   atoms
    1    6 C      1, 3, 5-7, 10, 11, 14
    2    7 N      2, 4, 9, 13
    3    8 O      8, 12
    4    1 H      15-25
constraining bond 3 5 to    5.0000000 Å, actual value:    2.1957592 Å

          :  Hamiltonian                  GFN2-xTB          :
 * total energy  :    13.9161717 Eh     change       -0.6650680E-10 Eh
 * total energy  :    -9.8148114 Eh     change       -0.2373098E+02 Eh
 * total energy  :   -23.7151968 Eh     change       -0.1390039E+02 Eh
 * total energy  :   -33.0891578 Eh     change       -0.9373961E+01 Eh
 * total energy  :   -39.0851071 Eh     change       -0.5995949E+01 Eh
 * total energy  :   -40.9930779 Eh     change       -0.1907971E+01 Eh
 * total energy  :   -41.2091591 Eh     change       -0.2160812E+00 Eh
 * total energy  :   -41.3142901 Eh     change       -0.1051311E+00 Eh
 * total energy  :   -41.4012885 Eh     change       -0.8699841E-01 Eh
 * total energy  :   -41.4442486 Eh     change       -0.4296009E-01 Eh
 * total energy  :   -42.0886101 Eh     change       -0.7471222E-04 Eh
 * total energy  :   -42.0886758 Eh     change       -0.6564609E-04 Eh
 * total energy  :   -42.0887428 Eh     change       -0.6703689E-04 Eh
 * total energy  :   -42.0888136 Eh     change       -0.7082013E-04 Eh
 * total energy  :   -42.0888925 Eh     change       -0.7891564E-04 Eh
 * total energy  :   -42.0889903 Eh     change       -0.9780182E-04 Eh
 * total energy  :   -42.0890598 Eh     change       -0.6941709E-04 Eh
 * total energy  :   -42.0891159 Eh     change       -0.5611441E-04 Eh
 * total energy  :   -42.0891611 Eh     change       -0.4524876E-04 Eh
   *** GEOMETRY OPTIMIZATION CONVERGED AFTER 115 ITERATIONS ***

 final structure:
================
25
 xtb: 6.6.1 (8d0f1dd)
C            3.05822774233908        0.39192991183478        0.22447830964911
N            1.95605881119210       -0.30687084854659       -0.11803138576126
C            4.33054261569951        0.31235367054590       -0.28003715210337
N            0.65545344668239       -2.77521756122014        0.15326485230518
C           -0.51625914264774       -0.86524087368131        0.01781649322278
C            0.67918244270058       -0.01086165757810       -0.03570203544357
C            0.14221733548412        1.33377302382408       -0.08245201847035
O            0.79401172435195        2.46757260048097       -0.20048977264875
N           -1.18881413345189        1.31968917665668       -0.03664393235920
C           -2.06260924801133        2.46284358308028       -0.08211507172653
C           -1.68391511715913       -0.01319202741053        0.03738437097970
O           -2.86132129423968       -0.26620980777705        0.11487097145732
N           -0.46737004964797       -2.21144542591753        0.10683555794157
C           -1.71095995072088       -2.95898995348988        0.11660306186143
H            2.93286268535108        1.04179463686437        1.09726576276264
H            5.11962979513554        0.88709471696203        0.16527532065974
H            1.75598668355390        2.34447126645442       -0.27360668935310
H            4.55909608515328       -0.30582082402924       -1.13167844732798
H           -1.54442273830788        3.33521749349043        0.31263261860794
H           -2.37317507471483        2.65785904438153       -1.11192650032606
H           -2.94964387406608        2.23733923835491        0.51214268592619
H           -1.60951113300867       -3.83177955281662        0.76309547037414
H           -1.93187308733458       -3.30080218291402       -0.89791793639274
H           -2.53858613041792       -2.33634763613455        0.45422089620106
H            0.61562312018908       -3.79092146982128        0.20588618786572

          :  Hamiltonian                  GFN2-xTB          :
         :: total energy             -42.089161130284 Eh    ::
         :: gradient norm              0.003705359270 Eh/a0 ::
         :: HOMO-LUMO gap              1.033970843532 eV    ::
         :: SCC energy               -42.601139887656 Eh    ::
         :: -> dispersion             -0.021250950698 Eh    ::
         :: repulsion energy           0.511855969463 Eh    ::

    * Orbital Energies and Occupations

         #    Occupation            Energy/Eh            Energy/eV
      -------------------------------------------------------------
         1        2.0000           -0.9156221             -24.9153
       ...           ...                  ...                  ...
        25        1.9999           -0.6577624             -17.8986
        26        1.9999           -0.6548365             -17.8190
        27        1.9997           -0.6391935             -17.3933
        28        1.9994           -0.6294671             -17.1287
        29        1.9991           -0.6235207             -16.9669
        30        1.9989           -0.6200970             -16.8737
        31        1.9977           -0.6089088             -16.5693
        32        1.9957           -0.5988062             -16.2943
        33        1.9863           -0.5804940             -15.7960
        34        1.9785           -0.5733017             -15.6003
        35        1.9436           -0.5577438             -15.1770
        36        1.8788           -0.5450918             -14.8327
        37        1.6020           -0.5237374             -14.2516 (HOMO)
        38        0.5351           -0.4857396             -13.2176 (LUMO)
        39        0.0852           -0.4524067             -12.3106
        40        0.0004           -0.3676571             -10.0045
        41        0.0001           -0.3389969              -9.2246
        42        0.0000           -0.3049080              -8.2970
        43                         -0.1741922              -4.7400
        44                         -0.1607085              -4.3731
        45                         -0.1091142              -2.9691
        46                         -0.0980228              -2.6673
        47                         -0.0827591              -2.2520
        48                         -0.0292934              -0.7971
       ...                                ...                  ...
        67                          0.5571591              15.1611
      -------------------------------------------------------------
                  HL-Gap            0.0379977 Eh            1.0340 eV

     #   Z          covCN         q      C6AA      α(0)
     1   6 C        2.826     0.045    26.971     8.510
     2   7 N        1.826    -0.110    24.167     7.284
     3   6 C        2.835    -0.072    29.789     8.944
     4   7 N        1.897    -0.233    26.951     7.697
     5   6 C        3.015    -0.037    28.901     8.818
     6   6 C        2.934     0.052    26.839     8.496
     7   6 C        2.882     0.202    23.714     7.983
     8   8 O        1.660    -0.296    18.939     5.875
     9   7 N        2.784    -0.024    21.706     6.919
    10   6 C        3.690    -0.068    22.001     6.713
    11   6 C        2.847     0.257    22.690     7.807
    12   8 O        0.857    -0.337    20.455     6.064
    13   7 N        2.800     0.240    17.348     6.186
    14   6 C        3.704    -0.112    22.810     6.828
    15   1 H        0.924     0.065     2.141     2.288
    16   1 H        0.926     0.098     1.802     2.099
    17   1 H        0.804     0.355     0.576     1.192
    18   1 H        0.926     0.102     1.769     2.080
    19   1 H        0.925     0.104     1.746     2.066
    20   1 H        0.924     0.106     1.730     2.057
    21   1 H        0.924     0.116     1.642     2.004
    22   1 H        0.924     0.105     1.743     2.065
    23   1 H        0.924     0.116     1.644     2.005
    24   1 H        0.925     0.132     1.518     1.926
    25   1 H        0.860     0.193     1.143     1.675

Wiberg/Mayer (AO) data.
largest (>0.10) Wiberg bond orders for each atom

     #   Z sym  total        # sym  WBO       # sym  WBO       # sym  WBO
 ---------------------------------------------------------------------------
     1   6 C    3.905 --     3 C    1.623     2 N    1.294    15 H    0.916
     2   7 N    2.934 --     6 C    1.452     1 C    1.294
     3   6 C    3.649 --     1 C    1.623    16 H    0.970    18 H    0.965
     4   7 N    2.821 --    13 N    1.503    25 H    0.930     5 C    0.148
     5   6 C    3.827 --    13 N    1.233     6 C    1.134    11 C    1.103
                             4 N    0.148
     6   6 C    3.871 --     2 N    1.452     5 C    1.134     7 C    1.100
     7   6 C    3.739 --     9 N    1.313     8 O    1.202     6 C    1.100
     8   8 O    2.215 --     7 C    1.202    17 H    0.839
     9   7 N    3.555 --     7 C    1.313    11 C    1.000    10 C    0.984
    10   6 C    3.914 --     9 N    0.984    19 H    0.969    21 H    0.962
                            20 H    0.951
    11   6 C    3.899 --    12 O    1.701     5 C    1.103     9 N    1.000
    12   8 O    1.996 --    11 C    1.701
    13   7 N    3.766 --     4 N    1.503     5 C    1.233    14 C    0.969
    14   6 C    3.917 --    13 N    0.969    22 H    0.964    24 H    0.952
                            23 H    0.943
    15   1 H    0.957 --     1 C    0.916
    16   1 H    0.988 --     3 C    0.970
    17   1 H    0.873 --     8 O    0.839
    18   1 H    0.983 --     3 C    0.965
    19   1 H    0.985 --    10 C    0.969
    20   1 H    0.975 --    10 C    0.951
    21   1 H    0.981 --    10 C    0.962
    22   1 H    0.987 --    14 C    0.964
    23   1 H    0.981 --    14 C    0.943
    24   1 H    0.979 --    14 C    0.952
    25   1 H    0.957 --     4 N    0.930
 ---------------------------------------------------------------------------

molecular dipole:
                 x           y           z       tot (Debye)
 q only:        0.944      -0.081      -0.071
   full:        1.047      -0.131      -0.018       2.683

           -------------------------------------------------
          | TOTAL ENERGY              -42.089161130284 Eh   |
          | GRADIENT NORM               0.003705359270 Eh/α |
          | HOMO-LUMO GAP               1.033970843532 eV   |
           -------------------------------------------------

 * finished run on 2024/06/05 at 20:00:10.564
