   * xtb version 6.6.1 (8d0f1dd) compiled by 'conda@1efc2f54142f' on 2023-08-01
          program call               : xtb xtbopt.xyz --opt crude --input .xc2 --gfn2

   ID    Z sym.   atoms
    1    6 C      1, 3, 5-7, 10, 11, 14
    2    7 N      2, 4, 9, 13
    3    8 O      8, 12
    4    1 H      15-25
########################################################################
[WARNING] Please study the warnings concerning your input carefully
-1- readin_getIntValue: could not parse ''
########################################################################

          :  Hamiltonian                  GFN2-xTB          :
 * total energy  :   -42.0892393 Eh     change       -0.1200817E-11 Eh
 * total energy  :   -42.0924178 Eh     change       -0.3178579E-02 Eh
 * total energy  :   -42.0934930 Eh     change       -0.1075174E-02 Eh
 * total energy  :   -42.0938483 Eh     change       -0.3553270E-03 Eh
   *** GEOMETRY OPTIMIZATION CONVERGED AFTER 4 ITERATIONS ***

 final structure:
================
25
 xtb: 6.6.1 (8d0f1dd)
C            3.00998571701471        0.38191998470021        0.28251843155552
N            1.92776828997115       -0.31309781772177       -0.06479599443921
C            4.22261375399725        0.21803883213934       -0.28821800544190
N            0.71171532710997       -2.75129890272654        0.15057251103507
C           -0.46150445117382       -0.83772149489270        0.01197697857422
C            0.67746601604550        0.02821221464467       -0.01575540652557
C            0.13933643986803        1.37269764239480       -0.07231598213173
O            0.78814805564203        2.50875442042125       -0.18375405415469
N           -1.19053189761724        1.33497511614689       -0.04291411822499
C           -2.07899857646701        2.46513782924833       -0.09079945873734
C           -1.65630527752398       -0.01047547811288        0.02419971315048
O           -2.82891425064601       -0.28503992505746        0.09524585785823
N           -0.41011075924800       -2.18616025269001        0.10020321099408
C           -1.65225389532276       -2.93888699849417        0.10837310819274
H            2.92088366588239        1.05696158371243        1.14113954397148
H            5.07090425024974        0.77402816332132        0.07749952874348
H            1.74949971844562        2.38970932046552       -0.26045641244399
H            4.37839699496511       -0.44087120410328       -1.12580832423580
H           -1.57851382927016        3.33782567509087        0.32292714490291
H           -2.37255943935657        2.67135434042036       -1.12163924515227
H           -2.97242222559792        2.22256366888604        0.48333666632336
H           -1.54373778449390       -3.81815574801702        0.74349532813637
H           -1.87999322653521       -3.26916536904751       -0.90775136443754
H           -2.48073616658753       -2.32614970644240        0.45886254930527
H            0.67029506475255       -3.76691735269261        0.20502941108350

          :  Hamiltonian                  GFN2-xTB          :
         :: total energy             -42.093848335100 Eh    ::
         :: gradient norm              0.007397439201 Eh/a0 ::
         :: HOMO-LUMO gap              1.070590261150 eV    ::
         :: SCC energy               -42.622816341732 Eh    ::
         :: -> dispersion             -0.021449069249 Eh    ::
         :: repulsion energy           0.528913584355 Eh    ::

    * Orbital Energies and Occupations

         #    Occupation            Energy/Eh            Energy/eV
      -------------------------------------------------------------
         1        2.0000           -0.9169093             -24.9504
       ...           ...                  ...                  ...
        25        1.9999           -0.6606622             -17.9775
        26        1.9999           -0.6563878             -17.8612
        27        1.9997           -0.6394376             -17.4000
        28        1.9994           -0.6295331             -17.1305
        29        1.9991           -0.6229822             -16.9522
        30        1.9989           -0.6199828             -16.8706
        31        1.9979           -0.6095881             -16.5877
        32        1.9956           -0.5982297             -16.2787
        33        1.9886           -0.5831204             -15.8675
        34        1.9796           -0.5737926             -15.6137
        35        1.9460           -0.5581005             -15.1867
        36        1.8838           -0.5454528             -14.8425
        37        1.6099           -0.5237848             -14.2529 (HOMO)
        38        0.5119           -0.4844414             -13.1823 (LUMO)
        39        0.0896           -0.4528941             -12.3239
        40        0.0003           -0.3639285              -9.9030
        41        0.0001           -0.3383141              -9.2060
        42        0.0000           -0.2984186              -8.1204
        43                         -0.1756123              -4.7787
        44                         -0.1544158              -4.2019
        45                         -0.1006534              -2.7389
        46                         -0.0870738              -2.3694
        47                         -0.0609385              -1.6582
        48                         -0.0279354              -0.7602
       ...                                ...                  ...
        67                          0.5633247              15.3288
      -------------------------------------------------------------
                  HL-Gap            0.0393435 Eh            1.0706 eV

     #   Z          covCN         q      C6AA      α(0)
     1   6 C        2.837     0.047    26.943     8.506
     2   7 N        1.836    -0.111    24.193     7.289
     3   6 C        2.842    -0.072    29.786     8.944
     4   7 N        1.895    -0.231    26.904     7.690
     5   6 C        3.017    -0.037    28.901     8.818
     6   6 C        2.962     0.055    26.765     8.486
     7   6 C        2.888     0.201    23.729     7.986
     8   8 O        1.660    -0.295    18.914     5.871
     9   7 N        2.787    -0.023    21.688     6.917
    10   6 C        3.691    -0.069    22.006     6.713
    11   6 C        2.860     0.254    22.735     7.815
    12   8 O        0.857    -0.335    20.421     6.059
    13   7 N        2.801     0.239    17.364     6.189
    14   6 C        3.703    -0.113    22.831     6.832
    15   1 H        0.924     0.063     2.168     2.303
    16   1 H        0.926     0.094     1.844     2.123
    17   1 H        0.804     0.356     0.574     1.190
    18   1 H        0.926     0.102     1.766     2.078
    19   1 H        0.925     0.104     1.745     2.066
    20   1 H        0.924     0.106     1.729     2.056
    21   1 H        0.925     0.117     1.640     2.003
    22   1 H        0.925     0.105     1.744     2.065
    23   1 H        0.924     0.117     1.641     2.003
    24   1 H        0.925     0.133     1.513     1.924
    25   1 H        0.860     0.193     1.140     1.673

Wiberg/Mayer (AO) data.
largest (>0.10) Wiberg bond orders for each atom

     #   Z sym  total        # sym  WBO       # sym  WBO       # sym  WBO
 ---------------------------------------------------------------------------
     1   6 C    3.911 --     3 C    1.633     2 N    1.291    15 H    0.918
     2   7 N    2.945 --     6 C    1.457     1 C    1.291
     3   6 C    3.663 --     1 C    1.633    16 H    0.971    18 H    0.965
     4   7 N    2.821 --    13 N    1.504    25 H    0.929     5 C    0.143
     5   6 C    3.833 --    13 N    1.225     6 C    1.162    11 C    1.094
                             4 N    0.143
     6   6 C    3.885 --     2 N    1.457     5 C    1.162     7 C    1.085
     7   6 C    3.734 --     9 N    1.318     8 O    1.203     6 C    1.085
     8   8 O    2.216 --     7 C    1.203    17 H    0.840
     9   7 N    3.558 --     7 C    1.318    11 C    0.999    10 C    0.984
    10   6 C    3.915 --     9 N    0.984    19 H    0.968    21 H    0.963
                            20 H    0.951
    11   6 C    3.896 --    12 O    1.706     5 C    1.094     9 N    0.999
    12   8 O    2.000 --    11 C    1.706
    13   7 N    3.764 --     4 N    1.504     5 C    1.225    14 C    0.969
    14   6 C    3.916 --    13 N    0.969    22 H    0.965    24 H    0.951
                            23 H    0.943
    15   1 H    0.961 --     1 C    0.918
    16   1 H    0.988 --     3 C    0.971
    17   1 H    0.872 --     8 O    0.840
    18   1 H    0.984 --     3 C    0.965
    19   1 H    0.985 --    10 C    0.968
    20   1 H    0.976 --    10 C    0.951
    21   1 H    0.981 --    10 C    0.963
    22   1 H    0.987 --    14 C    0.965
    23   1 H    0.981 --    14 C    0.943
    24   1 H    0.979 --    14 C    0.951
    25   1 H    0.956 --     4 N    0.929
 ---------------------------------------------------------------------------

molecular dipole:
                 x           y           z       tot (Debye)
 q only:        0.900      -0.065      -0.090
   full:        1.005      -0.087      -0.033       2.566

           -------------------------------------------------
          | TOTAL ENERGY              -42.093848335100 Eh   |
          | GRADIENT NORM               0.007397439201 Eh/α |
          | HOMO-LUMO GAP               1.070590261150 eV   |
           -------------------------------------------------

 * finished run on 2024/06/05 at 20:00:10.769
