   * xtb version 6.6.1 (8d0f1dd) compiled by 'conda@1efc2f54142f' on 2023-08-01
          program call               : xtb struc.xyz --opt loose --input .xc1 --gfn2

   ID    Z sym.   atoms
    1    7 N      1, 17
    2    6 C      2-6, 8, 9, 11-16, 18-23, 25, 26, 28-33
    3    8 O      7, 10, 24, 27
    4    1 H      34-72
constraining bond 16 46 to    2.7133300 Å, actual value:    2.0805159 Å

          :  Hamiltonian                  GFN2-xTB          :
 * total energy  :   -99.4756332 Eh     change       -0.4035485E-08 Eh
 * total energy  :   -99.6181883 Eh     change       -0.1425551E+00 Eh
 * total energy  :   -99.8252343 Eh     change       -0.2070460E+00 Eh
 * total energy  :   -98.1697963 Eh     change        0.1655438E+01 Eh
 * total energy  :   -99.8520910 Eh     change       -0.1682295E+01 Eh
 * total energy  :   -99.8926493 Eh     change       -0.4055827E-01 Eh
 * total energy  :   -99.8565410 Eh     change        0.3610836E-01 Eh
 * total energy  :   -99.9107643 Eh     change       -0.5422334E-01 Eh
 * total energy  :   -99.9139724 Eh     change       -0.3208086E-02 Eh
 * total energy  :   -99.9175559 Eh     change       -0.3583516E-02 Eh
 * total energy  :   -99.9308828 Eh     change       -0.3067701E-03 Eh
 * total energy  :   -99.9311138 Eh     change       -0.2310125E-03 Eh
 * total energy  :   -99.9312624 Eh     change       -0.1485634E-03 Eh
 * total energy  :   -99.9313581 Eh     change       -0.9574009E-04 Eh
 * total energy  :   -99.9314417 Eh     change       -0.8364353E-04 Eh
 * total energy  :   -99.9315166 Eh     change       -0.7487121E-04 Eh
 * total energy  :   -99.9315808 Eh     change       -0.6423041E-04 Eh
 * total energy  :   -99.9316360 Eh     change       -0.5511742E-04 Eh
 * total energy  :   -99.9316830 Eh     change       -0.4707330E-04 Eh
   *** GEOMETRY OPTIMIZATION CONVERGED AFTER 34 ITERATIONS ***

 final structure:
================
72
 xtb: 6.6.1 (8d0f1dd)
N           -1.62844560996994        2.78793827479365        2.07951437902516
C           -1.73300963760242        1.93197690696271        1.17345702238395
C           -2.94721177980919        1.80489847292047        0.29486319975034
C           -3.48171793792898        0.38745192790732        0.35083815154478
C           -4.39732631926701       -0.05935835549665       -0.60157325889866
C           -4.92154496606574       -1.34180029342612       -0.55527491551208
O           -5.81200561265122       -1.85304367195276       -1.42588467967562
C           -6.34564990826853       -1.03246322412792       -2.43871552715597
C           -4.51371415283468       -2.22954174318847        0.48060298555694
O           -5.06088929621884       -3.45694258784956        0.43838377170975
C           -4.74280947831000       -4.38857558371051        1.44682940882209
C           -3.61502155127715       -1.77143337779531        1.43293585598405
C           -3.11296163592081       -0.47988786286836        1.37100414300159
C           -2.39911186294655        2.12066853873388       -1.15899739089373
C           -1.58687349963638        1.04910543249108       -1.73613610320890
C           -0.09660468184120        1.01498856693494       -1.68881705047398
N            0.38545057425409        0.18985225257964       -0.53875419862105
C            1.79286505880242        0.33628115635728       -0.26505137759843
C            2.74799389298343       -0.18035285018243       -1.36818720819327
C            4.17059635995646       -0.01509918453470       -0.93058098430900
C            4.84652919025875        1.17858065019410       -1.15135266312042
C            6.15411416220761        1.34585100403469       -0.72765570723785
C            6.82011431174168        0.32109674023205       -0.06638588991396
O            8.08445335952685        0.36823083601494        0.38386909078409
C            8.85075885554256        1.53322961947727        0.17896265788256
C            6.13472305681098       -0.90563957511744        0.17091225943164
O            6.85187143654094       -1.84510302086274        0.81320306494785
C            6.27328903273902       -3.10189957112852        1.07480061248100
C            4.82422081564419       -1.04669662333525       -0.26166553260494
C           -0.09418941144215       -1.17243774055817       -0.57792825099534
C           -4.09909746865134        2.78403794891120        0.64506172062814
C           -4.63215514348640        2.51854789977379        2.05236647112032
C           -3.71377681042308        4.25382344820784        0.50764404311694
H           -4.71136643476996        0.60653107731405       -1.38851912228110
H           -6.85471254574720       -0.15908265667814       -2.02015193673490
H           -7.06887645870154       -1.65268374175823       -2.96474060660153
H           -5.57259579128064       -0.70542047712084       -3.14144957590215
H           -5.02775570745109       -4.02045331408275        2.43663479985443
H           -5.32070983018956       -5.28046001959080        1.21322076532363
H           -3.67649542807853       -4.63509848145407        1.44109433861395
H           -3.30288636473874       -2.41424547663794        2.23982931222009
H           -2.43696294442471       -0.15072554026769        2.14440418476286
H           -3.27473029686553        2.30388910896795       -1.78490286469775
H           -1.81887747797972        3.04103259729554       -1.08143515728827
H           -2.08350133040427        0.21781159115477       -2.20746805152095
H            0.21624532491557        0.72402100454526       -2.41899598489229
H           -0.93459808287719        1.22958933152564        0.89352008605152
H            0.26019688011020        2.03330370330834       -1.46554309105390
H            2.00429409084652       -0.20495770611856        0.66108898748890
H            1.99769027873894        1.39632321794884       -0.09057116470292
H            2.57620011834511        0.38485811997302       -2.28573101005578
H            2.53613974977475       -1.23357589981766       -1.55808362151888
H            4.35408221623185        1.98734154894075       -1.66935581057584
H            6.65353099815782        2.28123934763325       -0.92066189561732
H            8.40468743857085        2.39878102532720        0.67809303028448
H            8.97368494027433        1.74840489978255       -0.88667694920915
H            9.82365643997590        1.32394515623841        0.61988329743120
H            7.04798998606368       -3.68239413323789        1.57191558703265
H            5.40645163982828       -3.01350243016208        1.73714981159021
H            5.97859413496148       -3.60785652242173        0.15057928413701
H            4.29947822841842       -1.97381244541521       -0.09125838875407
H            0.14939332424977       -1.68735323270913       -1.51592177828307
H           -1.17841549058354       -1.16601573778558       -0.46052981383498
H            0.34175370963969       -1.72801984085440        0.25004175661104
H           -4.90991152971547        2.57607741105704       -0.06375836590398
H           -3.86567747719090        2.74122438831132        2.78859679356017
H           -4.94358227450443        1.48290122757338        2.16617993029601
H           -5.49040246503840        3.15753594914119        2.24319250820362
H           -2.87508706841217        4.48369027707137        1.15809032479474
H           -3.45748241496244        4.51281935079919       -0.51631989117366
H           -4.55625256360567        4.87281185248035        0.80535368267703
H           -0.75953726703659        2.82938058183187        2.60218334250982

          :  Hamiltonian                  GFN2-xTB          :
         :: total energy             -99.931683029029 Eh    ::
         :: gradient norm              0.003400354458 Eh/a0 ::
         :: HOMO-LUMO gap              0.851423916955 eV    ::
         :: SCC energy              -100.756415927513 Eh    ::
         :: -> dispersion             -0.075429056621 Eh    ::
         :: repulsion energy           1.446070799644 Eh    ::

    * Orbital Energies and Occupations

         #    Occupation            Energy/Eh            Energy/eV
      -------------------------------------------------------------
         1        2.0000           -0.8153723             -22.1874
       ...           ...                  ...                  ...
        78        1.9971           -0.5327614             -14.4972
        79        1.9969           -0.5316790             -14.4677
        80        1.9957           -0.5264954             -14.3267
        81        1.9946           -0.5229976             -14.2315
        82        1.9935           -0.5200040             -14.1500
        83        1.9922           -0.5170417             -14.0694
        84        1.9911           -0.5149635             -14.0129
        85        1.9681           -0.4945650             -13.4578
        86        1.9664           -0.4937336             -13.4352
        87        1.9131           -0.4782433             -13.0137
        88        1.8253           -0.4664381             -12.6924
        89        1.7920           -0.4633783             -12.6092
        90        1.6999           -0.4567391             -12.4285 (HOMO)
        91        0.8796           -0.4254499             -11.5771 (LUMO)
        92        0.0063           -0.3381569              -9.2017
        93        0.0021           -0.3203152              -8.7162
        94        0.0017           -0.3176640              -8.6441
        95        0.0016           -0.3160767              -8.6009
        96        0.0014           -0.3142145              -8.5502
        97        0.0000           -0.1953939              -5.3169
        98        0.0000           -0.1916201              -5.2142
        99                         -0.1035234              -2.8170
       100                         -0.0691842              -1.8826
       101                         -0.0655004              -1.7824
       ...                                ...                  ...
       171                          0.7893174              21.4784
      -------------------------------------------------------------
                  HL-Gap            0.0312893 Eh            0.8514 eV

     #   Z          covCN         q      C6AA      α(0)
     1   7 N        1.774    -0.261    27.594     7.779
     2   6 C        2.828     0.096    25.861     8.333
     3   6 C        3.906     0.015    20.263     6.398
     4   6 C        2.973     0.007    27.864     8.659
     5   6 C        2.919    -0.076    29.895     8.966
     6   6 C        2.861     0.133    25.081     8.209
     7   8 O        1.706    -0.221    17.666     5.675
     8   6 C        3.644     0.026    20.485     6.506
     9   6 C        2.864     0.133    25.084     8.210
    10   8 O        1.706    -0.218    17.621     5.668
    11   6 C        3.645     0.024    20.505     6.508
    12   6 C        2.913    -0.069    29.724     8.940
    13   6 C        2.922    -0.046    29.131     8.851
    14   6 C        3.809    -0.060    21.650     6.623
    15   6 C        2.886    -0.053    29.304     8.875
    16   6 C        3.750    -0.019    20.967     6.530
    17   7 N        2.723    -0.139    24.018     7.279
    18   6 C        3.750     0.001    20.619     6.476
    19   6 C        3.806    -0.071    21.848     6.654
    20   6 C        2.968     0.009    27.817     8.651
    21   6 C        2.922    -0.044    29.083     8.844
    22   6 C        2.912    -0.065    29.612     8.923
    23   6 C        2.864     0.136    25.025     8.200
    24   8 O        1.706    -0.213    17.540     5.655
    25   6 C        3.645     0.023    20.526     6.512
    26   6 C        2.862     0.136    25.028     8.200
    27   8 O        1.706    -0.217    17.599     5.664
    28   6 C        3.645     0.025    20.489     6.506
    29   6 C        2.919    -0.076    29.898     8.967
    30   6 C        3.699    -0.043    21.508     6.633
    31   6 C        3.853    -0.007    20.663     6.465
    32   6 C        3.756    -0.117    22.793     6.807
    33   6 C        3.755    -0.121    22.872     6.819
    34   1 H        0.926     0.056     2.250     2.345
    35   1 H        0.924     0.056     2.243     2.342
    36   1 H        0.925     0.084     1.934     2.175
    37   1 H        0.924     0.052     2.293     2.368
    38   1 H        0.924     0.059     2.216     2.328
    39   1 H        0.925     0.085     1.933     2.174
    40   1 H        0.924     0.054     2.267     2.355
    41   1 H        0.926     0.059     2.215     2.328
    42   1 H        0.926     0.049     2.327     2.385
    43   1 H        0.924     0.071     2.071     2.251
    44   1 H        0.924     0.065     2.142     2.288
    45   1 H        0.926     0.047     2.356     2.400
    46   1 H        0.930     0.094     1.843     2.123
    47   1 H        0.923     0.044     2.396     2.421
    48   1 H        0.923     0.052     2.299     2.371
    49   1 H        0.924     0.052     2.296     2.370
    50   1 H        0.924     0.049     2.331     2.388
    51   1 H        0.924     0.050     2.323     2.384
    52   1 H        0.924     0.051     2.313     2.378
    53   1 H        0.926     0.052     2.293     2.368
    54   1 H        0.926     0.062     2.179     2.308
    55   1 H        0.924     0.059     2.215     2.327
    56   1 H        0.924     0.060     2.200     2.319
    57   1 H        0.925     0.085     1.924     2.169
    58   1 H        0.925     0.084     1.934     2.175
    59   1 H        0.924     0.054     2.274     2.358
    60   1 H        0.924     0.057     2.240     2.341
    61   1 H        0.926     0.053     2.281     2.362
    62   1 H        0.924     0.041     2.440     2.443
    63   1 H        0.924     0.053     2.279     2.361
    64   1 H        0.925     0.053     2.281     2.362
    65   1 H        0.924     0.041     2.436     2.441
    66   1 H        0.925     0.068     2.107     2.270
    67   1 H        0.925     0.037     2.493     2.469
    68   1 H        0.925     0.055     2.259     2.351
    69   1 H        0.925     0.069     2.101     2.266
    70   1 H        0.925     0.040     2.454     2.450
    71   1 H        0.925     0.057     2.235     2.338
    72   1 H        0.860     0.162     1.325     1.803

Wiberg/Mayer (AO) data.
largest (>0.10) Wiberg bond orders for each atom

     #   Z sym  total        # sym  WBO       # sym  WBO       # sym  WBO
 ---------------------------------------------------------------------------
     1   7 N    2.997 --     2 C    1.947    72 H    0.938
     2   6 C    3.925 --     1 N    1.947     3 C    0.992    47 H    0.913
     3   6 C    3.895 --     2 C    0.992     4 C    0.981    31 C    0.948
                            14 C    0.865
     4   6 C    3.931 --    13 C    1.396     5 C    1.377     3 C    0.981
     5   6 C    3.952 --     6 C    1.393     4 C    1.377    34 H    0.957
     6   6 C    3.888 --     5 C    1.393     9 C    1.211     7 O    1.109
     7   8 O    2.251 --     6 C    1.109     8 C    0.976
     8   6 C    3.928 --     7 O    0.976    36 H    0.976    35 H    0.972
                            37 H    0.972
     9   6 C    3.882 --    12 C    1.380     6 C    1.211    10 O    1.114
    10   8 O    2.251 --     9 C    1.114    11 C    0.975
    11   6 C    3.926 --    39 H    0.976    10 O    0.975    40 H    0.972
                            38 H    0.972
    12   6 C    3.952 --    13 C    1.415     9 C    1.380    41 H    0.962
    13   6 C    3.935 --    12 C    1.415     4 C    1.396    42 H    0.961
    14   6 C    3.977 --    15 C    1.117    44 H    0.959    43 H    0.944
                             3 C    0.865
    15   6 C    3.221 --    14 C    1.117    16 C    1.058    45 H    0.971
    16   6 C    3.967 --    15 C    1.058    48 H    0.965    46 H    0.957
                            17 N    0.934
    17   7 N    3.055 --    30 C    1.017    18 C    1.017    16 C    0.934
    18   6 C    3.962 --    17 N    1.017    50 H    0.969    49 H    0.965
                            19 C    0.954
    19   6 C    3.968 --    20 C    1.018    52 H    0.970    51 H    0.969
                            18 C    0.954
    20   6 C    3.923 --    21 C    1.385    29 C    1.383    19 C    1.018
    21   6 C    3.923 --    22 C    1.429    20 C    1.385    53 H    0.967
    22   6 C    3.947 --    21 C    1.429    23 C    1.370    54 H    0.962
    23   6 C    3.867 --    22 C    1.370    26 C    1.206    24 O    1.120
    24   8 O    2.248 --    23 C    1.120    25 C    0.974
    25   6 C    3.923 --    57 H    0.976    24 O    0.974    55 H    0.971
                            56 H    0.971
    26   6 C    3.877 --    29 C    1.387    23 C    1.206    27 O    1.113
    27   8 O    2.249 --    26 C    1.113    28 C    0.976
    28   6 C    3.927 --    27 O    0.976    58 H    0.976    59 H    0.972
                            60 H    0.972
    29   6 C    3.947 --    26 C    1.387    20 C    1.383    61 H    0.961
    30   6 C    3.967 --    17 N    1.017    64 H    0.979    63 H    0.970
                            62 H    0.965
    31   6 C    3.965 --    33 C    1.008    32 C    1.002    65 H    0.957
                             3 C    0.948
    32   6 C    3.969 --    31 C    1.002    67 H    0.981    68 H    0.979
                            66 H    0.973
    33   6 C    3.972 --    31 C    1.008    70 H    0.980    71 H    0.978
                            69 H    0.971
    34   1 H    0.995 --     5 C    0.957
    35   1 H    0.991 --     8 C    0.972
    36   1 H    0.992 --     8 C    0.976
    37   1 H    0.991 --     8 C    0.972
    38   1 H    0.990 --    11 C    0.972
    39   1 H    0.992 --    11 C    0.976
    40   1 H    0.990 --    11 C    0.972
    41   1 H    0.994 --    12 C    0.962
    42   1 H    0.996 --    13 C    0.961
    43   1 H    0.975 --    14 C    0.944
    44   1 H    0.986 --    14 C    0.959
    45   1 H    0.997 --    15 C    0.971
    46   1 H    0.972 --    16 C    0.957
    47   1 H    0.970 --     2 C    0.913
    48   1 H    0.992 --    16 C    0.965
    49   1 H    0.991 --    18 C    0.965
    50   1 H    0.994 --    18 C    0.969
    51   1 H    0.994 --    19 C    0.969
    52   1 H    0.995 --    19 C    0.970
    53   1 H    0.996 --    21 C    0.967
    54   1 H    0.994 --    22 C    0.962
    55   1 H    0.989 --    25 C    0.971
    56   1 H    0.988 --    25 C    0.971
    57   1 H    0.992 --    25 C    0.976
    58   1 H    0.992 --    28 C    0.976
    59   1 H    0.990 --    28 C    0.972
    60   1 H    0.990 --    28 C    0.972
    61   1 H    0.995 --    29 C    0.961
    62   1 H    0.980 --    30 C    0.965
    63   1 H    0.992 --    30 C    0.970
    64   1 H    0.996 --    30 C    0.979
    65   1 H    0.988 --    31 C    0.957
    66   1 H    0.989 --    32 C    0.973
    67   1 H    0.996 --    32 C    0.981
    68   1 H    0.992 --    32 C    0.979
    69   1 H    0.989 --    33 C    0.971
    70   1 H    0.995 --    33 C    0.980
    71   1 H    0.991 --    33 C    0.978
    72   1 H    0.964 --     1 N    0.938
 ---------------------------------------------------------------------------

molecular dipole:
                 x           y           z       tot (Debye)
 q only:        0.406       0.117      -0.342
   full:        0.771      -0.154      -0.626       2.555

           -------------------------------------------------
          | TOTAL ENERGY              -99.931683029029 Eh   |
          | GRADIENT NORM               0.003400354458 Eh/α |
          | HOMO-LUMO GAP               0.851423916955 eV   |
           -------------------------------------------------

 * finished run on 2024/04/06 at 11:16:36.930
