   * xtb version 6.6.1 (8d0f1dd) compiled by 'conda@1efc2f54142f' on 2023-08-01
          program call               : xtb xtbopt.xyz --opt crude --input .xc2 --gfn2

   ID    Z sym.   atoms
    1    7 N      1, 17
    2    6 C      2-6, 8, 9, 11-16, 18-23, 25, 26, 28-33
    3    8 O      7, 10, 24, 27
    4    1 H      34-72
########################################################################
[WARNING] Please study the warnings concerning your input carefully
-1- readin_getIntValue: could not parse ''
########################################################################

          :  Hamiltonian                  GFN2-xTB          :
 * total energy  :   -99.3090752 Eh     change       -0.7801759E-11 Eh
 * total energy  :   -99.3696664 Eh     change       -0.6059119E-01 Eh
 * total energy  :   -99.3711348 Eh     change       -0.1468430E-02 Eh
 * total energy  :   -99.3718713 Eh     change       -0.7364702E-03 Eh
 * total energy  :   -99.3719149 Eh     change       -0.4363233E-04 Eh
   *** GEOMETRY OPTIMIZATION CONVERGED AFTER 5 ITERATIONS ***

 final structure:
================
72
 xtb: 6.6.1 (8d0f1dd)
N           -1.63436297397137        2.78992728269351        2.08585697223354
C           -1.73889003693868        1.93686896528217        1.17666595400854
C           -2.95278327217768        1.81011635430613        0.29721562013112
C           -3.48475336960559        0.39158417926506        0.35208030467396
C           -4.39860692604079       -0.05589096494156       -0.60159673543580
C           -4.92186994048625       -1.33884401740275       -0.55636996108789
O           -5.81084848761028       -1.84985939014280       -1.42870011309595
C           -6.34032797829522       -1.02878269973204       -2.44318514242311
C           -4.51523820387818       -2.22589643148633        0.48019748532482
O           -5.06265522756434       -3.45321574796298        0.43838978631113
C           -4.74618710967245       -4.38451700685863        1.44741617704018
C           -3.61726566121188       -1.76767661769530        1.43319285850315
C           -3.11577296807300       -0.47609979545493        1.37198152057618
C           -2.40577450997998        2.12658673596796       -1.15694127748487
C           -1.59113812549436        1.04843308950358       -1.72299070163815
C           -0.11593827690872        1.02046058041681       -1.63843709475541
N            0.38697529890147        0.18428971715462       -0.53746124384409
C            1.79425478082416        0.33815762596576       -0.26451201611398
C            2.74947380944048       -0.18111207949190       -1.36528421097074
C            4.17185526424338       -0.01547760540380       -0.92853435037982
C            4.84713070006852        1.17807534608272       -1.15107442578013
C            6.15475530778171        1.34588610079319       -0.72800549045573
C            6.82069218704445        0.32148053107158       -0.06619313499702
O            8.08506461844772        0.36918357929678        0.38404222190998
C            8.85010965427389        1.53480571049018        0.17858103383012
C            6.13601536410736       -0.90556550458254        0.17198478799728
O            6.85388051690131       -1.84454267571063        0.81380511181783
C            6.27554702869088       -3.10182322756580        1.07404712031526
C            4.82546207903273       -1.04697492877464       -0.25950164279761
C           -0.08606241303799       -1.17961918871385       -0.57817613436934
C           -4.10589527139991        2.78636762963288        0.65089331181982
C           -4.63416910444821        2.51828241380301        2.05925446470214
C           -3.72264275357815        4.25673534178975        0.51450125842089
H           -4.71146849516671        0.61004921905907       -1.38885902149840
H           -6.85085062848705       -0.15569541748990       -2.02589782164752
H           -7.06152436753083       -1.64841681986100       -2.97259767917630
H           -5.56444172298016       -0.70139882543977       -3.14245865178297
H           -5.03684531698160       -4.01799019522252        2.43624487955197
H           -5.32044394294099       -5.27805420675116        1.21049975583784
H           -3.67923862532154       -4.62808164359904        1.44664380190099
H           -3.30576315556069       -2.41058031178749        2.24014671819293
H           -2.44047169116385       -0.14598771392212        2.14556859702805
H           -3.27986546368506        2.30875962804413       -1.78477158634653
H           -1.82500259721077        3.04688476440922       -1.08229572124521
H           -2.08857708642173        0.20890742987143       -2.17910305477795
H            0.28399931365568        0.63851841805020       -2.59319461733887
H           -0.94210095605795        1.23256753321549        0.89783244039386
H            0.27282773358922        2.02845699662916       -1.46734054650086
H            2.01012346159137       -0.19623950543571        0.66521770142096
H            1.99492556646022        1.40007033730627       -0.09698521379801
H            2.57774287129966        0.38417402636744       -2.28243482301714
H            2.53668337484825       -1.23397545360678       -1.55425483515544
H            4.35387951199806        1.98574315227831       -1.67001488741994
H            6.65399286805466        2.28105704934053       -0.92213669720327
H            8.40371869829587        2.39960957996302        0.67846463974197
H            8.97147395175006        1.75050767841105       -0.88703723713737
H            9.82353640153488        1.32618915252980        0.61824174069372
H            7.04900315145335       -3.68124116461108        1.57440827136627
H            5.40596422123477       -3.01395214606926        1.73287645195411
H            5.98490729097178       -3.60845348181474        0.14872920137850
H            4.29991597506960       -1.97353330269525       -0.08895341538007
H            0.16057894949076       -1.68855945196807       -1.51828304046563
H           -1.17015747410047       -1.18126710197945       -0.46070063979868
H            0.35308429575831       -1.73545861104111        0.24799010836653
H           -4.91813893553606        2.57786194402472       -0.05590493006736
H           -3.86715861150992        2.74544691841790        2.79348721142899
H           -4.93943893228289        1.48085839945656        2.17424214626107
H           -5.49547838907661        3.15238295515789        2.25226484567392
H           -2.88238290250507        4.48631018786513        1.16275871773021
H           -3.46960642593061        4.51735628788202       -0.50982495515543
H           -4.56469159393579        4.87465012195198        0.81564254518975
H           -0.76622872505304        2.82531979396851        2.60991212941391

          :  Hamiltonian                  GFN2-xTB          :
         :: total energy             -99.371914927497 Eh    ::
         :: gradient norm              0.001324366584 Eh/a0 ::
         :: HOMO-LUMO gap              0.858648514972 eV    ::
         :: SCC energy              -100.736780710929 Eh    ::
         :: -> dispersion             -0.075429963058 Eh    ::
         :: repulsion energy           1.363598898721 Eh    ::

    * Orbital Energies and Occupations

         #    Occupation            Energy/Eh            Energy/eV
      -------------------------------------------------------------
         1        2.0000           -0.8154605             -22.1898
       ...           ...                  ...                  ...
        78        1.9971           -0.5328661             -14.5000
        79        1.9969           -0.5316004             -14.4656
        80        1.9957           -0.5266448             -14.3307
        81        1.9946           -0.5231061             -14.2344
        82        1.9936           -0.5201605             -14.1543
        83        1.9923           -0.5172626             -14.0754
        84        1.9911           -0.5150852             -14.0162
        85        1.9682           -0.4946836             -13.4610
        86        1.9665           -0.4938484             -13.4383
        87        1.9132           -0.4783203             -13.0158
        88        1.8292           -0.4668954             -12.7049
        89        1.7926           -0.4635052             -12.6126
        90        1.7010           -0.4568810             -12.4324 (HOMO)
        91        0.8735           -0.4253262             -11.5737 (LUMO)
        92        0.0065           -0.3385990              -9.2137
        93        0.0021           -0.3204816              -8.7207
        94        0.0017           -0.3177912              -8.6475
        95        0.0016           -0.3161325              -8.6024
        96        0.0014           -0.3142708              -8.5517
        97        0.0000           -0.1955032              -5.3199
        98        0.0000           -0.1916479              -5.2150
        99                         -0.0940814              -2.5601
       100                         -0.0690908              -1.8801
       101                         -0.0654128              -1.7800
       ...                                ...                  ...
       171                          0.5697953              15.5049
      -------------------------------------------------------------
                  HL-Gap            0.0315548 Eh            0.8586 eV

     #   Z          covCN         q      C6AA      α(0)
     1   7 N        1.774    -0.261    27.610     7.781
     2   6 C        2.828     0.096    25.855     8.332
     3   6 C        3.906     0.015    20.262     6.398
     4   6 C        2.973     0.007    27.871     8.660
     5   6 C        2.919    -0.076    29.897     8.966
     6   6 C        2.862     0.133    25.081     8.209
     7   8 O        1.706    -0.221    17.666     5.675
     8   6 C        3.644     0.026    20.484     6.505
     9   6 C        2.864     0.133    25.085     8.210
    10   8 O        1.706    -0.218    17.621     5.668
    11   6 C        3.645     0.024    20.504     6.508
    12   6 C        2.913    -0.069    29.724     8.940
    13   6 C        2.922    -0.046    29.134     8.851
    14   6 C        3.809    -0.060    21.648     6.623
    15   6 C        2.887    -0.049    29.204     8.860
    16   6 C        3.750     0.001    20.618     6.476
    17   7 N        2.725    -0.128    23.783     7.243
    18   6 C        3.752     0.000    20.639     6.479
    19   6 C        3.806    -0.071    21.847     6.654
    20   6 C        2.968     0.009    27.814     8.651
    21   6 C        2.922    -0.044    29.083     8.844
    22   6 C        2.913    -0.065    29.611     8.923
    23   6 C        2.864     0.136    25.026     8.200
    24   8 O        1.706    -0.213    17.539     5.654
    25   6 C        3.645     0.023    20.526     6.511
    26   6 C        2.862     0.136    25.026     8.200
    27   8 O        1.706    -0.217    17.597     5.664
    28   6 C        3.645     0.025    20.490     6.506
    29   6 C        2.919    -0.076    29.901     8.967
    30   6 C        3.700    -0.044    21.527     6.635
    31   6 C        3.853    -0.007    20.661     6.465
    32   6 C        3.756    -0.117    22.793     6.807
    33   6 C        3.755    -0.121    22.870     6.819
    34   1 H        0.926     0.056     2.249     2.345
    35   1 H        0.924     0.056     2.243     2.342
    36   1 H        0.925     0.084     1.934     2.175
    37   1 H        0.924     0.052     2.293     2.368
    38   1 H        0.924     0.059     2.216     2.328
    39   1 H        0.925     0.085     1.933     2.174
    40   1 H        0.924     0.054     2.268     2.355
    41   1 H        0.926     0.059     2.216     2.328
    42   1 H        0.926     0.049     2.330     2.387
    43   1 H        0.924     0.071     2.070     2.250
    44   1 H        0.924     0.065     2.146     2.291
    45   1 H        0.926     0.049     2.332     2.388
    46   1 H        0.923     0.052     2.292     2.367
    47   1 H        0.923     0.043     2.415     2.430
    48   1 H        0.924     0.056     2.242     2.342
    49   1 H        0.924     0.052     2.289     2.366
    50   1 H        0.924     0.049     2.327     2.385
    51   1 H        0.924     0.051     2.312     2.378
    52   1 H        0.924     0.051     2.307     2.375
    53   1 H        0.926     0.052     2.292     2.368
    54   1 H        0.926     0.062     2.177     2.307
    55   1 H        0.924     0.059     2.215     2.327
    56   1 H        0.924     0.060     2.200     2.319
    57   1 H        0.925     0.085     1.923     2.169
    58   1 H        0.925     0.085     1.933     2.174
    59   1 H        0.924     0.054     2.274     2.358
    60   1 H        0.924     0.057     2.239     2.340
    61   1 H        0.926     0.053     2.279     2.361
    62   1 H        0.924     0.041     2.430     2.438
    63   1 H        0.924     0.054     2.275     2.359
    64   1 H        0.925     0.054     2.267     2.355
    65   1 H        0.924     0.041     2.437     2.441
    66   1 H        0.925     0.068     2.105     2.269
    67   1 H        0.925     0.037     2.493     2.469
    68   1 H        0.925     0.055     2.259     2.350
    69   1 H        0.925     0.069     2.102     2.267
    70   1 H        0.925     0.040     2.455     2.450
    71   1 H        0.925     0.057     2.235     2.338
    72   1 H        0.860     0.161     1.326     1.804

Wiberg/Mayer (AO) data.
largest (>0.10) Wiberg bond orders for each atom

     #   Z sym  total        # sym  WBO       # sym  WBO       # sym  WBO
 ---------------------------------------------------------------------------
     1   7 N    2.997 --     2 C    1.947    72 H    0.938
     2   6 C    3.926 --     1 N    1.947     3 C    0.992    47 H    0.914
     3   6 C    3.895 --     2 C    0.992     4 C    0.980    31 C    0.948
                            14 C    0.866
     4   6 C    3.931 --    13 C    1.396     5 C    1.377     3 C    0.980
     5   6 C    3.953 --     6 C    1.393     4 C    1.377    34 H    0.957
     6   6 C    3.888 --     5 C    1.393     9 C    1.211     7 O    1.109
     7   8 O    2.251 --     6 C    1.109     8 C    0.976
     8   6 C    3.928 --     7 O    0.976    36 H    0.976    35 H    0.972
                            37 H    0.972
     9   6 C    3.882 --    12 C    1.380     6 C    1.211    10 O    1.114
    10   8 O    2.251 --     9 C    1.114    11 C    0.975
    11   6 C    3.926 --    39 H    0.976    10 O    0.975    40 H    0.972
                            38 H    0.972
    12   6 C    3.952 --    13 C    1.415     9 C    1.380    41 H    0.962
    13   6 C    3.935 --    12 C    1.415     4 C    1.396    42 H    0.961
    14   6 C    3.977 --    15 C    1.113    44 H    0.960    43 H    0.945
                             3 C    0.866
    15   6 C    3.226 --    14 C    1.113    16 C    1.066    45 H    0.970
    16   6 C    3.972 --    15 C    1.066    48 H    0.964    17 N    0.957
                            46 H    0.934
    17   7 N    3.079 --    30 C    1.016    18 C    1.015    16 C    0.957
    18   6 C    3.962 --    17 N    1.015    50 H    0.969    49 H    0.965
                            19 C    0.955
    19   6 C    3.968 --    20 C    1.019    52 H    0.970    51 H    0.968
                            18 C    0.955
    20   6 C    3.923 --    21 C    1.385    29 C    1.382    19 C    1.019
    21   6 C    3.923 --    22 C    1.429    20 C    1.385    53 H    0.967
    22   6 C    3.947 --    21 C    1.429    23 C    1.370    54 H    0.962
    23   6 C    3.867 --    22 C    1.370    26 C    1.206    24 O    1.120
    24   8 O    2.248 --    23 C    1.120    25 C    0.974
    25   6 C    3.923 --    57 H    0.976    24 O    0.974    55 H    0.971
                            56 H    0.971
    26   6 C    3.877 --    29 C    1.387    23 C    1.206    27 O    1.114
    27   8 O    2.249 --    26 C    1.114    28 C    0.976
    28   6 C    3.927 --    27 O    0.976    58 H    0.976    59 H    0.972
                            60 H    0.972
    29   6 C    3.948 --    26 C    1.387    20 C    1.382    61 H    0.961
    30   6 C    3.968 --    17 N    1.016    64 H    0.980    63 H    0.971
                            62 H    0.964
    31   6 C    3.965 --    33 C    1.008    32 C    1.002    65 H    0.957
                             3 C    0.948
    32   6 C    3.969 --    31 C    1.002    67 H    0.981    68 H    0.979
                            66 H    0.973
    33   6 C    3.972 --    31 C    1.008    70 H    0.980    71 H    0.978
                            69 H    0.971
    34   1 H    0.995 --     5 C    0.957
    35   1 H    0.991 --     8 C    0.972
    36   1 H    0.992 --     8 C    0.976
    37   1 H    0.991 --     8 C    0.972
    38   1 H    0.990 --    11 C    0.972
    39   1 H    0.992 --    11 C    0.976
    40   1 H    0.990 --    11 C    0.972
    41   1 H    0.994 --    12 C    0.962
    42   1 H    0.996 --    13 C    0.961
    43   1 H    0.976 --    14 C    0.945
    44   1 H    0.987 --    14 C    0.960
    45   1 H    0.997 --    15 C    0.970
    46   1 H    0.960 --    16 C    0.934
    47   1 H    0.970 --     2 C    0.914
    48   1 H    0.991 --    16 C    0.964
    49   1 H    0.991 --    18 C    0.965
    50   1 H    0.995 --    18 C    0.969
    51   1 H    0.994 --    19 C    0.968
    52   1 H    0.995 --    19 C    0.970
    53   1 H    0.996 --    21 C    0.967
    54   1 H    0.994 --    22 C    0.962
    55   1 H    0.989 --    25 C    0.971
    56   1 H    0.988 --    25 C    0.971
    57   1 H    0.992 --    25 C    0.976
    58   1 H    0.992 --    28 C    0.976
    59   1 H    0.990 --    28 C    0.972
    60   1 H    0.990 --    28 C    0.972
    61   1 H    0.995 --    29 C    0.961
    62   1 H    0.980 --    30 C    0.964
    63   1 H    0.992 --    30 C    0.971
    64   1 H    0.996 --    30 C    0.980
    65   1 H    0.988 --    31 C    0.957
    66   1 H    0.989 --    32 C    0.973
    67   1 H    0.996 --    32 C    0.981
    68   1 H    0.992 --    32 C    0.979
    69   1 H    0.989 --    33 C    0.971
    70   1 H    0.995 --    33 C    0.980
    71   1 H    0.991 --    33 C    0.978
    72   1 H    0.964 --     1 N    0.938
 ---------------------------------------------------------------------------

molecular dipole:
                 x           y           z       tot (Debye)
 q only:        0.406       0.111      -0.290
   full:        0.771      -0.150      -0.589       2.496

           -------------------------------------------------
          | TOTAL ENERGY              -99.371914927497 Eh   |
          | GRADIENT NORM               0.001324366584 Eh/α |
          | HOMO-LUMO GAP               0.858648514972 eV   |
           -------------------------------------------------

 * finished run on 2024/04/06 at 11:16:38.053
