   * xtb version 6.6.1 (8d0f1dd) compiled by 'conda@1efc2f54142f' on 2023-08-01
          program call               : xtb struc.xyz --opt loose --input .xc1 --gfn2

   ID    Z sym.   atoms
    1    7 N      1, 17
    2    6 C      2-6, 8, 9, 11-16, 18-23, 25, 26, 28-33
    3    8 O      7, 10, 24, 27
    4    1 H      34-72
constraining bond 20 23 to    6.0000000 Å, actual value:    2.7969363 Å

          :  Hamiltonian                  GFN2-xTB          :
 * total energy  :   -97.5722434 Eh     change       -0.4035485E-08 Eh
 * total energy  :   -97.9465946 Eh     change       -0.3743513E+00 Eh
 * total energy  :   -98.1572086 Eh     change       -0.2106139E+00 Eh
 * total energy  :   -98.2734036 Eh     change       -0.1161950E+00 Eh
 * total energy  :   -98.3469465 Eh     change       -0.7354292E-01 Eh
 * total energy  :   -98.4035341 Eh     change       -0.5658764E-01 Eh
 * total energy  :   -98.4592926 Eh     change       -0.5575850E-01 Eh
 * total energy  :   -98.5239142 Eh     change       -0.6462161E-01 Eh
 * total energy  :   -98.5876749 Eh     change       -0.6376062E-01 Eh
 * total energy  :   -98.6506302 Eh     change       -0.6295537E-01 Eh
 * total energy  :   -99.2221412 Eh     change       -0.3119725E-03 Eh
 * total energy  :   -99.2224297 Eh     change       -0.2884612E-03 Eh
 * total energy  :   -99.2226946 Eh     change       -0.2648490E-03 Eh
 * total energy  :   -99.2227865 Eh     change       -0.9194817E-04 Eh
 * total energy  :   -99.2228605 Eh     change       -0.7394807E-04 Eh
 * total energy  :   -99.2229413 Eh     change       -0.8088938E-04 Eh
 * total energy  :   -99.2230376 Eh     change       -0.9627954E-04 Eh
 * total energy  :   -99.2230966 Eh     change       -0.5897683E-04 Eh
 * total energy  :   -99.2231321 Eh     change       -0.3550828E-04 Eh
   *** GEOMETRY OPTIMIZATION CONVERGED AFTER 44 ITERATIONS ***

 final structure:
================
72
 xtb: 6.6.1 (8d0f1dd)
N           -1.94999484672348        2.91701174769086        2.17626357156840
C           -1.94683814937643        2.16046136244525        1.18218200344903
C           -3.12134797938428        1.94985810382509        0.26601857031023
C           -3.57651712063685        0.50198951233394        0.34875742160106
C           -4.48978997858187        0.00809362141359       -0.58519715341966
C           -4.94408788938156       -1.29873822637745       -0.53245519334957
O           -5.82633814950253       -1.85194791917927       -1.39189090029588
C           -6.43698406429710       -1.04047107907664       -2.36716000823354
C           -4.46828720623166       -2.16401808339882        0.48885562254885
O           -4.95525306590655       -3.42167930199302        0.45774193429301
C           -4.60195743285480       -4.31725368110200        1.48557734512511
C           -3.56894474870588       -1.66557764694244        1.41751394585680
C           -3.13188693638603       -0.34819833832188        1.34873675772310
C           -2.60405407357142        2.27123804459556       -1.16181936630120
C           -1.72281790463208        1.17682767185936       -1.79256106171152
C           -0.38075580837383        1.06879740772614       -1.17994537929636
N            0.21390059031269       -0.05882474555693       -0.81749540679959
C            1.60111311279314       -0.05793418433486       -0.42096424215014
C            2.52328900075107       -0.58697782706233       -1.54257792220266
C            3.94497811514171       -0.35713671124226       -1.16620240564962
C            4.67166931397602        0.83520438284995       -1.42396143805734
C            5.93805799055345        0.70236806611304       -0.88940424775123
C            8.90695398596497       -0.32450585864583        2.19948774428780
O            9.67011597054427        0.08671502279459        1.35552158637379
C            9.73449844282899        1.26756677126063        0.54054720179396
C            6.01429906495738       -0.58014196554966       -0.28171633667089
O            7.13222098536476       -1.02473760452971        0.32102144859910
C            7.08396899192035       -2.32076801794050        0.88307407217487
C            4.77253020887095       -1.22387158980800       -0.45211303535904
C           -0.44821711434414       -1.33854267765230       -0.89179356132737
C           -4.34021626860644        2.85917015115707        0.60255413746068
C           -4.91290709633375        2.53843930983190        1.98119409822285
C           -4.02300897168721        4.34916168208510        0.50990213660368
H           -4.85982237376797        0.66191834165335       -1.35739521459926
H           -6.97631212699676       -0.20412878968034       -1.91233225100427
H           -7.14434511971218       -1.68675154950955       -2.88301155562229
H           -5.70740296499927       -0.65775053371168       -3.08857799304208
H           -4.89139533531583       -3.93413413776234        2.46855407953375
H           -5.15377617148082       -5.23194175186625        1.27809740036329
H           -3.52854494859762       -4.53312844250603        1.47896883689863
H           -3.20621627950913       -2.29323369142829        2.21519465382101
H           -2.45437259947754        0.01213681193801        2.10726213567474
H           -3.46046163070244        2.43068873896874       -1.81618441740873
H           -2.04017195290030        3.20434111187857       -1.12611991782446
H           -2.24917542080369        0.22442416952008       -1.77488029847049
H           -1.57894426735640        1.46109059554442       -2.84316910796588
H           -1.05763379271753        1.59865566289545        0.83989375502369
H            0.21551845537196        1.96771437711839       -1.12739938120887
H            1.72339612227420       -0.67923235709516        0.46986097713976
H            1.90542664449050        0.96074531770958       -0.17420639960286
H            2.29365822202597       -0.04668397787353       -2.46341404077723
H            2.33717844137869       -1.64967617616836       -1.70275290757462
H            4.29616411538394        1.68537778177688       -1.96149603875129
H            6.73308925488254        1.42057357069902       -0.92406854742338
H            9.00532650521046        2.00265234929674        0.88269510868841
H            9.52355508230651        0.96205278064987       -0.48458396128176
H           10.74881023824875        1.65748071640993        0.61513332563413
H            8.06245114536727       -2.49706157772896        1.32704036625929
H            6.32144993176051       -2.37731515403106        1.66339269468089
H            6.88011061937649       -3.07123826724165        0.11460194277901
H            4.50711922931549       -2.20727925556129       -0.11461707216660
H           -0.64299942633495       -1.62472031634878       -1.92768675293454
H           -1.39683006023233       -1.31007529391875       -0.35011612244056
H            0.18698590119787       -2.09509748445936       -0.43820985539385
H           -5.11112320629794        2.62922719053554       -0.14220050743406
H           -4.18862865596243        2.78342848443082        2.75124381008713
H           -5.17482516496951        1.48634124207749        2.06329574510664
H           -5.81020623769818        3.12827249416814        2.14887794664202
H           -3.22807627458094        4.60840280592151        1.20208428874676
H           -3.73366260785591        4.64145824039189       -0.49602079723585
H           -4.90821833891665        4.91882551674444        0.78046217873519
H           -1.08797032282940        3.00620257965671        2.70535679767937

          :  Hamiltonian                  GFN2-xTB          :
         :: total energy             -99.223132109800 Eh    ::
         :: gradient norm              0.002303388918 Eh/a0 ::
         :: HOMO-LUMO gap              0.596088138017 eV    ::
         :: SCC energy              -100.585556502338 Eh    ::
         :: -> dispersion             -0.073802721434 Eh    ::
         :: repulsion energy           1.361083877166 Eh    ::

    * Orbital Energies and Occupations

         #    Occupation            Energy/Eh            Energy/eV
      -------------------------------------------------------------
         1        2.0000           -0.8654323             -23.5496
       ...           ...                  ...                  ...
        78        1.9984           -0.5233471             -14.2410
        79        1.9983           -0.5229164             -14.2293
        80        1.9977           -0.5179905             -14.0952
        81        1.9977           -0.5174335             -14.0801
        82        1.9976           -0.5171625             -14.0727
        83        1.9962           -0.5098498             -13.8737
        84        1.9956           -0.5072842             -13.8039
        85        1.9948           -0.5047053             -13.7337
        86        1.9826           -0.4855387             -13.2122
        87        1.9393           -0.4654072             -12.6644
        88        1.8846           -0.4547652             -12.3748
        89        1.7943           -0.4448391             -12.1047
        90        1.3125           -0.4207838             -11.4501 (HOMO)
        91        0.6474           -0.3988780             -10.8540 (LUMO)
        92        0.3732           -0.3872337             -10.5372
        93        0.0764           -0.3594540              -9.7812
        94        0.0146           -0.3327972              -9.0559
        95        0.0039           -0.3117327              -8.4827
        96        0.0032           -0.3084321              -8.3929
        97        0.0000           -0.2363286              -6.4308
        98        0.0000           -0.2235517              -6.0832
        99        0.0000           -0.1858724              -5.0578
       100                         -0.1261600              -3.4330
       101                         -0.0990365              -2.6949
       ...                                ...                  ...
       171                          0.5773906              15.7116
      -------------------------------------------------------------
                  HL-Gap            0.0219058 Eh            0.5961 eV

     #   Z          covCN         q      C6AA      α(0)
     1   7 N        1.774    -0.271    27.858     7.816
     2   6 C        2.827     0.101    25.747     8.315
     3   6 C        3.907     0.006    20.416     6.422
     4   6 C        2.974     0.001    27.997     8.679
     5   6 C        2.921    -0.081    30.020     8.985
     6   6 C        2.862     0.128    25.190     8.227
     7   8 O        1.706    -0.233    17.857     5.705
     8   6 C        3.644     0.028    20.433     6.497
     9   6 C        2.864     0.127    25.208     8.230
    10   8 O        1.706    -0.231    17.832     5.701
    11   6 C        3.645     0.028    20.444     6.498
    12   6 C        2.914    -0.075    29.874     8.963
    13   6 C        2.921    -0.053    29.323     8.880
    14   6 C        3.812    -0.064    21.715     6.633
    15   6 C        3.802    -0.069    21.825     6.651
    16   6 C        2.844     0.008    27.838     8.647
    17   7 N        2.729     0.015    20.986     6.804
    18   6 C        3.758    -0.017    20.925     6.522
    19   6 C        3.803    -0.064    21.733     6.637
    20   6 C        3.096    -0.011    28.182     8.700
    21   6 C        3.037    -0.059    29.422     8.897
    22   6 C        3.017    -0.074    29.825     8.958
    23   6 C        0.865    -0.047    36.539    10.091
    24   8 O        1.703     0.007    14.396     5.123
    25   6 C        3.630    -0.000    20.995     6.598
    26   6 C        3.007     0.136    25.008     8.203
    27   8 O        1.704    -0.241    17.991     5.727
    28   6 C        3.653     0.026    20.433     6.491
    29   6 C        3.014    -0.096    30.399     9.044
    30   6 C        3.700    -0.070    22.016     6.710
    31   6 C        3.853    -0.007    20.670     6.466
    32   6 C        3.756    -0.118    22.816     6.811
    33   6 C        3.755    -0.119    22.834     6.813
    34   1 H        0.926     0.051     2.306     2.375
    35   1 H        0.924     0.053     2.284     2.363
    36   1 H        0.925     0.080     1.979     2.200
    37   1 H        0.924     0.046     2.371     2.408
    38   1 H        0.924     0.054     2.269     2.356
    39   1 H        0.925     0.080     1.979     2.200
    40   1 H        0.924     0.047     2.355     2.400
    41   1 H        0.926     0.051     2.303     2.373
    42   1 H        0.926     0.039     2.461     2.453
    43   1 H        0.925     0.060     2.198     2.319
    44   1 H        0.924     0.053     2.279     2.361
    45   1 H        0.925     0.066     2.129     2.282
    46   1 H        0.924     0.079     1.991     2.206
    47   1 H        0.922     0.004     2.992     2.705
    48   1 H        0.926     0.070     2.085     2.258
    49   1 H        0.924     0.068     2.107     2.270
    50   1 H        0.924     0.068     2.108     2.270
    51   1 H        0.924     0.051     2.302     2.373
    52   1 H        0.924     0.052     2.295     2.369
    53   1 H        0.926     0.032     2.564     2.504
    54   1 H        0.926     0.033     2.548     2.496
    55   1 H        0.924     0.091     1.871     2.139
    56   1 H        0.924     0.105     1.736     2.061
    57   1 H        0.925     0.102     1.766     2.078
    58   1 H        0.925     0.076     2.021     2.223
    59   1 H        0.924     0.060     2.202     2.321
    60   1 H        0.924     0.057     2.229     2.335
    61   1 H        0.926     0.029     2.606     2.525
    62   1 H        0.924     0.076     2.016     2.221
    63   1 H        0.924     0.079     1.987     2.204
    64   1 H        0.925     0.081     1.965     2.192
    65   1 H        0.924     0.036     2.503     2.474
    66   1 H        0.925     0.068     2.110     2.272
    67   1 H        0.925     0.035     2.520     2.482
    68   1 H        0.925     0.050     2.321     2.383
    69   1 H        0.925     0.062     2.180     2.309
    70   1 H        0.925     0.034     2.527     2.486
    71   1 H        0.925     0.053     2.277     2.360
    72   1 H        0.860     0.155     1.365     1.830

Wiberg/Mayer (AO) data.
largest (>0.10) Wiberg bond orders for each atom

     #   Z sym  total        # sym  WBO       # sym  WBO       # sym  WBO
 ---------------------------------------------------------------------------
     1   7 N    3.035 --     2 C    1.955    72 H    0.942
     2   6 C    3.932 --     1 N    1.955     3 C    0.994    47 H    0.907
     3   6 C    3.977 --     2 C    0.994     4 C    0.972    14 C    0.956
                            31 C    0.943
     4   6 C    3.952 --    13 C    1.416     5 C    1.367     3 C    0.972
     5   6 C    3.964 --     6 C    1.403     4 C    1.367    34 H    0.958
     6   6 C    3.908 --     5 C    1.403     9 C    1.225     7 O    1.096
     7   8 O    2.253 --     6 C    1.096     8 C    0.979
     8   6 C    3.933 --     7 O    0.979    36 H    0.977    35 H    0.974
                            37 H    0.974
     9   6 C    3.905 --    12 C    1.394     6 C    1.225    10 O    1.098
    10   8 O    2.252 --     9 C    1.098    11 C    0.978
    11   6 C    3.932 --    10 O    0.978    39 H    0.977    40 H    0.974
                            38 H    0.974
    12   6 C    3.964 --    13 C    1.401     9 C    1.394    41 H    0.964
    13   6 C    3.957 --     4 C    1.416    12 C    1.401    42 H    0.963
    14   6 C    3.972 --    15 C    0.980    44 H    0.973    43 H    0.968
                             3 C    0.956
    15   6 C    3.987 --    16 C    1.060    14 C    0.980    45 H    0.961
                            46 H    0.929
    16   6 C    3.601 --    17 N    1.414    15 C    1.060    48 H    0.957
    17   7 N    3.489 --    16 C    1.414    30 C    0.998    18 C    0.988
    18   6 C    3.941 --    17 N    0.988    50 H    0.968    49 H    0.963
                            19 C    0.956
    19   6 C    3.975 --    20 C    1.022    52 H    0.971    51 H    0.970
                            18 C    0.956
    20   6 C    3.731 --    29 C    1.393    21 C    1.241    19 C    1.022
    21   6 C    3.768 --    22 C    1.474    20 C    1.241    53 H    0.973
    22   6 C    3.773 --    21 C    1.474    26 C    1.218    54 H    0.973
    23   6 C    1.909 --    24 O    1.778
    24   8 O    2.651 --    23 C    1.778    25 C    0.863
    25   6 C    3.821 --    55 H    0.972    57 H    0.968    56 H    0.962
                            24 O    0.863
    26   6 C    3.667 --    29 C    1.277    22 C    1.218    27 O    1.103
    27   8 O    2.189 --    26 C    1.103    28 C    0.972
    28   6 C    3.927 --    59 H    0.973    60 H    0.973    27 O    0.972
                            58 H    0.972
    29   6 C    3.792 --    20 C    1.393    26 C    1.277    61 H    0.972
    30   6 C    3.957 --    17 N    0.998    64 H    0.977    62 H    0.966
                            63 H    0.961
    31   6 C    3.974 --    33 C    1.009    32 C    1.008    65 H    0.961
                             3 C    0.943
    32   6 C    3.980 --    31 C    1.008    67 H    0.982    68 H    0.982
                            66 H    0.975
    33   6 C    3.983 --    31 C    1.009    70 H    0.983    71 H    0.980
                            69 H    0.976
    34   1 H    0.996 --     5 C    0.958
    35   1 H    0.994 --     8 C    0.974
    36   1 H    0.993 --     8 C    0.977
    37   1 H    0.994 --     8 C    0.974
    38   1 H    0.993 --    11 C    0.974
    39   1 H    0.993 --    11 C    0.977
    40   1 H    0.994 --    11 C    0.974
    41   1 H    0.996 --    12 C    0.964
    42   1 H    0.998 --    13 C    0.963
    43   1 H    0.995 --    14 C    0.968
    44   1 H    0.996 --    14 C    0.973
    45   1 H    0.995 --    15 C    0.961
    46   1 H    0.971 --    15 C    0.929
    47   1 H    0.987 --     2 C    0.907
    48   1 H    0.995 --    16 C    0.957
    49   1 H    0.990 --    18 C    0.963
    50   1 H    0.995 --    18 C    0.968
    51   1 H    0.993 --    19 C    0.970
    52   1 H    0.994 --    19 C    0.971
    53   1 H    0.998 --    21 C    0.973
    54   1 H    0.998 --    22 C    0.973
    55   1 H    0.982 --    25 C    0.972
    56   1 H    0.987 --    25 C    0.962
    57   1 H    0.988 --    25 C    0.968
    58   1 H    0.994 --    28 C    0.972
    59   1 H    0.988 --    28 C    0.973
    60   1 H    0.988 --    28 C    0.973
    61   1 H    0.999 --    29 C    0.972
    62   1 H    0.985 --    30 C    0.966
    63   1 H    0.987 --    30 C    0.961
    64   1 H    0.993 --    30 C    0.977
    65   1 H    0.993 --    31 C    0.961
    66   1 H    0.992 --    32 C    0.975
    67   1 H    0.997 --    32 C    0.982
    68   1 H    0.994 --    32 C    0.982
    69   1 H    0.993 --    33 C    0.976
    70   1 H    0.997 --    33 C    0.983
    71   1 H    0.994 --    33 C    0.980
    72   1 H    0.971 --     1 N    0.942
 ---------------------------------------------------------------------------

molecular dipole:
                 x           y           z       tot (Debye)
 q only:        2.523       0.186      -0.561
   full:        3.045       0.210      -0.954       8.128

           -------------------------------------------------
          | TOTAL ENERGY              -99.223132109800 Eh   |
          | GRADIENT NORM               0.002303388918 Eh/α |
          | HOMO-LUMO GAP               0.596088138017 eV   |
           -------------------------------------------------

 * finished run on 2024/04/06 at 11:13:53.379
