   * xtb version 6.6.1 (8d0f1dd) compiled by 'conda@1efc2f54142f' on 2023-08-01
          program call               : xtb struc.xyz --opt loose --input .xc1 --gfn2

   ID    Z sym.   atoms
    1    7 N      1, 17
    2    6 C      2-6, 8, 9, 11-16, 18-23, 25, 26, 28-33
    3    8 O      7, 10, 24, 27
    4    1 H      34-72
constraining bond 27 61 to    3.6333300 Å, actual value:    2.7126473 Å

          :  Hamiltonian                  GFN2-xTB          :
 * total energy  :   -99.5554827 Eh     change       -0.4035485E-08 Eh
 * total energy  :   -99.8046575 Eh     change       -0.2491748E+00 Eh
 * total energy  :  -100.1080909 Eh     change       -0.3034334E+00 Eh
 * total energy  :  -100.4827524 Eh     change       -0.3746615E+00 Eh
 * total energy  :   -99.5645329 Eh     change        0.9182194E+00 Eh
 * total energy  :  -100.5249228 Eh     change       -0.9603899E+00 Eh
 * total energy  :  -100.5505621 Eh     change       -0.2563930E-01 Eh
 * total energy  :  -100.5835107 Eh     change       -0.3294860E-01 Eh
 * total energy  :  -100.6011406 Eh     change       -0.1762986E-01 Eh
 * total energy  :  -100.6241112 Eh     change       -0.2297062E-01 Eh
 * total energy  :  -100.6684720 Eh     change        0.1472313E-01 Eh
 * total energy  :  -100.6847860 Eh     change       -0.1631400E-01 Eh
 * total energy  :  -100.6852275 Eh     change       -0.4414766E-03 Eh
 * total energy  :  -100.6855934 Eh     change       -0.3659170E-03 Eh
 * total energy  :  -100.6856591 Eh     change       -0.6566259E-04 Eh
 * total energy  :  -100.6857227 Eh     change       -0.6360109E-04 Eh
 * total energy  :  -100.6857550 Eh     change       -0.3228377E-04 Eh
 * total energy  :  -100.6857829 Eh     change       -0.2791381E-04 Eh
 * total energy  :  -100.6858058 Eh     change       -0.2288644E-04 Eh
   *** GEOMETRY OPTIMIZATION CONVERGED AFTER 61 ITERATIONS ***

 final structure:
================
72
 xtb: 6.6.1 (8d0f1dd)
N           -1.99048390190780        2.96879989141776        2.20452714744441
C           -1.96027595674271        2.22036951579080        1.20234446135538
C           -3.12438043806972        1.97593163200394        0.28229080052978
C           -3.50801069469008        0.50524402296528        0.33249265171194
C           -4.39905731659241       -0.01352368955897       -0.60980452218210
C           -4.80186915689176       -1.33707678775717       -0.57319083101023
O           -5.66374488353702       -1.91456914731524       -1.44209831534618
C           -6.29712444732578       -1.11382986294059       -2.41062547363568
C           -4.29770793800753       -2.19357610935543        0.43888004075696
O           -4.74490684493172       -3.46981733435979        0.39943875375485
C           -4.37353738185079       -4.35063482613589        1.43220336078488
C           -3.41504887879910       -1.67454480604274        1.37058193305824
C           -3.02786747875440       -0.34063666864383        1.31805349458993
C           -2.62631934759722        2.35686093772944       -1.13748897086218
C           -1.67283943122679        1.33521851371618       -1.78315241484857
C           -0.32505120418832        1.31818005712144       -1.17245602758382
N            0.36228133774005        0.22217688999382       -0.85734431694637
C            1.73193970129925        0.31691135201395       -0.41449300576167
C            2.73117360717639       -0.00320114401648       -1.53782823687201
C            4.12972465732429       -0.02005439810137       -0.98267662320749
C            5.08437201328331        0.88418861779721       -1.42210473685815
C            6.38009564032363        0.88583456059388       -0.92043012090451
C            6.75106079667966       -0.03077921150430        0.05337033358584
O            7.97796836974304       -0.15582520126534        0.63164661207715
C            8.98288522628864        0.76931186503457        0.27108464993191
C            5.74263937431095       -0.91077140823190        0.45939086673734
O            6.07188645160444       -1.90261799033128        1.54362382189608
C            7.02239829291851       -2.92545856522880        1.15052095882708
C            4.45819760064861       -0.95913367152177        0.00268948309943
C           -0.19744550801937       -1.09933699053342       -1.00421387246824
C           -4.38670145429316        2.81446650231910        0.63887444125073
C           -4.94032482413976        2.43466793056120        2.01044895991556
C           -4.14516264388384        4.32063491982700        0.58071157997694
H           -4.79429831426273        0.63506899718800       -1.37387391572491
H           -6.87046243724973       -0.30363771364082       -1.94962554345886
H           -6.97676373195106       -1.77888076649482       -2.93993883912472
H           -5.57757115657952       -0.69463835133028       -3.12200232801525
H           -4.68691524276815       -3.97599556127092        2.41149248460035
H           -4.89178822179072       -5.28399658123179        1.22088485500225
H           -3.29332985540403       -4.53083777465285        1.43923510048058
H           -3.02868213207916       -2.29725009822563        2.16121424144207
H           -2.36408180406912        0.03487335117192        2.08148031604774
H           -3.49091198666825        2.47069253344888       -1.79106532703628
H           -2.12555057244499        3.32438693597671       -1.08336998770038
H           -2.13061774969119        0.34782758054241       -1.76544788193296
H           -1.55969431639338        1.63255049637968       -2.83429958611426
H           -1.05186029387335        1.69299282912441        0.85774661259385
H            0.19718829817674        2.25834594402132       -1.08127796945763
H            1.89676728628187       -0.38793557799858        0.40540649153462
H            1.92376231804348        1.32582091308377       -0.04348101217189
H            2.64269013211102        0.74019541425942       -2.33105782444218
H            2.49589150677519       -0.98427451048355       -1.95616806544219
H            4.82847190026304        1.60827528024194       -2.18293995337999
H            7.09050425369442        1.60415426762271       -1.29477155583997
H            8.67517216823881        1.79410848370026        0.49212836790074
H            9.23962721409823        0.68177809120328       -0.78798751892996
H            9.84883892507337        0.51189445612174        0.87764929189087
H            7.96668555769990       -2.43062201735125        0.92652426369714
H            7.14872637759110       -3.60057820000705        1.99699175634940
H            6.66725621846104       -3.47192242498283        0.27609440199929
H            5.42608184586502       -2.19991303984450        1.73224147768362
H           -0.41728095347972       -1.32191896962372       -2.05045498720545
H           -1.12050434125910       -1.19078675712554       -0.42551084956040
H            0.51784395395876       -1.83083455706304       -0.63757548544424
H           -5.14644545951704        2.56317461451413       -0.11057189611789
H           -4.22257075292361        2.68820473927924        2.78374865891618
H           -5.15877910202720        1.37083298344262        2.06466242269018
H           -5.86016434584740        2.98282341536277        2.19697171101536
H           -3.36624186302203        4.60259557268360        1.28191576302062
H           -3.86693352115371        4.64896875730482       -0.41722204714408
H           -5.05904089370803        4.83917386594411        0.85884928061498
H           -1.12726664910838        3.07601350523264        2.72940303633916

          :  Hamiltonian                  GFN2-xTB          :
         :: total energy            -100.685805753381 Eh    ::
         :: gradient norm              0.002954675511 Eh/a0 ::
         :: HOMO-LUMO gap              1.242701689804 eV    ::
         :: SCC energy              -100.668959495731 Eh    ::
         :: -> dispersion             -0.075422373110 Eh    ::
         :: repulsion energy           1.481236878908 Eh    ::

    * Orbital Energies and Occupations

         #    Occupation            Energy/Eh            Energy/eV
      -------------------------------------------------------------
         1        2.0000           -0.9001857             -24.4953
       ...           ...                  ...                  ...
        78        1.9994           -0.5193206             -14.1314
        79        1.9991           -0.5133590             -13.9692
        80        1.9990           -0.5122163             -13.9381
        81        1.9985           -0.5059934             -13.7688
        82        1.9976           -0.4988145             -13.5734
        83        1.9972           -0.4963204             -13.5056
        84        1.9967           -0.4934151             -13.4265
        85        1.9958           -0.4895682             -13.3218
        86        1.9882           -0.4732410             -12.8775
        87        1.9765           -0.4623381             -12.5809
        88        1.9578           -0.4529051             -12.3242
        89        1.9229           -0.4430516             -12.0560
        90        1.6781           -0.4182730             -11.3818 (HOMO)
        91        0.4513           -0.3726046             -10.1391 (LUMO)
        92        0.0204           -0.3197216              -8.7001
        93        0.0109           -0.3096697              -8.4265
        94        0.0056           -0.2992303              -8.1425
        95        0.0045           -0.2955503              -8.0423
        96        0.0044           -0.2953782              -8.0376
        97        0.0000           -0.2035225              -5.5381
        98        0.0000           -0.1759479              -4.7878
        99        0.0000           -0.1729441              -4.7060
       100                         -0.1152752              -3.1368
       101                         -0.0971192              -2.6427
       ...                                ...                  ...
       171                          0.7088567              19.2890
      -------------------------------------------------------------
                  HL-Gap            0.0456684 Eh            1.2427 eV

     #   Z          covCN         q      C6AA      α(0)
     1   7 N        1.773    -0.281    28.113     7.851
     2   6 C        2.827     0.100    25.766     8.318
     3   6 C        3.907     0.006    20.422     6.423
     4   6 C        2.975     0.000    28.023     8.683
     5   6 C        2.921    -0.081    30.023     8.985
     6   6 C        2.863     0.126    25.231     8.233
     7   8 O        1.706    -0.239    17.964     5.722
     8   6 C        3.644     0.031    20.395     6.491
     9   6 C        2.865     0.125    25.260     8.238
    10   8 O        1.706    -0.239    17.956     5.721
    11   6 C        3.645     0.030    20.394     6.490
    12   6 C        2.914    -0.076    29.899     8.966
    13   6 C        2.922    -0.054    29.354     8.885
    14   6 C        3.812    -0.063    21.697     6.630
    15   6 C        3.802    -0.068    21.796     6.647
    16   6 C        2.843     0.000    28.018     8.675
    17   7 N        2.729     0.005    21.178     6.835
    18   6 C        3.756    -0.016    20.922     6.522
    19   6 C        3.808    -0.068    21.798     6.646
    20   6 C        2.989     0.008    27.831     8.654
    21   6 C        2.919    -0.045    29.110     8.848
    22   6 C        2.928    -0.073    29.810     8.954
    23   6 C        2.856     0.126    25.229     8.233
    24   8 O        1.704    -0.278    18.609     5.824
    25   6 C        3.644     0.032    20.381     6.489
    26   6 C        2.865     0.050    26.867     8.496
    27   8 O        2.487    -0.134    16.297     5.452
    28   6 C        3.624    -0.021    21.397     6.666
    29   6 C        1.985    -0.234    37.981     9.953
    30   6 C        3.699    -0.068    21.973     6.704
    31   6 C        3.853    -0.007    20.670     6.466
    32   6 C        3.756    -0.117    22.792     6.807
    33   6 C        3.755    -0.118    22.815     6.811
    34   1 H        0.926     0.048     2.340     2.392
    35   1 H        0.924     0.050     2.320     2.382
    36   1 H        0.925     0.076     2.018     2.221
    37   1 H        0.924     0.043     2.407     2.426
    38   1 H        0.924     0.050     2.316     2.380
    39   1 H        0.925     0.076     2.022     2.224
    40   1 H        0.924     0.043     2.410     2.428
    41   1 H        0.926     0.046     2.369     2.407
    42   1 H        0.926     0.035     2.511     2.478
    43   1 H        0.925     0.056     2.242     2.342
    44   1 H        0.924     0.051     2.312     2.378
    45   1 H        0.925     0.064     2.156     2.296
    46   1 H        0.923     0.072     2.065     2.247
    47   1 H        0.922     0.001     3.037     2.726
    48   1 H        0.926     0.063     2.167     2.302
    49   1 H        0.924     0.073     2.055     2.242
    50   1 H        0.924     0.060     2.202     2.320
    51   1 H        0.924     0.042     2.423     2.434
    52   1 H        0.924     0.055     2.261     2.351
    53   1 H        0.926     0.039     2.460     2.453
    54   1 H        0.926     0.047     2.352     2.398
    55   1 H        0.924     0.051     2.308     2.376
    56   1 H        0.924     0.049     2.332     2.388
    57   1 H        0.925     0.069     2.101     2.267
    58   1 H        0.925     0.130     1.537     1.939
    59   1 H        0.925     0.100     1.782     2.088
    60   1 H        0.924     0.094     1.838     2.120
    61   1 H        0.811     0.360     0.564     1.179
    62   1 H        0.924     0.072     2.068     2.249
    63   1 H        0.924     0.075     2.028     2.227
    64   1 H        0.925     0.079     1.988     2.205
    65   1 H        0.924     0.033     2.543     2.494
    66   1 H        0.925     0.065     2.140     2.287
    67   1 H        0.925     0.033     2.543     2.494
    68   1 H        0.925     0.047     2.362     2.403
    69   1 H        0.925     0.061     2.188     2.313
    70   1 H        0.925     0.032     2.556     2.500
    71   1 H        0.925     0.050     2.319     2.382
    72   1 H        0.860     0.149     1.410     1.860

Wiberg/Mayer (AO) data.
largest (>0.10) Wiberg bond orders for each atom

     #   Z sym  total        # sym  WBO       # sym  WBO       # sym  WBO
 ---------------------------------------------------------------------------
     1   7 N    3.028 --     2 C    1.946    72 H    0.945
     2   6 C    3.926 --     1 N    1.946     3 C    0.996    47 H    0.909
     3   6 C    3.980 --     2 C    0.996     4 C    0.971    14 C    0.956
                            31 C    0.946
     4   6 C    3.960 --    13 C    1.423     5 C    1.366     3 C    0.971
     5   6 C    3.968 --     6 C    1.407     4 C    1.366    34 H    0.958
     6   6 C    3.915 --     5 C    1.407     9 C    1.234     7 O    1.087
     7   8 O    2.251 --     6 C    1.087     8 C    0.981
     8   6 C    3.937 --     7 O    0.981    36 H    0.977    35 H    0.975
                            37 H    0.975
     9   6 C    3.913 --    12 C    1.400     6 C    1.234    10 O    1.087
    10   8 O    2.248 --     9 C    1.087    11 C    0.981
    11   6 C    3.937 --    10 O    0.981    39 H    0.978    40 H    0.975
                            38 H    0.975
    12   6 C    3.969 --     9 C    1.400    13 C    1.399    41 H    0.965
    13   6 C    3.965 --     4 C    1.423    12 C    1.399    42 H    0.963
    14   6 C    3.973 --    15 C    0.982    44 H    0.973    43 H    0.969
                             3 C    0.956
    15   6 C    3.989 --    16 C    1.058    14 C    0.982    45 H    0.961
                            46 H    0.932
    16   6 C    3.551 --    17 N    1.381    15 C    1.058    48 H    0.959
    17   7 N    3.453 --    16 C    1.381    30 C    1.000    18 C    0.988
    18   6 C    3.956 --    17 N    0.988    19 C    0.971    50 H    0.969
                            49 H    0.960
    19   6 C    3.972 --    20 C    1.002    51 H    0.976    18 C    0.971
                            52 H    0.964
    20   6 C    3.943 --    21 C    1.433    29 C    1.324    19 C    1.002
    21   6 C    3.950 --    20 C    1.433    22 C    1.412    53 H    0.963
    22   6 C    3.969 --    21 C    1.412    23 C    1.381    54 H    0.963
                            29 C    0.105
    23   6 C    3.904 --    22 C    1.381    26 C    1.295    24 O    1.059
    24   8 O    2.218 --    23 C    1.059    25 C    0.973
    25   6 C    3.935 --    57 H    0.979    55 H    0.977    56 H    0.977
                            24 O    0.973
    26   6 C    3.724 --    29 C    1.468    23 C    1.295    27 O    0.746
    27   8 O    2.578 --    28 C    0.901    61 H    0.856    26 C    0.746
    28   6 C    3.858 --    60 H    0.979    59 H    0.975    58 H    0.970
                            27 O    0.901
    29   6 C    3.011 --    26 C    1.468    20 C    1.324    22 C    0.105
    30   6 C    3.961 --    17 N    1.000    64 H    0.978    62 H    0.968
                            63 H    0.963
    31   6 C    3.978 --    33 C    1.009    32 C    1.009    65 H    0.963
                             3 C    0.946
    32   6 C    3.985 --    31 C    1.009    68 H    0.983    67 H    0.983
                            66 H    0.977
    33   6 C    3.987 --    31 C    1.009    70 H    0.984    71 H    0.982
                            69 H    0.978
    34   1 H    0.997 --     5 C    0.958
    35   1 H    0.995 --     8 C    0.975
    36   1 H    0.994 --     8 C    0.977
    37   1 H    0.996 --     8 C    0.975
    38   1 H    0.995 --    11 C    0.975
    39   1 H    0.994 --    11 C    0.978
    40   1 H    0.996 --    11 C    0.975
    41   1 H    0.996 --    12 C    0.965
    42   1 H    0.998 --    13 C    0.963
    43   1 H    0.995 --    14 C    0.969
    44   1 H    0.997 --    14 C    0.973
    45   1 H    0.995 --    15 C    0.961
    46   1 H    0.970 --    15 C    0.932
    47   1 H    0.991 --     2 C    0.909
    48   1 H    0.996 --    16 C    0.959
    49   1 H    0.989 --    18 C    0.960
    50   1 H    0.995 --    18 C    0.969
    51   1 H    0.998 --    19 C    0.976
    52   1 H    0.995 --    19 C    0.964
    53   1 H    0.992 --    21 C    0.963
    54   1 H    0.994 --    22 C    0.963
    55   1 H    0.997 --    25 C    0.977
    56   1 H    0.997 --    25 C    0.977
    57   1 H    0.995 --    25 C    0.979
    58   1 H    0.983 --    28 C    0.970
    59   1 H    0.989 --    28 C    0.975
    60   1 H    0.991 --    28 C    0.979
    61   1 H    0.869 --    27 O    0.856
    62   1 H    0.985 --    30 C    0.968
    63   1 H    0.986 --    30 C    0.963
    64   1 H    0.994 --    30 C    0.978
    65   1 H    0.995 --    31 C    0.963
    66   1 H    0.993 --    32 C    0.977
    67   1 H    0.998 --    32 C    0.983
    68   1 H    0.996 --    32 C    0.983
    69   1 H    0.994 --    33 C    0.978
    70   1 H    0.998 --    33 C    0.984
    71   1 H    0.995 --    33 C    0.982
    72   1 H    0.974 --     1 N    0.945
 ---------------------------------------------------------------------------

molecular dipole:
                 x           y           z       tot (Debye)
 q only:        4.210      -1.867       0.195
   full:        4.821      -1.683      -0.015      12.979

           -------------------------------------------------
          | TOTAL ENERGY             -100.685805753381 Eh   |
          | GRADIENT NORM               0.002954675511 Eh/α |
          | HOMO-LUMO GAP               1.242701689804 eV   |
           -------------------------------------------------

 * finished run on 2024/04/06 at 11:15:50.358
