   * xtb version 6.6.1 (8d0f1dd) compiled by 'conda@1efc2f54142f' on 2023-08-01
          program call               : xtb xtbopt.xyz --opt crude --input .xc2 --gfn2

   ID    Z sym.   atoms
    1    7 N      1, 17
    2    6 C      2-6, 8, 9, 11-16, 18-23, 25, 26, 28-33
    3    8 O      7, 10, 24, 27
    4    1 H      34-72
########################################################################
[WARNING] Please study the warnings concerning your input carefully
-1- readin_getIntValue: could not parse ''
########################################################################

          :  Hamiltonian                  GFN2-xTB          :
 * total energy  :   -99.1864650 Eh     change       -0.3322498E-10 Eh
 * total energy  :   -99.2737182 Eh     change       -0.8725322E-01 Eh
 * total energy  :   -99.2743895 Eh     change       -0.6713152E-03 Eh
 * total energy  :   -99.2745886 Eh     change       -0.1990700E-03 Eh
   *** GEOMETRY OPTIMIZATION CONVERGED AFTER 4 ITERATIONS ***

 final structure:
================
72
 xtb: 6.6.1 (8d0f1dd)
N           -1.99146824820023        2.96989355251021        2.20530783012165
C           -1.96019259231329        2.22163975476235        1.20310087018492
C           -3.12363275540779        1.97672825893862        0.28241910204134
C           -3.50711578042440        0.50602353098567        0.33226633947508
C           -4.39792141310496       -0.01267440079721       -0.61026789454430
C           -4.80018807433944       -1.33642582753479       -0.57418052287526
O           -5.66150193994979       -1.91411897596526       -1.44333323016270
C           -6.29504208263952       -1.11374962389720       -2.41209614555356
C           -4.29580638311366       -2.19308940927939        0.43769197499291
O           -4.74222216374203       -3.46946421642767        0.39739555726809
C           -4.37140249543017       -4.35055192792472        1.43015357564127
C           -3.41368792330437       -1.67399470677423        1.36987251587186
C           -3.02701029502877       -0.33993224017749        1.31781600390329
C           -2.62448833574781        2.35753920779190       -1.13698363250227
C           -1.66978563061959        1.33643983714194       -1.78233348634514
C           -0.32206069432991        1.31777054886789       -1.17112992328917
N            0.36417654087246        0.22103580018813       -0.85613104035423
C            1.73304712257912        0.31272043642941       -0.40898690754692
C            2.73535288490099       -0.01496455299610       -1.52765898495180
C            4.13540099070328       -0.02998263118001       -0.97336791717232
C            5.08290065771316        0.87874467707522       -1.41981141404052
C            6.38221699054986        0.89091209792939       -0.92745440804358
C            6.76324045283927       -0.02363478327126        0.04504871831605
O            7.99057438960955       -0.14404051258189        0.62143099442780
C            8.99258495437062        0.78349850818248        0.26225624214342
C            5.76157812090833       -0.90884530807210        0.45825253874634
O            6.11148237107331       -1.87523247135351        1.54322255335694
C            7.02464288886245       -2.92162151617059        1.14391026313181
C            4.47310583969976       -0.96765038242751        0.01304149009838
C           -0.19891626384985       -1.09936042704506       -1.00165281899042
C           -4.38654300115264        2.81484907500154        0.63845770548030
C           -4.94074390684599        2.43470379222053        2.00976303067265
C           -4.14592714060958        4.32114030055088        0.58067282748777
H           -4.79359265477023        0.63597335425465       -1.37407026222217
H           -6.86844597457928       -0.30342915152096       -1.95144180821894
H           -6.97465870421410       -1.77904630926182       -2.94112145372381
H           -5.57554393384799       -0.69481318599480       -3.12366811304578
H           -4.68554690672424       -3.97625789085914        2.40929939639829
H           -4.88930621251780       -5.28393935374966        1.21814265819366
H           -3.29115878417092       -4.53054533957232        1.43786928202037
H           -3.02737754505718       -2.29678506093686        2.16046298446527
H           -2.36364463920192        0.03575249646422        2.08152911716919
H           -3.48873008522716        2.47030294875060       -1.79119747067920
H           -2.12475127264799        3.32555096996594       -1.08287809049593
H           -2.12813949980960        0.34930888735074       -1.76643278748428
H           -1.55587817790644        1.63533535389330       -2.83292930727648
H           -1.05109901778343        1.69522650753008        0.85860580914601
H            0.20142849420398        2.25732142374183       -1.08024342380649
H            1.89237617743490       -0.38970273129824        0.41396986774093
H            1.92660361242585        1.32227960759080       -0.04090200326345
H            2.64830905682909        0.72509311358884       -2.32438187574870
H            2.49873927932434       -0.99692897317158       -1.94305962841099
H            4.81697568997511        1.60099782282474       -2.17915711531647
H            7.08515983376087        1.61438210956601       -1.30623459714525
H            8.68362575769378        1.80723904858909        0.48692737335681
H            9.24852349903193        0.69959269891018       -0.79747200584718
H            9.85979787432783        0.52588112729825        0.86732830939285
H            7.98015004383227       -2.44719263342038        0.92222118256476
H            7.14176934440218       -3.60609579123805        1.98195325702635
H            6.65970959858497       -3.45167866733009        0.26312590745141
H            5.24681798223933       -2.26731450867185        1.77712832853783
H           -0.41915288682676       -1.32244252482089       -2.04773458121117
H           -1.12231000118242       -1.18784677652678       -0.42284191673725
H            0.51452853918813       -1.83238214792731       -0.63437772519229
H           -5.14581817793371        2.56334019172014       -0.11135002766266
H           -4.22380473746405        2.68906839929953        2.78347510237524
H           -5.15835913676837        1.37077712096577        2.06406576007742
H           -5.86114918749748        2.98209891950730        2.19553748953065
H           -3.36746465974425        4.60358819913341        1.28216291874090
H           -3.86775838315774        4.64994049135784       -0.41710606645623
H           -5.06026526398657        4.83892148114167        0.85876036616868
H           -1.12869042781146        3.07826283072027        2.73060818497109

          :  Hamiltonian                  GFN2-xTB          :
         :: total energy             -99.274588616167 Eh    ::
         :: gradient norm              0.006587335625 Eh/a0 ::
         :: HOMO-LUMO gap              1.253764163912 eV    ::
         :: SCC energy              -100.643790853216 Eh    ::
         :: -> dispersion             -0.075412787293 Eh    ::
         :: repulsion energy           1.367939911521 Eh    ::

    * Orbital Energies and Occupations

         #    Occupation            Energy/Eh            Energy/eV
      -------------------------------------------------------------
         1        2.0000           -0.8867643             -24.1301
       ...           ...                  ...                  ...
        78        1.9993           -0.5191208             -14.1260
        79        1.9990           -0.5136079             -13.9760
        80        1.9990           -0.5125239             -13.9465
        81        1.9985           -0.5063275             -13.7779
        82        1.9976           -0.4991014             -13.5812
        83        1.9972           -0.4965989             -13.5131
        84        1.9966           -0.4936986             -13.4342
        85        1.9951           -0.4876834             -13.2705
        86        1.9881           -0.4735863             -12.8869
        87        1.9742           -0.4612125             -12.5502
        88        1.9576           -0.4531989             -12.3322
        89        1.9226           -0.4433858             -12.0651
        90        1.6844           -0.4190372             -11.4026 (HOMO)
        91        0.4505           -0.3729623             -10.1488 (LUMO)
        92        0.0203           -0.3200368              -8.7086
        93        0.0096           -0.3081289              -8.3846
        94        0.0056           -0.2995805              -8.1520
        95        0.0045           -0.2958802              -8.0513
        96        0.0041           -0.2946153              -8.0169
        97        0.0000           -0.2029906              -5.5237
        98        0.0000           -0.1752851              -4.7697
        99        0.0000           -0.1733007              -4.7158
       100                         -0.1161247              -3.1599
       101                         -0.0913531              -2.4858
       ...                                ...                  ...
       171                          0.5901193              16.0580
      -------------------------------------------------------------
                  HL-Gap            0.0460750 Eh            1.2538 eV

     #   Z          covCN         q      C6AA      α(0)
     1   7 N        1.773    -0.281    28.108     7.851
     2   6 C        2.827     0.100    25.765     8.318
     3   6 C        3.907     0.006    20.422     6.423
     4   6 C        2.975     0.000    28.022     8.683
     5   6 C        2.921    -0.081    30.023     8.985
     6   6 C        2.863     0.126    25.230     8.233
     7   8 O        1.706    -0.239    17.962     5.722
     8   6 C        3.644     0.031    20.395     6.491
     9   6 C        2.865     0.125    25.260     8.238
    10   8 O        1.706    -0.239    17.955     5.721
    11   6 C        3.645     0.030    20.394     6.490
    12   6 C        2.914    -0.076    29.900     8.967
    13   6 C        2.922    -0.055    29.354     8.885
    14   6 C        3.812    -0.063    21.698     6.630
    15   6 C        3.802    -0.068    21.797     6.647
    16   6 C        2.842     0.000    28.014     8.674
    17   7 N        2.729     0.005    21.180     6.835
    18   6 C        3.755    -0.016    20.920     6.522
    19   6 C        3.807    -0.068    21.799     6.646
    20   6 C        2.989     0.008    27.839     8.655
    21   6 C        2.918    -0.045    29.116     8.848
    22   6 C        2.927    -0.073    29.818     8.955
    23   6 C        2.856     0.128    25.198     8.228
    24   8 O        1.704    -0.276    18.587     5.821
    25   6 C        3.644     0.032    20.367     6.487
    26   6 C        2.869     0.054    26.788     8.484
    27   8 O        2.485    -0.128    16.213     5.438
    28   6 C        3.626    -0.016    21.296     6.649
    29   6 C        1.983    -0.238    38.118     9.970
    30   6 C        3.699    -0.068    21.972     6.704
    31   6 C        3.853    -0.007    20.670     6.466
    32   6 C        3.756    -0.117    22.793     6.807
    33   6 C        3.755    -0.118    22.816     6.811
    34   1 H        0.926     0.048     2.340     2.392
    35   1 H        0.924     0.050     2.319     2.382
    36   1 H        0.925     0.076     2.017     2.221
    37   1 H        0.924     0.043     2.406     2.426
    38   1 H        0.924     0.050     2.316     2.380
    39   1 H        0.925     0.076     2.021     2.223
    40   1 H        0.924     0.043     2.411     2.428
    41   1 H        0.926     0.046     2.370     2.407
    42   1 H        0.926     0.035     2.512     2.478
    43   1 H        0.925     0.056     2.241     2.341
    44   1 H        0.924     0.051     2.311     2.377
    45   1 H        0.925     0.064     2.156     2.296
    46   1 H        0.923     0.072     2.063     2.246
    47   1 H        0.922     0.001     3.039     2.726
    48   1 H        0.926     0.063     2.166     2.301
    49   1 H        0.924     0.072     2.065     2.247
    50   1 H        0.924     0.060     2.200     2.320
    51   1 H        0.924     0.042     2.425     2.435
    52   1 H        0.924     0.054     2.269     2.356
    53   1 H        0.926     0.038     2.470     2.457
    54   1 H        0.926     0.047     2.362     2.403
    55   1 H        0.924     0.050     2.317     2.381
    56   1 H        0.924     0.048     2.340     2.392
    57   1 H        0.925     0.068     2.107     2.270
    58   1 H        0.925     0.126     1.563     1.955
    59   1 H        0.925     0.097     1.816     2.107
    60   1 H        0.924     0.090     1.880     2.144
    61   1 H        0.803     0.363     0.559     1.175
    62   1 H        0.924     0.072     2.067     2.248
    63   1 H        0.924     0.075     2.028     2.227
    64   1 H        0.925     0.079     1.992     2.207
    65   1 H        0.924     0.033     2.542     2.493
    66   1 H        0.925     0.065     2.139     2.287
    67   1 H        0.925     0.033     2.542     2.493
    68   1 H        0.925     0.047     2.361     2.403
    69   1 H        0.925     0.061     2.188     2.313
    70   1 H        0.925     0.032     2.555     2.500
    71   1 H        0.925     0.050     2.318     2.381
    72   1 H        0.860     0.149     1.409     1.860

Wiberg/Mayer (AO) data.
largest (>0.10) Wiberg bond orders for each atom

     #   Z sym  total        # sym  WBO       # sym  WBO       # sym  WBO
 ---------------------------------------------------------------------------
     1   7 N    3.028 --     2 C    1.946    72 H    0.945
     2   6 C    3.926 --     1 N    1.946     3 C    0.996    47 H    0.909
     3   6 C    3.980 --     2 C    0.996     4 C    0.971    14 C    0.956
                            31 C    0.946
     4   6 C    3.960 --    13 C    1.423     5 C    1.366     3 C    0.971
     5   6 C    3.968 --     6 C    1.407     4 C    1.366    34 H    0.958
     6   6 C    3.915 --     5 C    1.407     9 C    1.233     7 O    1.087
     7   8 O    2.251 --     6 C    1.087     8 C    0.981
     8   6 C    3.937 --     7 O    0.981    36 H    0.977    35 H    0.975
                            37 H    0.975
     9   6 C    3.913 --    12 C    1.400     6 C    1.233    10 O    1.087
    10   8 O    2.248 --     9 C    1.087    11 C    0.981
    11   6 C    3.937 --    10 O    0.981    39 H    0.978    40 H    0.975
                            38 H    0.975
    12   6 C    3.969 --     9 C    1.400    13 C    1.399    41 H    0.965
    13   6 C    3.965 --     4 C    1.423    12 C    1.399    42 H    0.963
    14   6 C    3.972 --    15 C    0.982    44 H    0.973    43 H    0.969
                             3 C    0.956
    15   6 C    3.989 --    16 C    1.058    14 C    0.982    45 H    0.961
                            46 H    0.932
    16   6 C    3.552 --    17 N    1.381    15 C    1.058    48 H    0.959
    17   7 N    3.454 --    16 C    1.381    30 C    1.000    18 C    0.988
    18   6 C    3.956 --    17 N    0.988    19 C    0.971    50 H    0.969
                            49 H    0.960
    19   6 C    3.972 --    20 C    1.002    51 H    0.976    18 C    0.971
                            52 H    0.965
    20   6 C    3.942 --    21 C    1.432    29 C    1.324    19 C    1.002
    21   6 C    3.950 --    20 C    1.432    22 C    1.413    53 H    0.963
    22   6 C    3.969 --    21 C    1.413    23 C    1.379    54 H    0.963
                            29 C    0.105
    23   6 C    3.904 --    22 C    1.379    26 C    1.293    24 O    1.060
    24   8 O    2.218 --    23 C    1.060    25 C    0.974
    25   6 C    3.936 --    57 H    0.979    55 H    0.977    56 H    0.977
                            24 O    0.974
    26   6 C    3.735 --    29 C    1.468    23 C    1.293    27 O    0.762
    27   8 O    2.581 --    28 C    0.909    61 H    0.835    26 C    0.762
    28   6 C    3.866 --    60 H    0.979    59 H    0.976    58 H    0.968
                            27 O    0.909
    29   6 C    3.021 --    26 C    1.468    20 C    1.324    22 C    0.105
    30   6 C    3.961 --    17 N    1.000    64 H    0.978    62 H    0.969
                            63 H    0.963
    31   6 C    3.978 --    33 C    1.009    32 C    1.009    65 H    0.962
                             3 C    0.946
    32   6 C    3.985 --    31 C    1.009    68 H    0.983    67 H    0.983
                            66 H    0.977
    33   6 C    3.987 --    31 C    1.009    70 H    0.984    71 H    0.982
                            69 H    0.978
    34   1 H    0.997 --     5 C    0.958
    35   1 H    0.995 --     8 C    0.975
    36   1 H    0.994 --     8 C    0.977
    37   1 H    0.996 --     8 C    0.975
    38   1 H    0.995 --    11 C    0.975
    39   1 H    0.994 --    11 C    0.978
    40   1 H    0.996 --    11 C    0.975
    41   1 H    0.996 --    12 C    0.965
    42   1 H    0.998 --    13 C    0.963
    43   1 H    0.995 --    14 C    0.969
    44   1 H    0.997 --    14 C    0.973
    45   1 H    0.995 --    15 C    0.961
    46   1 H    0.970 --    15 C    0.932
    47   1 H    0.991 --     2 C    0.909
    48   1 H    0.996 --    16 C    0.959
    49   1 H    0.989 --    18 C    0.960
    50   1 H    0.995 --    18 C    0.969
    51   1 H    0.998 --    19 C    0.976
    52   1 H    0.995 --    19 C    0.965
    53   1 H    0.992 --    21 C    0.963
    54   1 H    0.994 --    22 C    0.963
    55   1 H    0.997 --    25 C    0.977
    56   1 H    0.997 --    25 C    0.977
    57   1 H    0.995 --    25 C    0.979
    58   1 H    0.984 --    28 C    0.968
    59   1 H    0.990 --    28 C    0.976
    60   1 H    0.992 --    28 C    0.979
    61   1 H    0.866 --    27 O    0.835
    62   1 H    0.986 --    30 C    0.969
    63   1 H    0.986 --    30 C    0.963
    64   1 H    0.994 --    30 C    0.978
    65   1 H    0.995 --    31 C    0.962
    66   1 H    0.993 --    32 C    0.977
    67   1 H    0.998 --    32 C    0.983
    68   1 H    0.996 --    32 C    0.983
    69   1 H    0.994 --    33 C    0.978
    70   1 H    0.998 --    33 C    0.984
    71   1 H    0.995 --    33 C    0.982
    72   1 H    0.974 --     1 N    0.945
 ---------------------------------------------------------------------------

molecular dipole:
                 x           y           z       tot (Debye)
 q only:        4.054      -1.907       0.243
   full:        4.708      -1.709      -0.001      12.730

           -------------------------------------------------
          | TOTAL ENERGY              -99.274588616167 Eh   |
          | GRADIENT NORM               0.006587335625 Eh/α |
          | HOMO-LUMO GAP               1.253764163912 eV   |
           -------------------------------------------------

 * finished run on 2024/04/06 at 11:15:51.313
