   * xtb version 6.6.1 (8d0f1dd) compiled by 'conda@1efc2f54142f' on 2023-08-01
          program call               : xtb struc.xyz --opt loose --input .xc1 --gfn2

   ID    Z sym.   atoms
    1    7 N      1, 17
    2    6 C      2-6, 8, 9, 11-16, 18-23, 25, 26, 28-33
    3    8 O      7, 10, 24, 27
    4    1 H      34-72
constraining bond 2 67 to    4.7133300 Å, actual value:    3.4483848 Å

          :  Hamiltonian                  GFN2-xTB          :
 * total energy  :   -99.6898315 Eh     change       -0.4035485E-08 Eh
 * total energy  :  -100.0248131 Eh     change       -0.3349816E+00 Eh
 * total energy  :  -100.4577474 Eh     change       -0.4329343E+00 Eh
 * total energy  :  -101.0037246 Eh     change       -0.5459771E+00 Eh
 * total energy  :  -101.6833944 Eh     change       -0.6796698E+00 Eh
 * total energy  :   -98.7376128 Eh     change        0.2945782E+01 Eh
 * total energy  :  -101.7589261 Eh     change       -0.3021313E+01 Eh
 * total energy  :  -101.8120177 Eh     change       -0.5309159E-01 Eh
 * total energy  :  -101.8543048 Eh     change       -0.4228717E-01 Eh
 * total energy  :  -101.9071314 Eh     change       -0.5282659E-01 Eh
 * total energy  :  -102.0096116 Eh     change       -0.1093529E-03 Eh
 * total energy  :  -102.0096916 Eh     change       -0.7997213E-04 Eh
 * total energy  :  -102.0097845 Eh     change       -0.9284839E-04 Eh
 * total energy  :  -102.0098712 Eh     change       -0.8672714E-04 Eh
 * total energy  :  -102.0099461 Eh     change       -0.7494280E-04 Eh
 * total energy  :  -102.0100104 Eh     change       -0.6425497E-04 Eh
 * total energy  :  -102.0100705 Eh     change       -0.6014110E-04 Eh
 * total energy  :  -102.0101465 Eh     change       -0.7593593E-04 Eh
 * total energy  :  -102.0101948 Eh     change       -0.4830341E-04 Eh
   *** GEOMETRY OPTIMIZATION CONVERGED AFTER 52 ITERATIONS ***

 final structure:
================
72
 xtb: 6.6.1 (8d0f1dd)
N           -1.48442100996646        3.05536218755248        1.87227926913456
C           -2.51909698404109        2.34548244371987        1.75849361360084
C           -3.23416107316554        1.99709911576569        0.43908538877795
C           -3.69915192916354        0.55313257700501        0.47064497552610
C           -4.58836740350748        0.08779974047181       -0.50128285564828
C           -5.01929476485448       -1.22801853671615       -0.52320676050431
O           -5.87632061832920       -1.75315966723162       -1.42019579629882
C           -6.43663782131748       -0.92365994927085       -2.41104155490780
C           -4.54426233483699       -2.13769874853054        0.46267821689236
O           -5.02230822844709       -3.39153412163721        0.37196095813036
C           -4.64259022439881       -4.34459258823080        1.33789235651251
C           -3.64653427322192       -1.67508938657945        1.41167989340430
C           -3.23062456507504       -0.35077617492808        1.41400195880087
C           -2.41420945806230        2.25690066222057       -0.83984917587085
C           -1.46038530544381        1.12871815961932       -1.24516311654374
C           -0.29903455291389        0.91485073301581       -0.27169828623396
N            0.60869106355924       -0.10549835855130       -0.74216184385049
C            1.97322499510025       -0.03309638729708       -0.27715095733516
C            2.95738864552169       -0.39315909561564       -1.40872070763533
C            4.37280455390214       -0.17596103536645       -0.96535377470824
C            5.00110332495927        1.04494891275367       -1.17469557167138
C            6.30159329528394        1.26025198119897       -0.75022230371931
C            7.00669488141270        0.25701559550417       -0.09712918100078
O            8.26846336139977        0.35037169793488        0.35416709407002
C            8.98108445239185        1.55206649813939        0.16969081799250
C            6.36993168641334       -0.99784978805306        0.13007278547006
O            7.12358653386349       -1.91124195343005        0.76776420572382
C            6.59098181755722       -3.18745841831393        1.03372122942976
C            5.06679387675268       -1.18760212439187       -0.30677966027406
C            0.04727836636577       -1.43280311776366       -0.78814495883294
C           -4.50007308183928        2.95917942160996        0.47980239600830
C           -5.33575658629273        2.66460822272158        1.64584203161985
C           -4.13058729019423        4.43913881546885        0.39947075163688
H           -4.94683007457780        0.76614544570745       -1.25778222878084
H           -7.01505422829338       -0.10624522117336       -1.96926738608271
H           -7.10225758295620       -1.56439386503933       -2.98624461731270
H           -5.66806271258052       -0.51439865802011       -3.07450498903266
H           -4.91764306012619       -4.02397461908946        2.34712931341749
H           -5.19008567606273       -5.25048600384960        1.08499008516706
H           -3.56788418022664       -4.54816339126646        1.29892614251553
H           -3.26182145559984       -2.33978844781500        2.16795107595116
H           -2.52795400921823       -0.04618817502567        2.17452243701750
H           -3.11038143662370        2.40269939127691       -1.66804192679932
H           -1.84937573421604        3.18452000193886       -0.73400838029510
H           -2.02792977548360        0.20415967104715       -1.34607628913394
H           -1.04032781711351        1.37238274068675       -2.22279451543820
H           -0.69593727874189        0.65220319339134        0.72189883673260
H            0.26297656001483        1.84635874940259       -0.17742148098960
H            2.14402233053747       -0.70397490685021        0.57715154630392
H            2.18803278986064        0.98503825862527        0.05176184064703
H            2.73180517413736        0.23949520950481       -2.26741975745727
H            2.81374569780261       -1.43290346466087       -1.70351965648720
H            4.47522556260049        1.83702835610689       -1.68505258241114
H            6.76372628066066        2.21588389241626       -0.93633641483814
H            8.48966304603403        2.38963154707486        0.67325869961633
H            9.10363491635198        1.78477193624536       -0.89210918767928
H            9.95832697005209        1.38406150166110        0.61770599290178
H            7.37916080511258       -3.73057255150616        1.55169239472870
H            5.70883175394832       -3.12697268048009        1.67851980167914
H            6.33441664131901       -3.71475991617224        0.10986429541513
H            4.57881029739136       -2.13637460665309       -0.14741979004560
H           -0.63427072941078       -1.52268943272838       -1.63540319460593
H           -0.51167963486911       -1.66979974867668        0.12883982906953
H            0.84020716151185       -2.16626238105517       -0.91406438813603
H           -5.07142211792915        2.70116936962404       -0.42496971599411
H           -5.56454641257208        3.42559747933331        2.36872344872392
H           -2.85642628511489        2.10140962168461        2.37380012000295
H           -5.70807665993323        1.66979848941553        1.80729018495945
H           -3.47306853255959        4.72719268407412        1.21647401591613
H           -3.64340042804957        4.67764950880759       -0.54144396256698
H           -5.03575920716120        5.03752085753138        0.46794756312698
H           -1.03167871034443        3.41964237420687        1.04024624509981

          :  Hamiltonian                  GFN2-xTB          :
         :: total energy            -102.010194771028 Eh    ::
         :: gradient norm              0.003348138323 Eh/a0 ::
         :: HOMO-LUMO gap              0.894271903316 eV    ::
         :: SCC energy              -100.745007458557 Eh    ::
         :: -> dispersion             -0.074091497660 Eh    ::
         :: repulsion energy           1.548348797222 Eh    ::

    * Orbital Energies and Occupations

         #    Occupation            Energy/Eh            Energy/eV
      -------------------------------------------------------------
         1        2.0000           -0.8147844             -22.1714
       ...           ...                  ...                  ...
        78        1.9979           -0.5353122             -14.5666
        79        1.9973           -0.5318889             -14.4734
        80        1.9972           -0.5313582             -14.4590
        81        1.9969           -0.5293492             -14.4043
        82        1.9961           -0.5259269             -14.3112
        83        1.9950           -0.5218006             -14.1989
        84        1.9942           -0.5194438             -14.1348
        85        1.9742           -0.4957330             -13.4896
        86        1.9617           -0.4893994             -13.3172
        87        1.9127           -0.4759510             -12.9513
        88        1.8348           -0.4651945             -12.6586
        89        1.7963           -0.4615424             -12.5592
        90        1.7033           -0.4547460             -12.3743 (HOMO)
        91        0.8376           -0.4218821             -11.4800 (LUMO)
        92        0.0113           -0.3452006              -9.3934
        93        0.0025           -0.3213844              -8.7453
        94        0.0021           -0.3185437              -8.6680
        95        0.0015           -0.3130905              -8.5196
        96        0.0013           -0.3110746              -8.4648
        97        0.0000           -0.1960027              -5.3335
        98        0.0000           -0.1886943              -5.1346
        99                         -0.1052573              -2.8642
       100                         -0.0784823              -2.1356
       101                         -0.0677368              -1.8432
       ...                                ...                  ...
       171                          1.4486463              39.4197
      -------------------------------------------------------------
                  HL-Gap            0.0328639 Eh            0.8943 eV

     #   Z          covCN         q      C6AA      α(0)
     1   7 N        1.773    -0.286    28.226     7.867
     2   6 C        2.829     0.069    26.440     8.426
     3   6 C        3.900    -0.004    20.588     6.450
     4   6 C        2.970     0.002    27.973     8.675
     5   6 C        2.921    -0.077    29.913     8.969
     6   6 C        2.862     0.132    25.099     8.212
     7   8 O        1.706    -0.224    17.720     5.683
     8   6 C        3.644     0.027    20.466     6.503
     9   6 C        2.864     0.133    25.088     8.210
    10   8 O        1.706    -0.221    17.673     5.676
    11   6 C        3.645     0.025    20.484     6.505
    12   6 C        2.913    -0.070    29.743     8.943
    13   6 C        2.922    -0.049    29.214     8.864
    14   6 C        3.804    -0.062    21.694     6.631
    15   6 C        3.801    -0.069    21.825     6.651
    16   6 C        3.749    -0.002    20.671     6.484
    17   7 N        2.728    -0.106    23.327     7.173
    18   6 C        3.750     0.001    20.633     6.478
    19   6 C        3.809    -0.073    21.883     6.659
    20   6 C        2.968     0.011    27.756     8.642
    21   6 C        2.922    -0.043    29.068     8.841
    22   6 C        2.912    -0.065    29.608     8.923
    23   6 C        2.864     0.136    25.026     8.200
    24   8 O        1.706    -0.213    17.538     5.654
    25   6 C        3.645     0.023    20.526     6.511
    26   6 C        2.862     0.136    25.020     8.199
    27   8 O        1.706    -0.216    17.588     5.662
    28   6 C        3.645     0.025    20.496     6.507
    29   6 C        2.919    -0.075    29.879     8.964
    30   6 C        3.702    -0.049    21.612     6.647
    31   6 C        3.856    -0.004    20.616     6.458
    32   6 C        2.839    -0.088    30.199     9.006
    33   6 C        3.755    -0.118    22.811     6.810
    34   1 H        0.926     0.051     2.306     2.375
    35   1 H        0.924     0.053     2.278     2.360
    36   1 H        0.925     0.083     1.944     2.180
    37   1 H        0.924     0.052     2.300     2.372
    38   1 H        0.924     0.057     2.238     2.339
    39   1 H        0.925     0.083     1.944     2.180
    40   1 H        0.924     0.053     2.284     2.363
    41   1 H        0.926     0.055     2.256     2.349
    42   1 H        0.926     0.044     2.401     2.423
    43   1 H        0.924     0.050     2.322     2.383
    44   1 H        0.924     0.049     2.328     2.386
    45   1 H        0.925     0.047     2.353     2.399
    46   1 H        0.924     0.055     2.254     2.348
    47   1 H        0.923     0.035     2.522     2.484
    48   1 H        0.924     0.050     2.314     2.379
    49   1 H        0.923     0.041     2.437     2.441
    50   1 H        0.924     0.052     2.294     2.368
    51   1 H        0.925     0.063     2.159     2.298
    52   1 H        0.924     0.055     2.256     2.349
    53   1 H        0.926     0.055     2.258     2.350
    54   1 H        0.926     0.062     2.174     2.305
    55   1 H        0.924     0.059     2.215     2.327
    56   1 H        0.924     0.060     2.199     2.319
    57   1 H        0.925     0.085     1.926     2.170
    58   1 H        0.925     0.084     1.934     2.175
    59   1 H        0.924     0.054     2.269     2.356
    60   1 H        0.924     0.057     2.234     2.337
    61   1 H        0.926     0.054     2.273     2.358
    62   1 H        0.924     0.058     2.219     2.329
    63   1 H        0.923     0.040     2.454     2.450
    64   1 H        0.925     0.060     2.195     2.317
    65   1 H        0.923     0.078     1.998     2.211
    66   1 H        0.926     0.071     2.078     2.254
    67   1 H        0.932     0.110     1.698     2.037
    68   1 H        0.926     0.056     2.244     2.343
    69   1 H        0.925     0.053     2.283     2.363
    70   1 H        0.925     0.048     2.341     2.393
    71   1 H        0.925     0.059     2.213     2.326
    72   1 H        0.860     0.159     1.342     1.815

Wiberg/Mayer (AO) data.
largest (>0.10) Wiberg bond orders for each atom

     #   Z sym  total        # sym  WBO       # sym  WBO       # sym  WBO
 ---------------------------------------------------------------------------
     1   7 N    3.010 --     2 C    1.958    72 H    0.933
     2   6 C    3.935 --     1 N    1.958    67 H    0.962     3 C    0.950
     3   6 C    3.903 --     4 C    0.986    14 C    0.977     2 C    0.950
                            31 C    0.863
     4   6 C    3.939 --    13 C    1.408     5 C    1.368     3 C    0.986
     5   6 C    3.954 --     6 C    1.399     4 C    1.368    34 H    0.956
     6   6 C    3.895 --     5 C    1.399     9 C    1.213     7 O    1.106
     7   8 O    2.253 --     6 C    1.106     8 C    0.977
     8   6 C    3.929 --     7 O    0.977    36 H    0.976    35 H    0.973
                            37 H    0.972
     9   6 C    3.891 --    12 C    1.386     6 C    1.213    10 O    1.111
    10   8 O    2.254 --     9 C    1.111    11 C    0.976
    11   6 C    3.928 --    39 H    0.977    10 O    0.976    38 H    0.972
                            40 H    0.972
    12   6 C    3.956 --    13 C    1.410     9 C    1.386    41 H    0.963
    13   6 C    3.943 --    12 C    1.410     4 C    1.408    42 H    0.961
    14   6 C    3.985 --    15 C    1.004     3 C    0.977    43 H    0.969
                            44 H    0.962
    15   6 C    3.980 --    14 C    1.004    16 C    0.997    46 H    0.973
                            45 H    0.968
    16   6 C    3.968 --    17 N    1.006    15 C    0.997    48 H    0.967
                            47 H    0.948
    17   7 N    3.095 --    30 C    1.018    18 C    1.009    16 C    1.006
    18   6 C    3.961 --    17 N    1.009    50 H    0.970    19 C    0.967
                            49 H    0.957
    19   6 C    3.974 --    20 C    1.016    51 H    0.969    18 C    0.967
                            52 H    0.967
    20   6 C    3.921 --    21 C    1.386    29 C    1.385    19 C    1.016
    21   6 C    3.923 --    22 C    1.427    20 C    1.386    53 H    0.967
    22   6 C    3.946 --    21 C    1.427    23 C    1.371    54 H    0.962
    23   6 C    3.867 --    22 C    1.371    26 C    1.206    24 O    1.120
    24   8 O    2.247 --    23 C    1.120    25 C    0.974
    25   6 C    3.923 --    57 H    0.976    24 O    0.974    55 H    0.971
                            56 H    0.971
    26   6 C    3.875 --    29 C    1.386    23 C    1.206    27 O    1.114
    27   8 O    2.248 --    26 C    1.114    28 C    0.976
    28   6 C    3.927 --    27 O    0.976    58 H    0.976    59 H    0.972
                            60 H    0.971
    29   6 C    3.948 --    26 C    1.386    20 C    1.385    61 H    0.961
    30   6 C    3.968 --    17 N    1.018    64 H    0.978    62 H    0.971
                            63 H    0.964
    31   6 C    3.971 --    32 C    1.121    33 C    1.008    65 H    0.899
                             3 C    0.863
    32   6 C    3.151 --    31 C    1.121    68 H    0.979    66 H    0.979
    33   6 C    3.987 --    31 C    1.008    70 H    0.983    69 H    0.982
                            71 H    0.980
    34   1 H    0.996 --     5 C    0.956
    35   1 H    0.992 --     8 C    0.973
    36   1 H    0.992 --     8 C    0.976
    37   1 H    0.992 --     8 C    0.972
    38   1 H    0.991 --    11 C    0.972
    39   1 H    0.992 --    11 C    0.977
    40   1 H    0.991 --    11 C    0.972
    41   1 H    0.995 --    12 C    0.963
    42   1 H    0.997 --    13 C    0.961
    43   1 H    0.994 --    14 C    0.969
    44   1 H    0.996 --    14 C    0.962
    45   1 H    0.997 --    15 C    0.968
    46   1 H    0.994 --    15 C    0.973
    47   1 H    0.974 --    16 C    0.948
    48   1 H    0.996 --    16 C    0.967
    49   1 H    0.977 --    18 C    0.957
    50   1 H    0.997 --    18 C    0.970
    51   1 H    0.993 --    19 C    0.969
    52   1 H    0.994 --    19 C    0.967
    53   1 H    0.996 --    21 C    0.967
    54   1 H    0.994 --    22 C    0.962
    55   1 H    0.989 --    25 C    0.971
    56   1 H    0.988 --    25 C    0.971
    57   1 H    0.992 --    25 C    0.976
    58   1 H    0.992 --    28 C    0.976
    59   1 H    0.990 --    28 C    0.972
    60   1 H    0.990 --    28 C    0.971
    61   1 H    0.995 --    29 C    0.961
    62   1 H    0.986 --    30 C    0.971
    63   1 H    0.977 --    30 C    0.964
    64   1 H    0.996 --    30 C    0.978
    65   1 H    0.944 --    31 C    0.899
    66   1 H    0.994 --    32 C    0.979
    67   1 H    0.984 --     2 C    0.962
    68   1 H    0.996 --    32 C    0.979
    69   1 H    0.995 --    33 C    0.982
    70   1 H    0.997 --    33 C    0.983
    71   1 H    0.995 --    33 C    0.980
    72   1 H    0.968 --     1 N    0.933
 ---------------------------------------------------------------------------

molecular dipole:
                 x           y           z       tot (Debye)
 q only:        0.069       0.234      -0.301
   full:       -0.199       0.190      -0.383       1.198

           -------------------------------------------------
          | TOTAL ENERGY             -102.010194771028 Eh   |
          | GRADIENT NORM               0.003348138323 Eh/α |
          | HOMO-LUMO GAP               0.894271903316 eV   |
           -------------------------------------------------

 * finished run on 2024/04/06 at 11:15:40.118
