   * xtb version 6.6.1 (8d0f1dd) compiled by 'conda@1efc2f54142f' on 2023-08-01
          program call               : xtb xtbopt.xyz --opt crude --input .xc2 --gfn2

   ID    Z sym.   atoms
    1    7 N      1, 17
    2    6 C      2-6, 8, 9, 11-16, 18-23, 25, 26, 28-33
    3    8 O      7, 10, 24, 27
    4    1 H      34-72
########################################################################
[WARNING] Please study the warnings concerning your input carefully
-1- readin_getIntValue: could not parse ''
########################################################################

          :  Hamiltonian                  GFN2-xTB          :
 * total energy  :   -99.1954873 Eh     change       -0.1985256E-10 Eh
 * total energy  :   -99.3545384 Eh     change       -0.1590510E+00 Eh
 * total energy  :   -99.3565110 Eh     change       -0.1972651E-02 Eh
 * total energy  :   -99.3572153 Eh     change       -0.7042863E-03 Eh
 * total energy  :   -99.3574656 Eh     change       -0.2502614E-03 Eh
   *** GEOMETRY OPTIMIZATION CONVERGED AFTER 5 ITERATIONS ***

 final structure:
================
72
 xtb: 6.6.1 (8d0f1dd)
N           -1.47018699050415        3.06243201789567        1.88384373681367
C           -2.49919686370048        2.37407844751739        1.70913892024347
C           -3.22443623414487        1.99894142804150        0.43240531042391
C           -3.68896310310430        0.55505921644270        0.46737893896042
C           -4.58034757304757        0.09175488828776       -0.50344535721732
C           -5.01633517590143       -1.22271847194720       -0.52341047172834
O           -5.87605514718698       -1.74667814269584       -1.41817209489339
C           -6.43599962230696       -0.92021050100517       -2.41125175844923
C           -4.54242170245847       -2.13207329596206        0.46277159785827
O           -5.02314511982169       -3.38507432605379        0.37379448294217
C           -4.64233051622360       -4.33922668384297        1.33813269393794
C           -3.64178255316665       -1.67117013762061        1.41027513017476
C           -3.21982375006301       -0.34905520398207        1.40969271595778
C           -2.41216125033496        2.25341296275837       -0.85749802262542
C           -1.45980292988979        1.12219786937420       -1.26028664219082
C           -0.30114032419679        0.91180061721201       -0.28316358614193
N            0.60793594014249       -0.11039121465431       -0.74499234777349
C            1.97240246731636       -0.03237364358865       -0.28051695929989
C            2.95721755437244       -0.39336877473678       -1.41092057827432
C            4.37244587700404       -0.17547079482784       -0.96615045491410
C            5.00042093529846        1.04590030809085       -1.17456766635121
C            6.30038223816908        1.26157163685676       -0.74893697983692
C            7.00549263506144        0.25854704273081       -0.09532112009660
O            8.26680229836157        0.35246137146183        0.35726019288447
C            8.98178640041898        1.55236040968125        0.16975736899839
C            6.36899232590257       -0.99632516327465        0.13113254045380
O            7.12163861155640       -1.91003852578972        0.76965024889006
C            6.58923315804631       -3.18697677944228        1.03186331009309
C            5.06632649633762       -1.18654511768144       -0.30709014372681
C            0.04734986244988       -1.43840588592718       -0.78600063234065
C           -4.49597933608422        2.95738166644916        0.47689953901257
C           -5.32092921951453        2.66291394392655        1.64922075073666
C           -4.13386511038097        4.43807453770190        0.39163966958255
H           -4.93847021199531        0.76904117432870       -1.26179747248390
H           -7.01439929395995       -0.10121839091884       -1.97266314300287
H           -7.10167265635073       -1.56322531941610       -2.98362947624353
H           -5.66791688199501       -0.51341237446781       -3.07667670622974
H           -4.92167608052672       -4.02265659543429        2.34731613774456
H           -5.18536767552222       -5.24663627803365        1.08126724849228
H           -3.56676337900119       -4.53829816243100        1.30151247448652
H           -3.25971172783609       -2.33813652766344        2.16603184382326
H           -2.51295476377442       -0.04173049052516        2.16448774430502
H           -3.11240682131691        2.39386596835115       -1.68354095155710
H           -1.84589304298681        3.18208551161606       -0.75862111105621
H           -2.02876930541328        0.19812639996661       -1.35690735922931
H           -1.03768135513135        1.36033384541583       -2.23859110817974
H           -0.70183705851551        0.65499161383188        0.71026133573685
H            0.26104152091975        1.84381859317798       -0.19284377465417
H            2.14578087493701       -0.69849376811970        0.57694904487853
H            2.18318486554559        0.98835144129345        0.04358765523302
H            2.73298864263515        0.23876877103560       -2.27038665170335
H            2.81360176508209       -1.43329880000102       -1.70481170220418
H            4.47487240458154        1.83813481977212       -1.68512364749535
H            6.76258544217478        2.21736974410868       -0.93431830358113
H            8.49388782727709        2.39168482743592        0.67427389233596
H            9.10209275527395        1.78402760953543       -0.89269680777332
H            9.95998694175670        1.38216175146023        0.61545107075311
H            7.37804110474407       -3.73212763805535        1.54670664273481
H            5.70812307373788       -3.12843911948212        1.67835502273699
H            6.33111797591143       -3.71102635233250        0.10658128893078
H            4.57900030913793       -2.13571366441018       -0.14814408822633
H           -0.64190026366861       -1.52851482680186       -1.62519392839697
H           -0.50001163682905       -1.67636871162322        0.13605341147645
H            0.83874949125859       -2.17011698205588       -0.92016584548725
H           -5.07039671968791        2.69207316367920       -0.42317936758549
H           -5.56264733463952        3.42800600737191        2.36075342922462
H           -3.02254935147072        2.05974380798693        2.60488726346562
H           -5.69266171376452        1.66918754033871        1.81550947348221
H           -3.48526499712698        4.73084895189199        1.21357089568212
H           -3.64074721119728        4.67493405185070       -0.54687234819308
H           -5.04234323008207        5.03234176859649        0.44926516054473
H           -0.97802096360464        3.41087045982578        1.06147526771297

          :  Hamiltonian                  GFN2-xTB          :
         :: total energy             -99.357465558578 Eh    ::
         :: gradient norm              0.008024978258 Eh/a0 ::
         :: HOMO-LUMO gap              0.903175572503 eV    ::
         :: SCC energy              -100.719936771374 Eh    ::
         :: -> dispersion             -0.074096376877 Eh    ::
         :: repulsion energy           1.361295054202 Eh    ::

    * Orbital Energies and Occupations

         #    Occupation            Energy/Eh            Energy/eV
      -------------------------------------------------------------
         1        2.0000           -0.8148800             -22.1740
       ...           ...                  ...                  ...
        78        1.9979           -0.5353588             -14.5679
        79        1.9973           -0.5318647             -14.4728
        80        1.9973           -0.5313301             -14.4582
        81        1.9969           -0.5292388             -14.4013
        82        1.9961           -0.5258850             -14.3101
        83        1.9950           -0.5217960             -14.1988
        84        1.9942           -0.5194190             -14.1341
        85        1.9743           -0.4957388             -13.4897
        86        1.9619           -0.4893630             -13.3162
        87        1.9212           -0.4775361             -12.9944
        88        1.8355           -0.4651635             -12.6577
        89        1.7971           -0.4615013             -12.5581
        90        1.7044           -0.4547039             -12.3731 (HOMO)
        91        0.8295           -0.4215128             -11.4699 (LUMO)
        92        0.0079           -0.3393488              -9.2341
        93        0.0025           -0.3214201              -8.7463
        94        0.0021           -0.3183551              -8.6629
        95        0.0015           -0.3130360              -8.5181
        96        0.0013           -0.3110266              -8.4635
        97        0.0000           -0.1959858              -5.3330
        98        0.0000           -0.1886209              -5.1326
        99                         -0.1055118              -2.8711
       100                         -0.0788025              -2.1443
       101                         -0.0679146              -1.8480
       ...                                ...                  ...
       171                          0.5726927              15.5838
      -------------------------------------------------------------
                  HL-Gap            0.0331911 Eh            0.9032 eV

     #   Z          covCN         q      C6AA      α(0)
     1   7 N        1.771    -0.277    27.999     7.835
     2   6 C        2.830     0.090    25.983     8.353
     3   6 C        3.901     0.002    20.494     6.435
     4   6 C        2.970     0.003    27.943     8.671
     5   6 C        2.921    -0.077    29.915     8.969
     6   6 C        2.861     0.132    25.100     8.212
     7   8 O        1.706    -0.224    17.717     5.683
     8   6 C        3.644     0.027    20.466     6.503
     9   6 C        2.864     0.133    25.091     8.211
    10   8 O        1.706    -0.221    17.672     5.676
    11   6 C        3.645     0.025    20.485     6.505
    12   6 C        2.913    -0.070    29.738     8.942
    13   6 C        2.921    -0.048    29.197     8.861
    14   6 C        3.803    -0.061    21.677     6.628
    15   6 C        3.801    -0.069    21.816     6.650
    16   6 C        3.749    -0.001    20.658     6.482
    17   7 N        2.728    -0.107    23.339     7.175
    18   6 C        3.750     0.001    20.629     6.478
    19   6 C        3.809    -0.073    21.882     6.659
    20   6 C        2.968     0.011    27.758     8.642
    21   6 C        2.922    -0.043    29.069     8.842
    22   6 C        2.912    -0.065    29.608     8.923
    23   6 C        2.864     0.136    25.026     8.200
    24   8 O        1.706    -0.213    17.540     5.655
    25   6 C        3.645     0.023    20.526     6.511
    26   6 C        2.862     0.136    25.021     8.199
    27   8 O        1.706    -0.216    17.589     5.662
    28   6 C        3.645     0.025    20.495     6.507
    29   6 C        2.919    -0.075    29.879     8.964
    30   6 C        3.702    -0.049    21.613     6.647
    31   6 C        3.859    -0.004    20.608     6.456
    32   6 C        2.840    -0.087    30.169     9.001
    33   6 C        3.756    -0.117    22.803     6.809
    34   1 H        0.926     0.051     2.307     2.375
    35   1 H        0.924     0.053     2.279     2.361
    36   1 H        0.925     0.084     1.943     2.180
    37   1 H        0.924     0.051     2.302     2.372
    38   1 H        0.924     0.057     2.236     2.338
    39   1 H        0.925     0.084     1.943     2.180
    40   1 H        0.924     0.053     2.285     2.364
    41   1 H        0.926     0.056     2.250     2.346
    42   1 H        0.926     0.045     2.387     2.416
    43   1 H        0.924     0.049     2.328     2.386
    44   1 H        0.924     0.048     2.342     2.393
    45   1 H        0.925     0.047     2.357     2.401
    46   1 H        0.924     0.055     2.256     2.349
    47   1 H        0.923     0.035     2.522     2.483
    48   1 H        0.924     0.049     2.329     2.387
    49   1 H        0.923     0.041     2.437     2.441
    50   1 H        0.924     0.052     2.298     2.371
    51   1 H        0.924     0.063     2.161     2.299
    52   1 H        0.925     0.055     2.256     2.349
    53   1 H        0.926     0.055     2.260     2.351
    54   1 H        0.926     0.062     2.175     2.306
    55   1 H        0.924     0.059     2.215     2.327
    56   1 H        0.924     0.060     2.200     2.320
    57   1 H        0.925     0.085     1.926     2.171
    58   1 H        0.925     0.084     1.935     2.175
    59   1 H        0.924     0.054     2.269     2.356
    60   1 H        0.924     0.057     2.235     2.338
    61   1 H        0.926     0.054     2.273     2.358
    62   1 H        0.925     0.058     2.219     2.329
    63   1 H        0.923     0.040     2.454     2.450
    64   1 H        0.925     0.061     2.192     2.315
    65   1 H        0.923     0.079     1.994     2.208
    66   1 H        0.926     0.072     2.065     2.247
    67   1 H        0.925     0.066     2.128     2.281
    68   1 H        0.926     0.057     2.237     2.339
    69   1 H        0.925     0.053     2.280     2.361
    70   1 H        0.925     0.048     2.344     2.394
    71   1 H        0.925     0.059     2.210     2.325
    72   1 H        0.860     0.162     1.325     1.803

Wiberg/Mayer (AO) data.
largest (>0.10) Wiberg bond orders for each atom

     #   Z sym  total        # sym  WBO       # sym  WBO       # sym  WBO
 ---------------------------------------------------------------------------
     1   7 N    3.015 --     2 C    1.963    72 H    0.927
     2   6 C    3.932 --     1 N    1.963     3 C    0.968    67 H    0.936
     3   6 C    3.910 --     4 C    0.984    14 C    0.973     2 C    0.968
                            31 C    0.860
     4   6 C    3.939 --    13 C    1.407     5 C    1.369     3 C    0.984
     5   6 C    3.954 --     6 C    1.398     4 C    1.369    34 H    0.955
     6   6 C    3.896 --     5 C    1.398     9 C    1.213     7 O    1.106
     7   8 O    2.253 --     6 C    1.106     8 C    0.977
     8   6 C    3.929 --     7 O    0.977    36 H    0.976    35 H    0.973
                            37 H    0.972
     9   6 C    3.891 --    12 C    1.386     6 C    1.213    10 O    1.111
    10   8 O    2.254 --     9 C    1.111    11 C    0.976
    11   6 C    3.928 --    39 H    0.976    10 O    0.976    38 H    0.972
                            40 H    0.972
    12   6 C    3.957 --    13 C    1.411     9 C    1.386    41 H    0.963
    13   6 C    3.943 --    12 C    1.411     4 C    1.407    42 H    0.961
    14   6 C    3.985 --    15 C    1.004     3 C    0.973    43 H    0.970
                            44 H    0.964
    15   6 C    3.980 --    14 C    1.004    16 C    0.997    46 H    0.973
                            45 H    0.968
    16   6 C    3.968 --    17 N    1.006    15 C    0.997    48 H    0.967
                            47 H    0.948
    17   7 N    3.095 --    30 C    1.018    18 C    1.009    16 C    1.006
    18   6 C    3.961 --    17 N    1.009    50 H    0.970    19 C    0.967
                            49 H    0.957
    19   6 C    3.974 --    20 C    1.016    51 H    0.969    18 C    0.967
                            52 H    0.967
    20   6 C    3.921 --    21 C    1.386    29 C    1.386    19 C    1.016
    21   6 C    3.923 --    22 C    1.427    20 C    1.386    53 H    0.967
    22   6 C    3.947 --    21 C    1.427    23 C    1.370    54 H    0.962
    23   6 C    3.867 --    22 C    1.370    26 C    1.206    24 O    1.119
    24   8 O    2.247 --    23 C    1.119    25 C    0.974
    25   6 C    3.923 --    57 H    0.976    24 O    0.974    55 H    0.971
                            56 H    0.971
    26   6 C    3.875 --    29 C    1.386    23 C    1.206    27 O    1.114
    27   8 O    2.248 --    26 C    1.114    28 C    0.976
    28   6 C    3.927 --    27 O    0.976    58 H    0.976    59 H    0.972
                            60 H    0.971
    29   6 C    3.948 --    20 C    1.386    26 C    1.386    61 H    0.961
    30   6 C    3.968 --    17 N    1.018    64 H    0.978    62 H    0.972
                            63 H    0.964
    31   6 C    3.973 --    32 C    1.122    33 C    1.008    65 H    0.899
                             3 C    0.860
    32   6 C    3.160 --    31 C    1.122    68 H    0.979    66 H    0.979
    33   6 C    3.987 --    31 C    1.008    70 H    0.983    69 H    0.982
                            71 H    0.980
    34   1 H    0.996 --     5 C    0.955
    35   1 H    0.992 --     8 C    0.973
    36   1 H    0.992 --     8 C    0.976
    37   1 H    0.992 --     8 C    0.972
    38   1 H    0.991 --    11 C    0.972
    39   1 H    0.992 --    11 C    0.976
    40   1 H    0.991 --    11 C    0.972
    41   1 H    0.995 --    12 C    0.963
    42   1 H    0.997 --    13 C    0.961
    43   1 H    0.994 --    14 C    0.970
    44   1 H    0.996 --    14 C    0.964
    45   1 H    0.997 --    15 C    0.968
    46   1 H    0.994 --    15 C    0.973
    47   1 H    0.974 --    16 C    0.948
    48   1 H    0.996 --    16 C    0.967
    49   1 H    0.977 --    18 C    0.957
    50   1 H    0.997 --    18 C    0.970
    51   1 H    0.993 --    19 C    0.969
    52   1 H    0.994 --    19 C    0.967
    53   1 H    0.996 --    21 C    0.967
    54   1 H    0.994 --    22 C    0.962
    55   1 H    0.989 --    25 C    0.971
    56   1 H    0.988 --    25 C    0.971
    57   1 H    0.992 --    25 C    0.976
    58   1 H    0.992 --    28 C    0.976
    59   1 H    0.990 --    28 C    0.972
    60   1 H    0.990 --    28 C    0.971
    61   1 H    0.995 --    29 C    0.961
    62   1 H    0.987 --    30 C    0.972
    63   1 H    0.977 --    30 C    0.964
    64   1 H    0.996 --    30 C    0.978
    65   1 H    0.945 --    31 C    0.899
    66   1 H    0.994 --    32 C    0.979
    67   1 H    0.988 --     2 C    0.936
    68   1 H    0.996 --    32 C    0.979
    69   1 H    0.995 --    33 C    0.982
    70   1 H    0.997 --    33 C    0.983
    71   1 H    0.995 --    33 C    0.980
    72   1 H    0.967 --     1 N    0.927
 ---------------------------------------------------------------------------

molecular dipole:
                 x           y           z       tot (Debye)
 q only:        0.058       0.247      -0.350
   full:       -0.203       0.205      -0.429       1.315

           -------------------------------------------------
          | TOTAL ENERGY              -99.357465558578 Eh   |
          | GRADIENT NORM               0.008024978258 Eh/α |
          | HOMO-LUMO GAP               0.903175572503 eV   |
           -------------------------------------------------

 * finished run on 2024/04/06 at 11:15:41.240
