   * xtb version 6.6.1 (8d0f1dd) compiled by 'conda@1efc2f54142f' on 2023-08-01
          program call               : xtb struc.xyz --opt loose --input .xc1 --gfn2

   ID    Z sym.   atoms
    1    7 N      1, 17
    2    6 C      2-6, 8, 9, 11-16, 18-23, 25, 26, 28-33
    3    8 O      7, 10, 24, 27
    4    1 H      34-72
constraining bond 2 31 to    5.0000000 Å, actual value:    2.5451908 Å

          :  Hamiltonian                  GFN2-xTB          :
 * total energy  :   -98.3281536 Eh     change       -0.4035485E-08 Eh
 * total energy  :   -98.6189466 Eh     change       -0.2907930E+00 Eh
 * total energy  :   -98.8036371 Eh     change       -0.1846905E+00 Eh
 * total energy  :   -98.9318974 Eh     change       -0.1282603E+00 Eh
 * total energy  :   -99.0252397 Eh     change       -0.9334231E-01 Eh
 * total energy  :   -99.0889835 Eh     change       -0.6374383E-01 Eh
 * total energy  :   -99.1214579 Eh     change       -0.3247434E-01 Eh
 * total energy  :   -99.1377577 Eh     change       -0.1629982E-01 Eh
 * total energy  :   -99.1481905 Eh     change       -0.1043280E-01 Eh
 * total energy  :   -99.1549837 Eh     change       -0.6793237E-02 Eh
 * total energy  :   -99.3364271 Eh     change       -0.9906578E-04 Eh
 * total energy  :   -99.3365452 Eh     change       -0.1181512E-03 Eh
 * total energy  :   -99.3366811 Eh     change       -0.1358557E-03 Eh
 * total energy  :   -99.3368246 Eh     change       -0.1435811E-03 Eh
 * total energy  :   -99.3369490 Eh     change       -0.1243433E-03 Eh
 * total energy  :   -99.3370414 Eh     change       -0.9240169E-04 Eh
 * total energy  :   -99.3371198 Eh     change       -0.7837605E-04 Eh
 * total energy  :   -99.3371993 Eh     change       -0.7949487E-04 Eh
 * total energy  :   -99.3372280 Eh     change       -0.2876646E-04 Eh
   *** GEOMETRY OPTIMIZATION CONVERGED AFTER 68 ITERATIONS ***

 final structure:
================
72
 xtb: 6.6.1 (8d0f1dd)
N           -0.85450014465387        1.19703796046680        2.23255941209952
C           -1.10579234221696        1.77675771771726        1.11139553826414
C           -2.08513555036680        1.38395821138364        0.17091268533107
C           -3.01420185366270        0.31807324944183        0.37346893729722
C           -3.94483637927349       -0.06454177141927       -0.62232599171259
C           -4.85660697523026       -1.07573637374779       -0.41411107179361
O           -5.78639063800619       -1.48802971378302       -1.31046365913022
C           -5.85420733299417       -0.86311494623818       -2.56737088150391
C           -4.87525459637928       -1.77858615297557        0.82389428382447
O           -5.80723911713129       -2.74495337419613        0.93109454442740
C           -5.89620365388823       -3.48616213097946        2.12569081101009
C           -3.95476651440013       -1.41645909454283        1.80224774680644
C           -3.05387574099890       -0.39671966294888        1.58663651269996
C           -2.03251073750213        2.11462812976427       -1.13840794318360
C           -1.11615671771279        1.36685424977516       -2.15833257484542
C            0.28075768486893        1.35629166775428       -1.68885954509912
N            0.86243668983122        0.35907362310274       -1.04444266461877
C            2.23341909675351        0.47018975846263       -0.60789020150964
C            3.20899533805551       -0.17811002411242       -1.60996551371562
C            4.61947342025922       -0.05764066860562       -1.10480134049275
C            5.35731740422273        1.09140337906003       -1.33692882678806
C            6.64680396924020        1.21935593130438       -0.84363972581478
C            7.22430128097622        0.19764391051412       -0.10424031084890
O            8.46356908856297        0.21146119198965        0.42344578261553
C            9.27847546349580        1.34467003505798        0.23279505848048
C            6.47612341604045       -0.98707016821976        0.13662605675387
O            7.11619146463353       -1.93247151348105        0.85494340962827
C            6.47170042483726       -3.15766465238759        1.10921972523396
C            5.18746207296193       -1.09008224078228       -0.36208993470774
C            0.21403011072262       -0.91768699268696       -0.85750675810349
C           -6.01428293225628        2.69941711167634        0.88457164496413
C           -6.04058391193800        1.64485122702678        1.90220036864866
C           -4.90397192373817        3.64753229392186        0.74087349670133
H           -3.95330047710985        0.44452896900852       -1.57020858898598
H           -6.08613649937000        0.20307926229248       -2.47527646175073
H           -6.66289332908299       -1.36175389969372       -3.09816940313624
H           -4.92376411422183       -0.98759226032722       -3.13065799234115
H           -6.11047678862116       -2.84166379862784        2.98372032343538
H           -6.72349135031873       -4.17791026584428        1.97862905021040
H           -4.97958502767290       -4.05220414799474        2.31547422182694
H           -3.94044739073066       -1.93218641963272        2.74891452300879
H           -2.35053055114034       -0.12624223989947        2.35799694713509
H           -3.01983561793198        2.21922384342849       -1.58428154784300
H           -1.62981678851081        3.11849213643734       -0.99192046363909
H           -1.50345471011478        0.35953787446084       -2.30113434068201
H           -1.16714699672317        1.90751079252489       -3.10593706261122
H           -0.52324997474995        2.65754636905246        0.80126850423773
H            0.85368366635687        2.26550458239442       -1.78803171526658
H            2.33356485633895       -0.01540827543223        0.36588822777864
H            2.49386110143626        1.52387997563081       -0.49122332991340
H            3.11111175545766        0.32885347633051       -2.57162796625314
H            2.94844059710091       -1.22841838110530       -1.74572043751452
H            4.93458143422049        1.89712543350669       -1.91772647421352
H            7.19832181538760        2.12265089090677       -1.04650696891003
H            8.82570655234455        2.24153419116848        0.66651033269224
H            9.48538818587521        1.51563980917127       -0.82791634287758
H           10.20982911825835        1.12447192418050        0.75092138638879
H            7.18760196764449       -3.75222826528663        1.67339377589675
H            5.56610027019091       -3.01888648409017        1.70852322719925
H            6.22060473329104       -3.67919850639841        0.18034603086054
H            4.61289563905376       -1.98628102384199       -0.18744337024366
H           -0.01781430499890       -1.38345070664166       -1.81776902315266
H           -0.70972340681192       -0.79707405234405       -0.28975911094121
H            0.87421187399106       -1.57804054144077       -0.30252352275792
H           -6.88753514081206        2.83076705649308        0.26564890463366
H           -5.08986720254586        1.56225696137203        2.42233553897589
H           -6.28791921024760        0.67949903510946        1.45246911563675
H           -6.83144216641282        1.84064615007923        2.63395609463647
H           -3.97217175814684        3.22895021978504        1.11851561236016
H           -4.78182377202434        3.96307626154214       -0.29496678742018
H           -5.11026996435883        4.55926498212051        1.31580494060997
H           -0.13123129037234        1.62446842674682        2.79854992472134

          :  Hamiltonian                  GFN2-xTB          :
         :: total energy             -99.337228029019 Eh    ::
         :: gradient norm              0.001864670132 Eh/a0 ::
         :: HOMO-LUMO gap              0.448143168445 eV    ::
         :: SCC energy              -100.731327858351 Eh    ::
         :: -> dispersion             -0.072470916970 Eh    ::
         :: repulsion energy           1.392750011633 Eh    ::

    * Orbital Energies and Occupations

         #    Occupation            Energy/Eh            Energy/eV
      -------------------------------------------------------------
         1        2.0000           -0.8035541             -21.8658
       ...           ...                  ...                  ...
        78        1.9993           -0.5334952             -14.5171
        79        1.9990           -0.5285013             -14.3813
        80        1.9988           -0.5253784             -14.2963
        81        1.9987           -0.5242736             -14.2662
        82        1.9984           -0.5214202             -14.1886
        83        1.9974           -0.5130275             -13.9602
        84        1.9962           -0.5073158             -13.8048
        85        1.9862           -0.4867180             -13.2443
        86        1.9804           -0.4811397             -13.0925
        87        1.9338           -0.4614976             -12.5580
        88        1.8782           -0.4513881             -12.2829
        89        1.8581           -0.4488038             -12.2126
        90        1.2425           -0.4159075             -11.3174 (HOMO)
        91        0.7339           -0.3994386             -10.8693 (LUMO)
        92        0.3918           -0.3857145             -10.4958
        93        0.0051           -0.3136235              -8.5341
        94        0.0030           -0.3049279              -8.2975
        95        0.0026           -0.3026525              -8.2356
        96        0.0023           -0.3011115              -8.1937
        97        0.0001           -0.2485703              -6.7639
        98        0.0000           -0.1799424              -4.8965
        99        0.0000           -0.1662961              -4.5251
       100                         -0.1221401              -3.3236
       101                         -0.0591863              -1.6105
       ...                                ...                  ...
       171                          0.5921751              16.1139
      -------------------------------------------------------------
                  HL-Gap            0.0164690 Eh            0.4481 eV

     #   Z          covCN         q      C6AA      α(0)
     1   7 N        1.776    -0.334    29.494     8.042
     2   6 C        2.824     0.068    26.462     8.429
     3   6 C        2.955    -0.036    28.885     8.815
     4   6 C        2.964     0.007    27.862     8.658
     5   6 C        2.918    -0.088    30.202     9.012
     6   6 C        2.859     0.126    25.236     8.234
     7   8 O        1.706    -0.242    18.002     5.728
     8   6 C        3.644     0.032    20.380     6.489
     9   6 C        2.864     0.129    25.169     8.223
    10   8 O        1.706    -0.226    17.748     5.688
    11   6 C        3.645     0.026    20.464     6.502
    12   6 C        2.910    -0.069    29.707     8.937
    13   6 C        2.922    -0.056    29.379     8.889
    14   6 C        3.811    -0.061    21.668     6.626
    15   6 C        3.802    -0.065    21.749     6.640
    16   6 C        2.847     0.008    27.831     8.646
    17   7 N        2.729     0.028    20.764     6.768
    18   6 C        3.757    -0.019    20.958     6.527
    19   6 C        3.808    -0.070    21.838     6.652
    20   6 C        2.969    -0.000    28.036     8.685
    21   6 C        2.922    -0.049    29.224     8.865
    22   6 C        2.914    -0.068    29.691     8.935
    23   6 C        2.865     0.132    25.101     8.212
    24   8 O        1.706    -0.225    17.727     5.685
    25   6 C        3.645     0.026    20.472     6.503
    26   6 C        2.863     0.132    25.103     8.213
    27   8 O        1.706    -0.227    17.767     5.691
    28   6 C        3.645     0.028    20.443     6.499
    29   6 C        2.920    -0.080    29.988     8.980
    30   6 C        3.701    -0.074    22.079     6.719
    31   6 C        2.883    -0.018    28.468     8.747
    32   6 C        3.753    -0.111    22.691     6.793
    33   6 C        3.752    -0.110    22.673     6.790
    34   1 H        0.926     0.044     2.400     2.422
    35   1 H        0.924     0.045     2.385     2.415
    36   1 H        0.925     0.077     2.006     2.215
    37   1 H        0.924     0.044     2.392     2.419
    38   1 H        0.924     0.053     2.280     2.361
    39   1 H        0.925     0.080     1.983     2.202
    40   1 H        0.924     0.054     2.268     2.355
    41   1 H        0.926     0.053     2.278     2.360
    42   1 H        0.926     0.091     1.866     2.136
    43   1 H        0.925     0.055     2.261     2.351
    44   1 H        0.924     0.045     2.385     2.415
    45   1 H        0.925     0.063     2.165     2.301
    46   1 H        0.924     0.069     2.094     2.263
    47   1 H        0.923    -0.008     3.196     2.796
    48   1 H        0.926     0.068     2.109     2.271
    49   1 H        0.924     0.072     2.059     2.244
    50   1 H        0.924     0.069     2.101     2.267
    51   1 H        0.924     0.055     2.257     2.349
    52   1 H        0.924     0.055     2.260     2.351
    53   1 H        0.926     0.044     2.396     2.420
    54   1 H        0.926     0.057     2.235     2.338
    55   1 H        0.924     0.053     2.286     2.365
    56   1 H        0.924     0.055     2.264     2.353
    57   1 H        0.925     0.081     1.972     2.196
    58   1 H        0.925     0.080     1.975     2.198
    59   1 H        0.924     0.048     2.341     2.393
    60   1 H        0.924     0.051     2.303     2.373
    61   1 H        0.926     0.047     2.360     2.403
    62   1 H        0.924     0.075     2.028     2.227
    63   1 H        0.924     0.092     1.861     2.134
    64   1 H        0.925     0.081     1.971     2.195
    65   1 H        0.926     0.056     2.250     2.346
    66   1 H        0.925     0.063     2.164     2.300
    67   1 H        0.924     0.074     2.038     2.232
    68   1 H        0.924     0.087     1.912     2.162
    69   1 H        0.925     0.065     2.141     2.288
    70   1 H        0.925     0.063     2.161     2.299
    71   1 H        0.924     0.090     1.879     2.144
    72   1 H        0.860     0.138     1.482     1.907

Wiberg/Mayer (AO) data.
largest (>0.10) Wiberg bond orders for each atom

     #   Z sym  total        # sym  WBO       # sym  WBO       # sym  WBO
 ---------------------------------------------------------------------------
     1   7 N    2.751 --     2 C    1.662    72 H    0.951
     2   6 C    3.934 --     1 N    1.662     3 C    1.271    47 H    0.934
     3   6 C    3.656 --     2 C    1.271     4 C    1.235    14 C    1.027
     4   6 C    3.958 --    13 C    1.289     5 C    1.272     3 C    1.235
     5   6 C    3.905 --     6 C    1.446     4 C    1.272    34 H    0.956
     6   6 C    3.901 --     5 C    1.446     9 C    1.204     7 O    1.081
     7   8 O    2.238 --     6 C    1.081     8 C    0.983
     8   6 C    3.938 --     7 O    0.983    36 H    0.977    37 H    0.974
                            35 H    0.974
     9   6 C    3.822 --    12 C    1.351     6 C    1.204    10 O    1.108
    10   8 O    2.238 --     9 C    1.108    11 C    0.977
    11   6 C    3.931 --    39 H    0.977    10 O    0.977    38 H    0.973
                            40 H    0.973
    12   6 C    3.964 --    13 C    1.471     9 C    1.351    41 H    0.963
    13   6 C    3.850 --    12 C    1.471     4 C    1.289    42 H    0.940
    14   6 C    3.957 --     3 C    1.027    44 H    0.971    43 H    0.961
                            15 C    0.923
    15   6 C    3.970 --    16 C    1.069    45 H    0.966    46 H    0.956
                            14 C    0.923
    16   6 C    3.584 --    17 N    1.433    15 C    1.069    48 H    0.960
    17   7 N    3.492 --    16 C    1.433    30 C    0.996    18 C    0.989
    18   6 C    3.955 --    17 N    0.989    50 H    0.968    19 C    0.966
                            49 H    0.963
    19   6 C    3.976 --    20 C    1.008    52 H    0.972    51 H    0.971
                            18 C    0.966
    20   6 C    3.948 --    21 C    1.411    29 C    1.380    19 C    1.008
    21   6 C    3.952 --    22 C    1.416    20 C    1.411    53 H    0.968
    22   6 C    3.962 --    21 C    1.416    23 C    1.386    54 H    0.963
    23   6 C    3.898 --    22 C    1.386    26 C    1.223    24 O    1.106
    24   8 O    2.254 --    23 C    1.106    25 C    0.977
    25   6 C    3.930 --    57 H    0.977    24 O    0.977    55 H    0.973
                            56 H    0.973
    26   6 C    3.901 --    29 C    1.397    23 C    1.223    27 O    1.101
    27   8 O    2.253 --    26 C    1.101    28 C    0.979
    28   6 C    3.933 --    27 O    0.979    58 H    0.977    59 H    0.974
                            60 H    0.974
    29   6 C    3.961 --    26 C    1.397    20 C    1.380    61 H    0.962
    30   6 C    3.953 --    17 N    0.996    64 H    0.978    62 H    0.965
                            63 H    0.959
    31   6 C    3.244 --    32 C    1.114    33 C    1.111    65 H    0.972
    32   6 C    3.977 --    31 C    1.114    66 H    0.979    67 H    0.936
                            68 H    0.923
    33   6 C    3.979 --    31 C    1.111    69 H    0.968    70 H    0.963
                            71 H    0.913
    34   1 H    0.997 --     5 C    0.956
    35   1 H    0.995 --     8 C    0.974
    36   1 H    0.993 --     8 C    0.977
    37   1 H    0.995 --     8 C    0.974
    38   1 H    0.992 --    11 C    0.973
    39   1 H    0.993 --    11 C    0.977
    40   1 H    0.991 --    11 C    0.973
    41   1 H    0.995 --    12 C    0.963
    42   1 H    0.988 --    13 C    0.940
    43   1 H    0.990 --    14 C    0.961
    44   1 H    0.994 --    14 C    0.971
    45   1 H    0.994 --    15 C    0.966
    46   1 H    0.985 --    15 C    0.956
    47   1 H    0.975 --     2 C    0.934
    48   1 H    0.995 --    16 C    0.960
    49   1 H    0.990 --    18 C    0.963
    50   1 H    0.994 --    18 C    0.968
    51   1 H    0.995 --    19 C    0.971
    52   1 H    0.996 --    19 C    0.972
    53   1 H    0.997 --    21 C    0.968
    54   1 H    0.995 --    22 C    0.963
    55   1 H    0.992 --    25 C    0.973
    56   1 H    0.992 --    25 C    0.973
    57   1 H    0.993 --    25 C    0.977
    58   1 H    0.993 --    28 C    0.977
    59   1 H    0.994 --    28 C    0.974
    60   1 H    0.993 --    28 C    0.974
    61   1 H    0.997 --    29 C    0.962
    62   1 H    0.985 --    30 C    0.965
    63   1 H    0.984 --    30 C    0.959
    64   1 H    0.993 --    30 C    0.978
    65   1 H    0.996 --    31 C    0.972
    66   1 H    0.995 --    32 C    0.979
    67   1 H    0.960 --    32 C    0.936
    68   1 H    0.947 --    32 C    0.923
    69   1 H    0.987 --    33 C    0.968
    70   1 H    0.980 --    33 C    0.963
    71   1 H    0.937 --    33 C    0.913
    72   1 H    0.972 --     1 N    0.951
 ---------------------------------------------------------------------------

molecular dipole:
                 x           y           z       tot (Debye)
 q only:       -0.696       0.764      -0.687
   full:       -0.587       1.252      -0.906       4.203

           -------------------------------------------------
          | TOTAL ENERGY              -99.337228029019 Eh   |
          | GRADIENT NORM               0.001864670132 Eh/α |
          | HOMO-LUMO GAP               0.448143168445 eV   |
           -------------------------------------------------

 * finished run on 2024/04/06 at 11:11:42.352
