   * xtb version 6.6.1 (8d0f1dd) compiled by 'conda@1efc2f54142f' on 2023-08-01
          program call               : xtb struc.xyz --opt loose --input .xc1 --gfn2

   ID    Z sym.   atoms
    1    6 C      1, 3, 5-7, 10, 11, 14
    2    7 N      2, 4, 9, 13
    3    8 O      8, 12
    4    1 H      15-25
constraining bond 12 22 to    4.6333300 Å, actual value:    3.4782509 Å

          :  Hamiltonian                  GFN2-xTB          :
 * total energy  :   -44.6301292 Eh     change       -0.6650680E-10 Eh
 * total energy  :   -48.5853413 Eh     change       -0.3955212E+01 Eh
 * total energy  :   -54.3792080 Eh     change       -0.5793867E+01 Eh
 * total energy  :   -62.1246559 Eh     change       -0.7745448E+01 Eh
 * total energy  :   -71.0866418 Eh     change       -0.8961986E+01 Eh
 * total energy  :   -43.7967696 Eh     change        0.2728987E+02 Eh
 * total energy  :   -67.5292784 Eh     change       -0.2373251E+02 Eh
 * total energy  :   -67.8526990 Eh     change       -0.3234206E+00 Eh
 * total energy  :   -68.8591863 Eh     change       -0.1006487E+01 Eh
 * total energy  :   -71.2265468 Eh     change       -0.2367361E+01 Eh
 * total energy  :   -72.1147057 Eh     change        0.6159299E-03 Eh
 * total energy  :   -70.8825474 Eh     change        0.1232158E+01 Eh
 * total energy  :   -72.1145916 Eh     change       -0.1232044E+01 Eh
 * total energy  :   -72.1153147 Eh     change       -0.7230803E-03 Eh
 * total energy  :   -72.1154780 Eh     change       -0.1632742E-03 Eh
 * total energy  :   -72.1155107 Eh     change       -0.3269847E-04 Eh
 * total energy  :   -72.1155501 Eh     change       -0.3939471E-04 Eh
 * total energy  :   -72.1155687 Eh     change       -0.1861253E-04 Eh
 * total energy  :   -72.1155851 Eh     change       -0.1641357E-04 Eh
   *** GEOMETRY OPTIMIZATION CONVERGED AFTER 129 ITERATIONS ***

 final structure:
================
25
 xtb: 6.6.1 (8d0f1dd)
C            3.30454819252544        1.21658131132211        0.01432216276196
N            2.36944910064180        0.12378952727871        0.00854610642013
C            2.65589174897743       -1.18030823287310        0.01355775914300
N            1.50881119474810       -1.90160194092089       -0.00561704195407
C            0.46300370168321       -1.02098067505492       -0.01702160615434
C            1.00114435265945        0.25685217890240       -0.00813356083806
C            0.15675650444066        1.42559709297600        0.01739598974775
O            0.51326154912221        2.58615427913789        0.02668527127693
N           -1.19893745933135        1.05097722485216        0.03885162752031
C           -2.12697652963736        2.16646476169591        0.09010720475850
C           -1.72718142162539       -0.17928023559653        0.01864860737879
O           -2.88483520949819       -2.49885009261828       -0.09987846367895
N           -0.86919799976887       -1.23824516329157       -0.03377421111870
C           -1.37133640224516       -2.58750329385570        0.04319314932334
H            3.96999731067753        1.14215218362757        0.87441553576819
H            3.90388344929198        1.20910147323396       -0.89689738930583
H            2.74316838087092        2.14927923134239        0.06688278096768
H            3.64164779631333       -1.59702802628446        0.02928757621678
H           -1.87265569954521        2.88385790366246       -0.69005194760063
H           -3.13797908598393        1.79493979080948       -0.04890170262098
H           -2.04265715060993        2.67251701691399        1.05260709616703
H           -3.03030617506622       -2.37750427689672       -0.45955150495245
H           -1.04502739437139       -3.15416286389735       -0.83419448669883
H           -3.20314475219135       -2.21793700551004        0.79703074682761
H            1.43910351202078       -2.90662362735582        0.03366191854185

          :  Hamiltonian                  GFN2-xTB          :
         :: total energy             -72.115585088422 Eh    ::
         :: gradient norm              0.003679160612 Eh/a0 ::
         :: HOMO-LUMO gap              2.047448438164 eV    ::
         :: SCC energy               -42.601147925411 Eh    ::
         :: -> dispersion             -0.022684796056 Eh    ::
         :: repulsion energy           2.385775511328 Eh    ::

    * Orbital Energies and Occupations

         #    Occupation            Energy/Eh            Energy/eV
      -------------------------------------------------------------
         1        2.0000           -0.9504679             -25.8635
       ...           ...                  ...                  ...
        25        2.0000           -0.6458997             -17.5758
        26        2.0000           -0.6430889             -17.4993
        27        2.0000           -0.6313614             -17.1802
        28        2.0000           -0.6183131             -16.8252
        29        2.0000           -0.6146995             -16.7268
        30        1.9999           -0.6064163             -16.5014
        31        1.9998           -0.5922649             -16.1163
        32        1.9997           -0.5842078             -15.8971
        33        1.9988           -0.5603151             -15.2469
        34        1.9968           -0.5448921             -14.8273
        35        1.9962           -0.5419411             -14.7470
        36        1.9307           -0.4956260             -13.4867
        37        1.8469           -0.4823683             -13.1259 (HOMO)
        38        0.1887           -0.4071259             -11.0785 (LUMO)
        39        0.0348           -0.3790625             -10.3148
        40        0.0077           -0.3548891              -9.6570
        41        0.0000           -0.2565079              -6.9799
        42        0.0000           -0.2254254              -6.1341
        43                         -0.1692544              -4.6056
        44                         -0.1546573              -4.2084
        45                         -0.0986982              -2.6857
        46                         -0.0961321              -2.6159
        47                         -0.0821113              -2.2344
        48                         -0.0360218              -0.9802
       ...                                ...                  ...
        67                          5.6476974             153.6817
      -------------------------------------------------------------
                  HL-Gap            0.0752423 Eh            2.0474 eV

     #   Z          covCN         q      C6AA      α(0)
     1   6 C        3.691    -0.085    22.326     6.762
     2   7 N        2.829     0.059    20.206     6.676
     3   6 C        3.046     0.046    26.914     8.509
     4   7 N        2.786    -0.074    22.681     7.073
     5   6 C        3.056     0.102    25.691     8.312
     6   6 C        3.111    -0.013    28.185     8.697
     7   6 C        2.773     0.254    22.729     7.808
     8   8 O        0.857    -0.406    21.793     6.259
     9   7 N        2.751    -0.018    21.599     6.903
    10   6 C        3.719    -0.060    21.772     6.665
    11   6 C        1.890    -0.151    35.396     9.609
    12   8 O        2.437    -0.247    18.055     5.739
    13   7 N        2.744    -0.005    21.355     6.863
    14   6 C        2.691    -0.119    30.999     9.112
    15   1 H        0.925     0.095     1.829     2.115
    16   1 H        0.924     0.096     1.819     2.109
    17   1 H        0.925     0.130     1.533     1.937
    18   1 H        0.927     0.110     1.700     2.039
    19   1 H        0.925     0.090     1.880     2.144
    20   1 H        0.925     0.082     1.957     2.188
    21   1 H        0.924     0.084     1.941     2.179
    22   1 H        0.818     0.376     0.530     1.143
    23   1 H        0.924     0.043     2.415     2.430
    24   1 H        0.801     0.389     0.505     1.116
    25   1 H        0.860     0.221     1.005     1.570

Wiberg/Mayer (AO) data.
largest (>0.10) Wiberg bond orders for each atom

     #   Z sym  total        # sym  WBO       # sym  WBO       # sym  WBO
 ---------------------------------------------------------------------------
     1   6 C    3.925 --     2 N    0.988    15 H    0.964    17 H    0.963
                            16 H    0.962
     2   7 N    3.632 --     3 C    1.356     6 C    1.150     1 C    0.988
     3   6 C    3.788 --     2 N    1.356     4 N    1.265    18 H    0.956
     4   7 N    3.551 --     3 C    1.265     5 C    1.170    25 H    0.923
     5   6 C    3.932 --     6 C    1.351    13 N    1.187     4 N    1.170
     6   6 C    3.907 --     5 C    1.351     2 N    1.150     7 C    1.095
     7   6 C    3.928 --     8 O    1.654     6 C    1.095     9 N    1.066
     8   8 O    1.971 --     7 C    1.654     9 N    0.130
     9   7 N    3.630 --    11 C    1.354     7 C    1.066    10 C    0.988
                             8 O    0.130
    10   6 C    3.946 --     9 N    0.988    20 H    0.979    19 H    0.968
                            21 H    0.966
    11   6 C    2.855 --     9 N    1.354    13 N    1.238
    12   8 O    2.488 --    22 H    0.855    24 H    0.834    14 C    0.769
    13   7 N    3.614 --    11 C    1.238     5 C    1.187    14 C    0.997
    14   6 C    2.856 --    13 N    0.997    23 H    0.954    12 O    0.769
    15   1 H    0.987 --     1 C    0.964
    16   1 H    0.986 --     1 C    0.962
    17   1 H    0.983 --     1 C    0.963
    18   1 H    0.987 --     3 C    0.956
    19   1 H    0.990 --    10 C    0.968
    20   1 H    0.992 --    10 C    0.979
    21   1 H    0.990 --    10 C    0.966
    22   1 H    0.858 --    12 O    0.855
    23   1 H    0.986 --    14 C    0.954
    24   1 H    0.847 --    12 O    0.834
    25   1 H    0.951 --     4 N    0.923
 ---------------------------------------------------------------------------

molecular dipole:
                 x           y           z       tot (Debye)
 q only:       -0.331      -2.962       0.272
   full:        0.012      -3.001      -0.124       7.635

           -------------------------------------------------
          | TOTAL ENERGY              -72.115585088422 Eh   |
          | GRADIENT NORM               0.003679160612 Eh/α |
          | HOMO-LUMO GAP               2.047448438164 eV   |
           -------------------------------------------------

 * finished run on 2024/06/05 at 19:59:09.860
