   * xtb version 6.6.1 (8d0f1dd) compiled by 'conda@1efc2f54142f' on 2023-08-01
          program call               : xtb xtbopt.xyz --opt crude --input .xc2 --gfn2

   ID    Z sym.   atoms
    1    6 C      1, 3, 5-7, 10, 11, 14
    2    7 N      2, 4, 9, 13
    3    8 O      8, 12
    4    1 H      15-25

          :  Hamiltonian                  GFN2-xTB          :
 * total energy  :   -42.1261404 Eh     change       -0.1492140E-12 Eh
   *** GEOMETRY OPTIMIZATION CONVERGED AFTER 1 ITERATIONS ***

 final structure:
================
25
 xtb: 6.6.1 (8d0f1dd)
C            3.17995416383095        1.09745688819269        0.00258083492482
N            2.37940223451496       -0.09467561189501       -0.04081819523834
C            2.79486485257483       -1.33964120489613       -0.25728752284088
N            1.75251744908560       -2.20913414138973       -0.18418082608257
C            0.64299259452952       -1.48267850656401        0.08923810131177
C            1.02723802869758       -0.14365930707656        0.18334983157796
C           -0.14072085312474        0.66177358042722        0.43878142496504
O           -0.28404749645483        1.86542344173732        0.55654592472159
N           -2.64071287288495        2.75345587874922       -1.35320567094821
C           -2.71123663386304        2.82975354932054       -0.11784933961089
C           -1.25432012869857       -0.39215786797485        0.51711824339079
O           -2.42392552425627       -0.21742247867126        0.73282470398671
N           -0.67942039647505       -1.66263378897111        0.28749385900121
C           -1.43907506107155       -2.88761474102715        0.23353468626634
H            3.58676636656489        1.24327394820894        1.00559404270696
H            4.00312292841111        1.02939611082238       -0.70627277110241
H            2.55076060763505        1.95276093511278       -0.23924195399328
H            3.80711067766754       -1.62815776513886       -0.45921553159795
H           -2.48914720503119        3.71881239250531        0.47942298784996
H           -2.36520462042705        3.54657870266087       -1.92348693202736
H           -3.02226866386049        1.95048388206820        0.43880361307229
H           -1.07665722321253       -3.60069441495008        0.97453018214255
H           -1.38735037614442       -3.33083068034076       -0.76207654431317
H           -2.47454944456354       -2.63419678678663        0.45710771573621
H            1.82433811060242       -3.20743347250982       -0.32211924602677

          :  Hamiltonian                  GFN2-xTB          :
         :: total energy             -42.126140363022 Eh    ::
         :: gradient norm              0.001696811184 Eh/a0 ::
         :: HOMO-LUMO gap              1.255223345743 eV    ::
         :: SCC energy               -42.668406027492 Eh    ::
         :: -> dispersion             -0.020665018796 Eh    ::
         :: repulsion energy           0.542171861523 Eh    ::

    * Orbital Energies and Occupations

         #    Occupation            Energy/Eh            Energy/eV
      -------------------------------------------------------------
         1        2.0000           -0.8998943             -24.4874
       ...           ...                  ...                  ...
        25        2.0000           -0.6503493             -17.6969
        26        2.0000           -0.6485554             -17.6481
        27        1.9999           -0.6455766             -17.5670
        28        1.9999           -0.6312921             -17.1783
        29        1.9996           -0.6133412             -16.6899
        30        1.9996           -0.6126511             -16.6711
        31        1.9994           -0.6063569             -16.4998
        32        1.9993           -0.6046664             -16.4538
        33        1.9991           -0.5993388             -16.3088
        34        1.9981           -0.5877062             -15.9923
        35        1.9587           -0.5390148             -14.6673
        36        1.9204           -0.5283047             -14.3759
        37        1.6667           -0.5033925             -13.6980 (HOMO)
        38        0.4271           -0.4572639             -12.4428 (LUMO)
        39        0.0305           -0.4119088             -11.2086
        40        0.0016           -0.3651671              -9.9367
        41        0.0003           -0.3356250              -9.1328
        42        0.0000           -0.2929648              -7.9720
        43                         -0.1947708              -5.3000
        44                         -0.1806577              -4.9159
        45                         -0.1499396              -4.0801
        46                         -0.0759014              -2.0654
        47                         -0.0581448              -1.5822
        48                         -0.0393359              -1.0704
       ...                                ...                  ...
        67                          0.6142268              16.7140
      -------------------------------------------------------------
                  HL-Gap            0.0461286 Eh            1.2552 eV

     #   Z          covCN         q      C6AA      α(0)
     1   6 C        3.691    -0.086    22.326     6.761
     2   7 N        2.823     0.083    19.800     6.609
     3   6 C        3.080     0.045    26.897     8.502
     4   7 N        2.780    -0.052    22.249     7.006
     5   6 C        3.181     0.104    25.311     8.213
     6   6 C        3.177    -0.032    28.370     8.697
     7   6 C        2.865     0.187    24.011     8.032
     8   8 O        0.856    -0.329    20.310     6.042
     9   7 N        1.770    -0.177    25.609     7.493
    10   6 C        2.759     0.058    26.686     8.460
    11   6 C        2.895     0.237    23.064     7.874
    12   8 O        0.857    -0.305    19.865     5.976
    13   7 N        2.764    -0.056    22.314     7.016
    14   6 C        3.687    -0.065    21.945     6.706
    15   1 H        0.924     0.110     1.699     2.038
    16   1 H        0.925     0.101     1.772     2.082
    17   1 H        0.925     0.119     1.618     1.989
    18   1 H        0.926     0.119     1.617     1.989
    19   1 H        0.924     0.100     1.784     2.089
    20   1 H        0.860     0.197     1.121     1.659
    21   1 H        0.925     0.137     1.484     1.905
    22   1 H        0.924     0.081     1.969     2.194
    23   1 H        0.924     0.081     1.974     2.197
    24   1 H        0.925     0.115     1.650     2.009
    25   1 H        0.860     0.226     0.981     1.551

Wiberg/Mayer (AO) data.
largest (>0.10) Wiberg bond orders for each atom

     #   Z sym  total        # sym  WBO       # sym  WBO       # sym  WBO
 ---------------------------------------------------------------------------
     1   6 C    3.926 --     2 N    0.990    16 H    0.970    17 H    0.968
                            15 H    0.953
     2   7 N    3.669 --     3 C    1.388     6 C    1.156     1 C    0.990
     3   6 C    3.858 --     2 N    1.388     4 N    1.258    18 H    0.954
     4   7 N    3.597 --     3 C    1.258     5 C    1.212    25 H    0.921
     5   6 C    3.885 --     6 C    1.299     4 N    1.212    13 N    1.196
     6   6 C    3.876 --     5 C    1.299     2 N    1.156     7 C    1.107
     7   6 C    3.814 --     8 O    1.692     6 C    1.107    11 C    0.908
     8   8 O    1.907 --     7 C    1.692
     9   7 N    2.976 --    10 C    2.041    20 H    0.916
    10   6 C    3.875 --     9 N    2.041    21 H    0.915    19 H    0.902
    11   6 C    3.840 --    12 O    1.757    13 N    1.057     7 C    0.908
    12   8 O    2.007 --    11 C    1.757    13 N    0.120
    13   7 N    3.530 --     5 C    1.196    11 C    1.057    14 C    0.982
                            12 O    0.120
    14   6 C    3.931 --    13 N    0.982    22 H    0.970    23 H    0.970
                            24 H    0.969
    15   1 H    0.984 --     1 C    0.953
    16   1 H    0.988 --     1 C    0.970
    17   1 H    0.985 --     1 C    0.968
    18   1 H    0.985 --     3 C    0.954
    19   1 H    0.913 --    10 C    0.902
    20   1 H    0.937 --     9 N    0.916
    21   1 H    0.945 --    10 C    0.915
    22   1 H    0.990 --    14 C    0.970
    23   1 H    0.990 --    14 C    0.970
    24   1 H    0.986 --    14 C    0.969
    25   1 H    0.948 --     4 N    0.921
 ---------------------------------------------------------------------------

molecular dipole:
                 x           y           z       tot (Debye)
 q only:        2.464      -1.380      -0.606
   full:        2.888      -1.648      -0.551       8.567

           -------------------------------------------------
          | TOTAL ENERGY              -42.126140363022 Eh   |
          | GRADIENT NORM               0.001696811184 Eh/α |
          | HOMO-LUMO GAP               1.255223345743 eV   |
           -------------------------------------------------

 * finished run on 2024/06/05 at 20:00:13.489
