   * xtb version 6.6.1 (8d0f1dd) compiled by 'conda@1efc2f54142f' on 2023-08-01
          program call               : xtb xtbopt.xyz --opt crude --input .xc2 --gfn2

   ID    Z sym.   atoms
    1    6 C      1, 3, 5-7, 10, 11, 14
    2    7 N      2, 4, 9, 13
    3    8 O      8, 12
    4    1 H      15-25

          :  Hamiltonian                  GFN2-xTB          :
 * total energy  :   -42.1104232 Eh     change       -0.2131628E-12 Eh
   *** GEOMETRY OPTIMIZATION CONVERGED AFTER 1 ITERATIONS ***

 final structure:
================
25
 xtb: 6.6.1 (8d0f1dd)
C            3.84055998515253        3.11728233877258        0.06153333317350
N            2.21859169949951       -0.81993907129808       -0.02720107796449
C            2.21597549779885       -2.12091112999088       -0.03367142100194
N            0.94838811107823       -2.64008280902630       -0.02652090376832
C            0.10485157195767       -1.57684398889671       -0.01540121749752
C            0.92283052275662       -0.43488034096472       -0.01570697159695
C            0.33914218665476        0.88918794456011       -0.00530687710557
O            0.95000083948998        1.93513751698730        0.00143778324172
N           -1.05333903635231        0.84616536328832       -0.00407760117123
C           -1.77154550170388        2.11413886718364       -0.00126204163764
C           -1.86818953895208       -0.26976407010348       -0.00382211990559
O           -3.06578482677171       -0.19275942295455       -0.00173004459416
N           -1.23372497446578       -1.53317714926704       -0.00588817428732
C           -2.05225532438837       -2.72498961258766       -0.00150587222051
H            4.26159031094178        3.45109961584378        0.99315466812423
H            4.42337023105865        3.19948775652063       -0.83832200583993
H            2.84289164215277        2.70262697049811        0.03081246118623
H            3.09929099774250       -2.72752540656515       -0.04394305864371
H           -1.04068727570375        2.91835159413566       -0.01439823025161
H           -2.41766053160648        2.17386457783883       -0.87676593032266
H           -2.39550056692724        2.18380828195680        0.88949426961624
H           -1.84797312524660       -3.32333903865793        0.88754818941574
H           -1.86476774723260       -3.31931222875584       -0.89691680172095
H           -3.09579598750635       -2.41134317153249        0.00870061731436
H            0.70017235467000       -3.61804484538258       -0.02906935464197

          :  Hamiltonian                  GFN2-xTB          :
         :: total energy             -42.110423176631 Eh    ::
         :: gradient norm              0.000989405374 Eh/a0 ::
         :: HOMO-LUMO gap              0.509755259472 eV    ::
         :: SCC energy               -42.634923997317 Eh    ::
         :: -> dispersion             -0.020912046901 Eh    ::
         :: repulsion energy           0.524431524231 Eh    ::

    * Orbital Energies and Occupations

         #    Occupation            Energy/Eh            Energy/eV
      -------------------------------------------------------------
         1        2.0000           -0.8828161             -24.0226
       ...           ...                  ...                  ...
        25        2.0000           -0.6513877             -17.7252
        26        2.0000           -0.6406760             -17.4337
        27        2.0000           -0.6314346             -17.1822
        28        2.0000           -0.6302939             -17.1512
        29        2.0000           -0.6257620             -17.0279
        30        2.0000           -0.6204298             -16.8828
        31        1.9998           -0.6053656             -16.4728
        32        1.9997           -0.6008270             -16.3493
        33        1.9964           -0.5819151             -15.8347
        34        1.9672           -0.5643151             -15.3558
        35        1.9552           -0.5617969             -15.2873
        36        1.9113           -0.5562114             -15.1353
        37        1.6109           -0.5431537             -14.7800 (HOMO)
        38        0.5596           -0.5244206             -14.2702 (LUMO)
        39        0.0000           -0.4056191             -11.0375
        40                         -0.3872964             -10.5389
        41                         -0.3576883              -9.7332
        42                         -0.2765260              -7.5247
        43                         -0.1961498              -5.3375
        44                         -0.1529681              -4.1625
        45                         -0.1270790              -3.4580
        46                         -0.0671859              -1.8282
        47                         -0.0442130              -1.2031
        48                         -0.0329568              -0.8968
       ...                                ...                  ...
        67                          0.5576266              15.1738
      -------------------------------------------------------------
                  HL-Gap            0.0187332 Eh            0.5098 eV

     #   Z          covCN         q      C6AA      α(0)
     1   6 C        2.778    -0.054    29.313     8.868
     2   7 N        1.901    -0.172    25.525     7.490
     3   6 C        3.162     0.109    25.298     8.222
     4   7 N        2.786    -0.082    22.839     7.098
     5   6 C        3.054     0.116    25.393     8.264
     6   6 C        3.208     0.027    26.786     8.427
     7   6 C        2.764     0.275    22.350     7.742
     8   8 O        0.858    -0.360    20.905     6.130
     9   7 N        2.744    -0.081    22.819     7.095
    10   6 C        3.711    -0.061    21.808     6.674
    11   6 C        2.731     0.319    21.576     7.605
    12   8 O        0.860    -0.349    20.686     6.098
    13   7 N        2.737    -0.041    22.036     6.972
    14   6 C        3.697    -0.070    22.021     6.712
    15   1 H        0.926     0.150     1.389     1.843
    16   1 H        0.926     0.150     1.390     1.844
    17   1 H        0.926     0.182     1.197     1.711
    18   1 H        0.926     0.108     1.717     2.049
    19   1 H        0.925     0.110     1.700     2.039
    20   1 H        0.925     0.100     1.782     2.087
    21   1 H        0.925     0.100     1.784     2.089
    22   1 H        0.924     0.091     1.867     2.137
    23   1 H        0.924     0.091     1.866     2.136
    24   1 H        0.925     0.128     1.553     1.949
    25   1 H        0.860     0.214     1.036     1.595

Wiberg/Mayer (AO) data.
largest (>0.10) Wiberg bond orders for each atom

     #   Z sym  total        # sym  WBO       # sym  WBO       # sym  WBO
 ---------------------------------------------------------------------------
     1   6 C    2.911 --    16 H    0.976    15 H    0.976    17 H    0.948
     2   7 N    3.013 --     3 C    1.547     6 C    1.290
     3   6 C    3.828 --     2 N    1.547     4 N    1.215    18 H    0.956
     4   7 N    3.582 --     5 C    1.221     3 C    1.215    25 H    0.925
     5   6 C    3.889 --     6 C    1.258    13 N    1.231     4 N    1.221
     6   6 C    3.820 --     2 N    1.290     5 C    1.258     7 C    1.066
     7   6 C    3.950 --     8 O    1.673     9 N    1.110     6 C    1.066
     8   8 O    1.990 --     7 C    1.673     9 N    0.136
     9   7 N    3.545 --    11 C    1.129     7 C    1.110    10 C    0.970
                             8 O    0.136    12 O    0.130
    10   6 C    3.908 --     9 N    0.970    19 H    0.969    20 H    0.961
                            21 H    0.961
    11   6 C    3.954 --    12 O    1.702     9 N    1.129    13 N    1.032
    12   8 O    2.017 --    11 C    1.702     9 N    0.130    13 N    0.104
    13   7 N    3.484 --     5 C    1.231    11 C    1.032    14 C    0.980
                            12 O    0.104
    14   6 C    3.914 --    13 N    0.980    24 H    0.964    22 H    0.961
                            23 H    0.961
    15   1 H    0.977 --     1 C    0.976
    16   1 H    0.977 --     1 C    0.976
    17   1 H    0.967 --     1 C    0.948
    18   1 H    0.987 --     3 C    0.956
    19   1 H    0.987 --    10 C    0.969
    20   1 H    0.980 --    10 C    0.961
    21   1 H    0.980 --    10 C    0.961
    22   1 H    0.978 --    14 C    0.961
    23   1 H    0.977 --    14 C    0.961
    24   1 H    0.983 --    14 C    0.964
    25   1 H    0.953 --     4 N    0.925
 ---------------------------------------------------------------------------

molecular dipole:
                 x           y           z       tot (Debye)
 q only:        2.265      -0.727       0.026
   full:        2.123      -1.443       0.024       6.525

           -------------------------------------------------
          | TOTAL ENERGY              -42.110423176631 Eh   |
          | GRADIENT NORM               0.000989405374 Eh/α |
          | HOMO-LUMO GAP               0.509755259472 eV   |
           -------------------------------------------------

 * finished run on 2024/06/05 at 19:57:53.676
