   * xtb version 6.6.1 (8d0f1dd) compiled by 'conda@1efc2f54142f' on 2023-08-01
          program call               : xtb struc.xyz --opt loose --input .xc1 --gfn2

   ID    Z sym.   atoms
    1    6 C      1, 3, 5-7, 10, 11, 14
    2    7 N      2, 4, 9, 13
    3    8 O      8, 12
    4    1 H      15-25
constraining bond 11 20 to    5.1400000 Å, actual value:    2.6644824 Å

          :  Hamiltonian                  GFN2-xTB          :
 * total energy  :   -31.3032086 Eh     change       -0.6633627E-10 Eh
 * total energy  :   -35.5477876 Eh     change       -0.4244579E+01 Eh
 * total energy  :   -38.7417580 Eh     change       -0.3193970E+01 Eh
 * total energy  :   -40.6457227 Eh     change       -0.1903965E+01 Eh
 * total energy  :   -41.5470059 Eh     change       -0.9012832E+00 Eh
 * total energy  :   -41.7846696 Eh     change       -0.2376637E+00 Eh
 * total energy  :   -41.8353086 Eh     change       -0.5063900E-01 Eh
 * total energy  :   -41.8849774 Eh     change       -0.4966883E-01 Eh
 * total energy  :   -41.8997775 Eh     change       -0.1480005E-01 Eh
 * total energy  :   -41.9090979 Eh     change       -0.9320388E-02 Eh
 * total energy  :   -42.0769121 Eh     change       -0.2949841E-02 Eh
 * total energy  :   -42.0787661 Eh     change       -0.1854021E-02 Eh
 * total energy  :   -42.0791636 Eh     change       -0.3975057E-03 Eh
 * total energy  :   -42.0794093 Eh     change       -0.2456458E-03 Eh
 * total energy  :   -42.0795525 Eh     change       -0.1432897E-03 Eh
 * total energy  :   -42.0796890 Eh     change       -0.1364676E-03 Eh
 * total energy  :   -42.0797924 Eh     change       -0.1033880E-03 Eh
 * total energy  :   -42.0798705 Eh     change       -0.7807336E-04 Eh
 * total energy  :   -42.0799039 Eh     change       -0.3347673E-04 Eh
   *** GEOMETRY OPTIMIZATION CONVERGED AFTER 32 ITERATIONS ***

 final structure:
================
25
 xtb: 6.6.1 (8d0f1dd)
C            3.21902528086518        1.12464640885424       -0.02598322969137
N            2.29001292916936        0.02600349259707       -0.02151890051342
C            2.58689797435481       -1.26499493344023       -0.05870337073134
N            1.45599337315089       -1.99902262916467       -0.02132827998608
C            0.39740764033981       -1.14228915958770        0.04262898932702
C            0.91869722798588        0.14589085452427        0.04483204639214
C            0.08927600357968        1.31465969306262        0.08323911019095
O            0.44418518629726        2.47224701177613        0.06772869695340
N           -1.30057019339574        0.96477878002609        0.14257987174122
C           -2.18147356828749        1.97452220045585        0.20403394905276
C           -1.83487745812259       -0.35866346289737        0.14450239910002
O           -3.01746320925493       -0.54947897222888        0.18573263148268
N           -0.92180512418497       -1.40898813547906        0.09095651212564
C           -1.42393693296069       -2.77089217911898        0.08848882691255
H            3.72820293280963        1.19296965624361        0.93644014009646
H            3.96278531347089        0.98696264988570       -0.80927899294325
H            2.66782998201763        2.04903798141630       -0.19581958777818
H            3.57736392332477       -1.67282833126263       -0.11319333608353
H           -1.79423390924476        2.97596102253895        0.22683027377807
H           -3.18843392329677        4.33864913809246       -1.44313069113496
H           -3.23002087944328        1.74495996610436        0.23499767918274
H           -1.08778554591054       -3.30244424279562        0.97903052323564
H           -1.09798040009351       -3.29312296051709       -0.81075689392125
H           -2.51200684643036       -2.72176964046470        0.09586710469368
H            1.41334173735988       -3.00855566702088       -0.03700385358163

          :  Hamiltonian                  GFN2-xTB          :
         :: total energy             -42.079903946608 Eh    ::
         :: gradient norm              0.003116464264 Eh/a0 ::
         :: HOMO-LUMO gap              0.204125495767 eV    ::
         :: SCC energy               -42.602410861434 Eh    ::
         :: -> dispersion             -0.022691382965 Eh    ::
         :: repulsion energy           0.522420429734 Eh    ::

    * Orbital Energies and Occupations

         #    Occupation            Energy/Eh            Energy/eV
      -------------------------------------------------------------
         1        2.0000           -0.9165640             -24.9410
       ...           ...                  ...                  ...
        25        2.0000           -0.6703721             -18.2418
        26        2.0000           -0.6679027             -18.1746
        27        2.0000           -0.6619425             -18.0124
        28        2.0000           -0.6353908             -17.2899
        29        2.0000           -0.6304701             -17.1560
        30        2.0000           -0.6285670             -17.1042
        31        2.0000           -0.6212564             -16.9052
        32        2.0000           -0.6149345             -16.7332
        33        2.0000           -0.6092971             -16.5798
        34        2.0000           -0.5846532             -15.9092
        35        2.0000           -0.5648218             -15.3696
        36        2.0000           -0.5601502             -15.2425
        37        1.2215           -0.4722967             -12.8518 (HOMO)
        38        0.7565           -0.4647953             -12.6477 (LUMO)
        39        0.0217           -0.4329961             -11.7824
        40        0.0003           -0.4000567             -10.8861
        41        0.0000           -0.3720857             -10.1250
        42                         -0.2875059              -7.8234
        43                         -0.2083133              -5.6685
        44                         -0.1998308              -5.4377
        45                         -0.1520540              -4.1376
        46                         -0.1448475              -3.9415
        47                         -0.0821361              -2.2350
        48                         -0.0565757              -1.5395
       ...                                ...                  ...
        67                          0.5499263              14.9643
      -------------------------------------------------------------
                  HL-Gap            0.0075015 Eh            0.2041 eV

     #   Z          covCN         q      C6AA      α(0)
     1   6 C        3.691    -0.095    22.514     6.790
     2   7 N        2.834     0.084    19.786     6.606
     3   6 C        3.057     0.053    26.753     8.482
     4   7 N        2.796    -0.053    22.272     7.009
     5   6 C        3.046     0.105    25.636     8.304
     6   6 C        3.114    -0.024    28.448     8.737
     7   6 C        2.776     0.253    22.743     7.811
     8   8 O        0.857    -0.367    21.039     6.150
     9   7 N        2.741    -0.032    21.857     6.944
    10   6 C        2.815    -0.026    28.636     8.768
    11   6 C        2.736     0.309    21.742     7.634
    12   8 O        0.859    -0.349    20.687     6.098
    13   7 N        2.737    -0.049    22.188     6.996
    14   6 C        3.699    -0.074    22.087     6.721
    15   1 H        0.924     0.110     1.694     2.036
    16   1 H        0.925     0.106     1.735     2.060
    17   1 H        0.925     0.137     1.482     1.904
    18   1 H        0.926     0.127     1.560     1.953
    19   1 H        0.926     0.134     1.508     1.921
    20   1 H        0.000    -0.002     7.724     5.082
    21   1 H        0.926     0.128     1.549     1.946
    22   1 H        0.924     0.084     1.937     2.176
    23   1 H        0.925     0.083     1.950     2.184
    24   1 H        0.925     0.128     1.551     1.947
    25   1 H        0.860     0.231     0.960     1.535

Wiberg/Mayer (AO) data.
largest (>0.10) Wiberg bond orders for each atom

     #   Z sym  total        # sym  WBO       # sym  WBO       # sym  WBO
 ---------------------------------------------------------------------------
     1   6 C    3.915 --     2 N    0.985    16 H    0.964    17 H    0.961
                            15 H    0.955
     2   7 N    3.688 --     3 C    1.404     6 C    1.149     1 C    0.985
     3   6 C    3.886 --     2 N    1.404     4 N    1.287    18 H    0.952
     4   7 N    3.607 --     3 C    1.287     5 C    1.192    25 H    0.918
     5   6 C    3.907 --     6 C    1.325    13 N    1.195     4 N    1.192
     6   6 C    3.917 --     5 C    1.325     2 N    1.149     7 C    1.112
     7   6 C    3.882 --     8 O    1.671     6 C    1.112     9 N    0.997
     8   8 O    1.967 --     7 C    1.671     9 N    0.113
     9   7 N    3.631 --    10 C    1.340    11 C    1.014     7 C    0.997
                             8 O    0.113
    10   6 C    3.401 --     9 N    1.340    21 H    0.961    19 H    0.956
    11   6 C    3.916 --    12 O    1.714    13 N    1.086     9 N    1.014
    12   8 O    2.034 --    11 C    1.714    13 N    0.136
    13   7 N    3.575 --     5 C    1.195    11 C    1.086    14 C    0.970
                            12 O    0.136
    14   6 C    3.924 --    23 H    0.972    22 H    0.972    13 N    0.970
                            24 H    0.965
    15   1 H    0.985 --     1 C    0.955
    16   1 H    0.987 --     1 C    0.964
    17   1 H    0.981 --     1 C    0.961
    18   1 H    0.983 --     3 C    0.952
    19   1 H    0.981 --    10 C    0.956
    20   1 H    0.057
    21   1 H    0.983 --    10 C    0.961
    22   1 H    0.991 --    14 C    0.972
    23   1 H    0.992 --    14 C    0.972
    24   1 H    0.983 --    14 C    0.965
    25   1 H    0.946 --     4 N    0.918
 ---------------------------------------------------------------------------

molecular dipole:
                 x           y           z       tot (Debye)
 q only:        2.613      -2.212       0.032
   full:        2.867      -2.675       0.015       9.967

           -------------------------------------------------
          | TOTAL ENERGY              -42.079903946608 Eh   |
          | GRADIENT NORM               0.003116464264 Eh/α |
          | HOMO-LUMO GAP               0.204125495767 eV   |
           -------------------------------------------------

 * finished run on 2024/06/05 at 19:58:06.224
