   * xtb version 6.6.1 (8d0f1dd) compiled by 'conda@1efc2f54142f' on 2023-08-01
          program call               : xtb struc.xyz --opt loose --input .xc1 --gfn2

   ID    Z sym.   atoms
    1    6 C      1, 3, 5-7, 10, 11, 14
    2    7 N      2, 4, 9, 13
    3    8 O      8, 12
    4    1 H      15-25
constraining bond 5 24 to    5.1400000 Å, actual value:    3.3054035 Å

          :  Hamiltonian                  GFN2-xTB          :
 * total energy  :   -36.2356389 Eh     change       -0.6633627E-10 Eh
 * total energy  :   -39.0568754 Eh     change       -0.2821237E+01 Eh
 * total energy  :   -40.8279849 Eh     change       -0.1771110E+01 Eh
 * total energy  :   -41.5919435 Eh     change       -0.7639586E+00 Eh
 * total energy  :   -41.7894104 Eh     change       -0.1974669E+00 Eh
 * total energy  :   -41.8491865 Eh     change       -0.5977613E-01 Eh
 * total energy  :   -41.9274645 Eh     change       -0.7827793E-01 Eh
 * total energy  :   -41.9844624 Eh     change       -0.5699794E-01 Eh
 * total energy  :   -42.0086841 Eh     change       -0.2422168E-01 Eh
 * total energy  :   -42.0256497 Eh     change       -0.1696556E-01 Eh
 * total energy  :   -42.0779861 Eh     change       -0.1417254E-02 Eh
 * total energy  :   -42.0752947 Eh     change        0.2691427E-02 Eh
 * total energy  :   -42.0790558 Eh     change       -0.3761099E-02 Eh
 * total energy  :   -42.0792749 Eh     change       -0.2190623E-03 Eh
 * total energy  :   -42.0795333 Eh     change       -0.2584189E-03 Eh
 * total energy  :   -42.0798148 Eh     change       -0.2815508E-03 Eh
 * total energy  :   -42.0799190 Eh     change       -0.1042134E-03 Eh
 * total energy  :   -42.0800396 Eh     change       -0.1205808E-03 Eh
 * total energy  :   -42.0800788 Eh     change       -0.3921645E-04 Eh
   *** GEOMETRY OPTIMIZATION CONVERGED AFTER 48 ITERATIONS ***

 final structure:
================
25
 xtb: 6.6.1 (8d0f1dd)
C            3.28129697881936        1.25280915070677        0.08967422806830
N            2.37424999233270        0.13508443264078        0.04718053258584
C            2.69972784374080       -1.14597198995791        0.03790572119279
N            1.59224774045105       -1.90761418994820       -0.00037471388282
C            0.50342823317931       -1.06671255135323       -0.01682004563583
C            1.00562891265630        0.23043336724221        0.01225537870433
C            0.14513571746677        1.39548604551567        0.00400023364140
O            0.51489751564548        2.54645964356322        0.03694231953868
N           -1.19927040366284        1.02271573838704       -0.05014979855854
C           -2.18670762510852        2.09860708608751       -0.08109393876416
C           -1.73807670578799       -0.23631428594799       -0.09577265061338
O           -2.91321078993679       -0.45392693119303       -0.16366223219445
N           -0.81607301664896       -1.36290396921410       -0.05603329716818
C           -1.34056453850249       -2.60054525579811       -0.08094123603908
H            3.87360678702836        1.22327800239758        1.00427462575002
H            3.95511663213247        1.22591422083956       -0.76638124650381
H            2.70045700527712        2.17482242950207        0.06631058957274
H            3.70244201716355       -1.52894016714787        0.05733011321269
H           -1.65324146560177        3.04442294488247       -0.03661751289095
H           -2.77053739887807        2.03621122180256       -0.99811694503765
H           -2.86106737055617        2.00377072615719        0.76839559740241
H           -0.70079578859622       -3.45760336971774       -0.02286362800877
H           -2.42125291013977       -2.70231403997841       -0.05434444750535
H           -4.16175212576514       -3.19154808710997        0.34671637231444
H            1.57474627739065       -2.91738163075654       -0.01664240128079

          :  Hamiltonian                  GFN2-xTB          :
         :: total energy             -42.080078841877 Eh    ::
         :: gradient norm              0.003336675205 Eh/a0 ::
         :: HOMO-LUMO gap              0.113268054868 eV    ::
         :: SCC energy               -42.602847874794 Eh    ::
         :: -> dispersion             -0.022880342059 Eh    ::
         :: repulsion energy           0.522687947805 Eh    ::

    * Orbital Energies and Occupations

         #    Occupation            Energy/Eh            Energy/eV
      -------------------------------------------------------------
         1        2.0000           -0.9218896             -25.0859
       ...           ...                  ...                  ...
        25        2.0000           -0.6687148             -18.1967
        26        2.0000           -0.6673711             -18.1601
        27        2.0000           -0.6585111             -17.9190
        28        2.0000           -0.6378717             -17.3574
        29        2.0000           -0.6303630             -17.1530
        30        2.0000           -0.6279462             -17.0873
        31        2.0000           -0.6218102             -16.9203
        32        2.0000           -0.5970866             -16.2476
        33        2.0000           -0.5905832             -16.0706
        34        2.0000           -0.5830368             -15.8652
        35        2.0000           -0.5628682             -15.3164
        36        1.9999           -0.5612352             -15.2720
        37        1.1238           -0.4805659             -13.0769 (HOMO)
        38        0.8624           -0.4764034             -12.9636 (LUMO)
        39        0.0138           -0.4392256             -11.9519
        40        0.0001           -0.3997346             -10.8773
        41        0.0000           -0.3725791             -10.1384
        42                         -0.2883445              -7.8463
        43                         -0.2132450              -5.8027
        44                         -0.2024803              -5.5098
        45                         -0.1512931              -4.1169
        46                         -0.1345585              -3.6615
        47                         -0.0673888              -1.8337
        48                         -0.0425422              -1.1576
       ...                                ...                  ...
        67                          0.5565199              15.1437
      -------------------------------------------------------------
                  HL-Gap            0.0041625 Eh            0.1133 eV

     #   Z          covCN         q      C6AA      α(0)
     1   6 C        3.692    -0.099    22.578     6.799
     2   7 N        2.836     0.093    19.633     6.581
     3   6 C        3.059     0.061    26.567     8.453
     4   7 N        2.793    -0.054    22.286     7.011
     5   6 C        3.043     0.091    25.934     8.353
     6   6 C        3.119    -0.019    28.296     8.712
     7   6 C        2.763     0.268    22.476     7.764
     8   8 O        0.858    -0.371    21.107     6.160
     9   7 N        2.745    -0.080    22.802     7.092
    10   6 C        3.713    -0.064    21.865     6.681
    11   6 C        2.735     0.311    21.725     7.631
    12   8 O        0.859    -0.340    20.516     6.073
    13   7 N        2.735     0.008    21.118     6.825
    14   6 C        2.795    -0.064    29.567     8.907
    15   1 H        0.925     0.111     1.691     2.034
    16   1 H        0.925     0.110     1.696     2.037
    17   1 H        0.925     0.142     1.444     1.879
    18   1 H        0.926     0.131     1.530     1.934
    19   1 H        0.925     0.115     1.657     2.013
    20   1 H        0.925     0.097     1.814     2.106
    21   1 H        0.925     0.097     1.815     2.107
    22   1 H        0.926     0.082     1.960     2.189
    23   1 H        0.925     0.133     1.511     1.922
    24   1 H        0.000     0.010     7.219     4.913
    25   1 H        0.860     0.232     0.959     1.534

Wiberg/Mayer (AO) data.
largest (>0.10) Wiberg bond orders for each atom

     #   Z sym  total        # sym  WBO       # sym  WBO       # sym  WBO
 ---------------------------------------------------------------------------
     1   6 C    3.910 --     2 N    0.982    16 H    0.959    17 H    0.959
                            15 H    0.958
     2   7 N    3.718 --     3 C    1.418     6 C    1.170     1 C    0.982
     3   6 C    3.914 --     2 N    1.418     4 N    1.307    18 H    0.950
     4   7 N    3.576 --     3 C    1.307     5 C    1.158    25 H    0.917
     5   6 C    3.883 --     6 C    1.331    13 N    1.172     4 N    1.158
     6   6 C    3.864 --     5 C    1.331     2 N    1.170     7 C    1.071
     7   6 C    3.930 --     8 O    1.677     9 N    1.090     6 C    1.071
     8   8 O    2.005 --     7 C    1.677     9 N    0.144
     9   7 N    3.582 --    11 C    1.166     7 C    1.090    10 C    0.961
                            12 O    0.153     8 O    0.144
    10   6 C    3.917 --    19 H    0.969    21 H    0.969    20 H    0.968
                             9 N    0.961
    11   6 C    3.930 --    12 O    1.729     9 N    1.166    13 N    0.937
    12   8 O    2.063 --    11 C    1.729     9 N    0.153
    13   7 N    3.631 --    14 C    1.288     5 C    1.172    11 C    0.937
    14   6 C    3.305 --    13 N    1.288    22 H    0.969    23 H    0.917
    15   1 H    0.987 --     1 C    0.958
    16   1 H    0.987 --     1 C    0.959
    17   1 H    0.980 --     1 C    0.959
    18   1 H    0.982 --     3 C    0.950
    19   1 H    0.986 --    10 C    0.969
    20   1 H    0.990 --    10 C    0.968
    21   1 H    0.990 --    10 C    0.969
    22   1 H    0.991 --    14 C    0.969
    23   1 H    0.981 --    14 C    0.917
    24   1 H    0.060
    25   1 H    0.946 --     4 N    0.917
 ---------------------------------------------------------------------------

molecular dipole:
                 x           y           z       tot (Debye)
 q only:        2.947      -1.814       0.058
   full:        3.268      -2.396       0.087      10.301

           -------------------------------------------------
          | TOTAL ENERGY              -42.080078841877 Eh   |
          | GRADIENT NORM               0.003336675205 Eh/α |
          | HOMO-LUMO GAP               0.113268054868 eV   |
           -------------------------------------------------

 * finished run on 2024/06/05 at 19:57:59.831
