   * xtb version 6.6.1 (8d0f1dd) compiled by 'conda@1efc2f54142f' on 2023-08-01
          program call               : xtb struc.xyz --opt loose --input .xc1 --gfn2

   ID    Z sym.   atoms
    1    6 C      1, 3, 5-7, 10, 11, 14
    2    7 N      2, 4, 9, 13
    3    8 O      8, 12
    4    1 H      15-25
constraining bond 11 23 to    3.7133300 Å, actual value:    3.1827480 Å

          :  Hamiltonian                  GFN2-xTB          :
 * total energy  :   -42.7627085 Eh     change       -0.2401990E-09 Eh
 * total energy  :   -44.9528351 Eh     change       -0.2190127E+01 Eh
 * total energy  :   -48.8067214 Eh     change       -0.3853886E+01 Eh
 * total energy  :   -54.5040177 Eh     change       -0.5697296E+01 Eh
 * total energy  :   -58.1359587 Eh     change       -0.3631941E+01 Eh
 * total energy  :   -57.9945136 Eh     change        0.1414451E+00 Eh
 * total energy  :   -58.9504241 Eh     change       -0.9559105E+00 Eh
 * total energy  :   -58.0955864 Eh     change        0.8548377E+00 Eh
 * total energy  :   -59.3357541 Eh     change       -0.1240168E+01 Eh
 * total energy  :   -59.4145078 Eh     change       -0.7875366E-01 Eh
 * total energy  :   -59.7614007 Eh     change       -0.1334893E-03 Eh
 * total energy  :   -59.7615116 Eh     change       -0.1109793E-03 Eh
 * total energy  :   -59.7614687 Eh     change        0.4294615E-04 Eh
 * total energy  :   -59.7616875 Eh     change       -0.2188383E-03 Eh
 * total energy  :   -59.7617479 Eh     change       -0.6031521E-04 Eh
 * total energy  :   -59.7618198 Eh     change       -0.7197666E-04 Eh
 * total energy  :   -59.7618890 Eh     change       -0.6916634E-04 Eh
 * total energy  :   -59.7619227 Eh     change       -0.3369980E-04 Eh
 * total energy  :   -59.7619496 Eh     change       -0.2686081E-04 Eh
   *** GEOMETRY OPTIMIZATION CONVERGED AFTER 61 ITERATIONS ***

 final structure:
================
25
 xtb: 6.6.1 (8d0f1dd)
C            3.05031516565567        1.09385152260984       -0.24863622462208
N            2.18525133214883       -0.02963520882182       -0.00998254773000
C            2.60059454262967       -1.27468593435162        0.21080515449858
N            1.54215313504961       -2.08339827626952        0.36902700228889
C            0.38367802005290       -1.33623962614363        0.22545933299687
C            0.80653066772019       -0.01874057646320       -0.03237593410541
C            0.00614816240762        1.21310165367287       -0.02159615604851
O            0.48019915198842        2.28338029180301        0.32046578049689
N           -1.32629272714244        1.06688753258159       -0.34149143291586
C           -2.26880504271132        2.07801954562138        0.07118323056016
C           -1.79625396178190       -0.04387992322455       -1.16785646595288
O           -3.02732841997750       -0.10916324298434       -1.24667194337752
N           -0.87833388019494       -1.76047783611759        0.27065690913645
C           -1.36387129739844       -2.84980355585573        0.73632667864472
H            3.98955256041347        0.95433449575852        0.28303407495002
H            3.25819795039474        1.19285717595311       -1.31676033964915
H            2.56093748095068        2.00600239066046        0.09610997454417
H            3.62652328635597       -1.58447874722929        0.25588525680229
H           -1.75141979006646        2.83488177514256        0.65616952914911
H           -2.73503398090670        2.53663745172381       -0.80329173156218
H           -3.05812971820524        1.60686661157616        0.66049272237708
H           -0.79783838989515       -3.60372564137041        1.27550449143300
H           -1.49051181624518       -0.27103716434628       -1.35473188039821
H           -2.42250733096140       -3.00583254228805        0.60524262224569
H            1.58667641381964       -3.07748363003956        0.53820351413707

          :  Hamiltonian                  GFN2-xTB          :
         :: total energy             -59.761949556735 Eh    ::
         :: gradient norm              0.003858251168 Eh/a0 ::
         :: HOMO-LUMO gap              2.364916442296 eV    ::
         :: SCC energy               -42.714502917246 Eh    ::
         :: -> dispersion             -0.022539821152 Eh    ::
         :: repulsion energy           2.268169936652 Eh    ::

    * Orbital Energies and Occupations

         #    Occupation            Energy/Eh            Energy/eV
      -------------------------------------------------------------
         1        2.0000           -0.9038178             -24.5941
       ...           ...                  ...                  ...
        25        1.9986           -0.6662837             -18.1305
        26        1.9983           -0.6609155             -17.9844
        27        1.9979           -0.6561036             -17.8535
        28        1.9968           -0.6465082             -17.5924
        29        1.9947           -0.6344149             -17.2633
        30        1.9942           -0.6321345             -17.2013
        31        1.9876           -0.6141856             -16.7128
        32        1.9816           -0.6047010             -16.4548
        33        1.9546           -0.5829823             -15.8638
        34        1.9301           -0.5724158             -15.5762
        35        1.8970           -0.5627926             -15.3144
        36        1.8774           -0.5583983             -15.1948
        37        1.8105           -0.5471979             -14.8900 (HOMO)
        38        0.3949           -0.4602888             -12.5251 (LUMO)
        39        0.1343           -0.4311064             -11.7310
        40        0.0461           -0.4045928             -11.0095
        41        0.0082           -0.3632191              -9.8837
        42        0.0011           -0.3147874              -8.5658
        43        0.0000           -0.1903746              -5.1804
        44        0.0000           -0.1725056              -4.6941
        45        0.0000           -0.1389657              -3.7814
        46                         -0.0739011              -2.0110
        47                         -0.0515735              -1.4034
        48                         -0.0386217              -1.0509
       ...                                ...                  ...
        67                         10.6271042             289.1782
      -------------------------------------------------------------
                  HL-Gap            0.0869091 Eh            2.3649 eV

     #   Z          covCN         q      C6AA      α(0)
     1   6 C        3.692    -0.094    22.492     6.786
     2   7 N        2.830     0.079    19.870     6.620
     3   6 C        3.014     0.057    26.701     8.476
     4   7 N        2.788    -0.066    22.524     7.049
     5   6 C        2.999     0.117    25.405     8.268
     6   6 C        3.075    -0.015    28.295     8.721
     7   6 C        2.761     0.265    22.526     7.772
     8   8 O        0.859    -0.354    20.789     6.113
     9   7 N        2.740    -0.077    22.739     7.082
    10   6 C        3.695    -0.060    21.829     6.684
    11   6 C        2.706     0.186    24.018     8.022
    12   8 O        0.865    -0.301    19.796     5.965
    13   7 N        1.829    -0.154    25.116     7.426
    14   6 C        2.786     0.020    27.553     8.598
    15   1 H        0.925     0.104     1.750     2.069
    16   1 H        0.924     0.109     1.708     2.043
    17   1 H        0.924     0.143     1.440     1.877
    18   1 H        0.926     0.121     1.608     1.983
    19   1 H        0.925     0.113     1.667     2.019
    20   1 H        0.924     0.111     1.684     2.029
    21   1 H        0.924     0.114     1.662     2.016
    22   1 H        0.925     0.073     2.053     2.241
    23   1 H        0.944     0.168     1.277     1.767
    24   1 H        0.926     0.118     1.633     1.999
    25   1 H        0.860     0.224     0.991     1.559

Wiberg/Mayer (AO) data.
largest (>0.10) Wiberg bond orders for each atom

     #   Z sym  total        # sym  WBO       # sym  WBO       # sym  WBO
 ---------------------------------------------------------------------------
     1   6 C    3.900 --     2 N    0.989    15 H    0.967    16 H    0.949
                            17 H    0.944
     2   7 N    3.651 --     3 C    1.357     6 C    1.170     1 C    0.989
     3   6 C    3.813 --     2 N    1.357     4 N    1.305    18 H    0.952
     4   7 N    3.538 --     3 C    1.305     5 C    1.130    25 H    0.922
     5   6 C    3.843 --     6 C    1.311    13 N    1.241     4 N    1.130
     6   6 C    3.793 --     5 C    1.311     2 N    1.170     7 C    1.040
     7   6 C    3.884 --     8 O    1.634     9 N    1.134     6 C    1.040
     8   8 O    1.908 --     7 C    1.634     9 N    0.115
     9   7 N    3.441 --     7 C    1.134    11 C    1.033    10 C    0.995
                            12 O    0.128     8 O    0.115
    10   6 C    3.873 --     9 N    0.995    19 H    0.957    20 H    0.941
                            21 H    0.938
    11   6 C    3.846 --    12 O    1.759     9 N    1.033    23 H    0.949
    12   8 O    1.965 --    11 C    1.759     9 N    0.128
    13   7 N    3.085 --    14 C    1.666     5 C    1.241
    14   6 C    3.653 --    13 N    1.666    24 H    0.949    22 H    0.938
    15   1 H    0.984 --     1 C    0.967
    16   1 H    0.978 --     1 C    0.949
    17   1 H    0.973 --     1 C    0.944
    18   1 H    0.984 --     3 C    0.952
    19   1 H    0.974 --    10 C    0.957
    20   1 H    0.959 --    10 C    0.941
    21   1 H    0.958 --    10 C    0.938
    22   1 H    0.962 --    14 C    0.938
    23   1 H    0.961 --    11 C    0.949
    24   1 H    0.969 --    14 C    0.949
    25   1 H    0.949 --     4 N    0.922
 ---------------------------------------------------------------------------

molecular dipole:
                 x           y           z       tot (Debye)
 q only:        2.273      -1.682       0.227
   full:        2.678      -2.298       0.356       9.014

           -------------------------------------------------
          | TOTAL ENERGY              -59.761949556735 Eh   |
          | GRADIENT NORM               0.003858251168 Eh/α |
          | HOMO-LUMO GAP               2.364916442296 eV   |
           -------------------------------------------------

 * finished run on 2024/06/05 at 19:58:55.901
