   * xtb version 6.6.1 (8d0f1dd) compiled by 'conda@1efc2f54142f' on 2023-08-01
          program call               : xtb xtbopt.xyz --opt crude --input .xc2 --gfn2

   ID    Z sym.   atoms
    1    6 C      1, 3, 5-7, 10, 11, 14
    2    7 N      2, 4, 9, 13
    3    8 O      8, 12
    4    1 H      15-25
########################################################################
[WARNING] Please study the warnings concerning your input carefully
-1- readin_getIntValue: could not parse ''
########################################################################

          :  Hamiltonian                  GFN2-xTB          :
 * total energy  :   -40.4461600 Eh     change       -0.4192202E-12 Eh
 * total energy  :   -42.1420781 Eh     change       -0.1695918E+01 Eh
 * total energy  :   -42.1696116 Eh     change       -0.2753350E-01 Eh
 * total energy  :   -42.1757507 Eh     change       -0.6139123E-02 Eh
 * total energy  :   -42.1789373 Eh     change       -0.3186618E-02 Eh
 * total energy  :   -42.1795782 Eh     change       -0.6408803E-03 Eh
 * total energy  :   -42.1803282 Eh     change       -0.7500112E-03 Eh
 * total energy  :   -42.1808075 Eh     change       -0.4793541E-03 Eh
 * total energy  :   -42.1812855 Eh     change       -0.4779836E-03 Eh
 * total energy  :   -42.1814601 Eh     change       -0.1746223E-03 Eh
   *** GEOMETRY OPTIMIZATION CONVERGED AFTER 10 ITERATIONS ***

 final structure:
================
25
 xtb: 6.6.1 (8d0f1dd)
C            3.01825523892667        1.08637823220487       -0.27145654238152
N            2.16063178628829       -0.03749479256010       -0.01162233504613
C            2.57613452809154       -1.28200201646889        0.21174263054052
N            1.51805047087363       -2.08589246507223        0.39047638001467
C            0.35597317333420       -1.33631088541404        0.26350344638929
C            0.78025094123048       -0.02254636307625       -0.01327082082373
C           -0.00960221910171        1.21074578493868       -0.01121779057031
O            0.45807843369552        2.27606620358385        0.35161646626482
N           -1.34806750968408        1.08171969603797       -0.35704581687100
C           -2.28704042519174        2.07245511303926        0.12721150752953
C           -1.84250682505152        0.13578700974149       -1.22377333112829
O           -3.01383242645813       -0.01764809860680       -1.43140966161087
N           -0.90377451956822       -1.75551332239799        0.36105032442323
C           -1.35212336227878       -2.85972869485228        0.82656952359234
H            3.99327026578807        0.91887425115916        0.18174149150113
H            3.14439862092264        1.22625479009432       -1.34773211190862
H            2.56637926980415        1.98919727526999        0.14283592294382
H            3.60229582203830       -1.59290651002055        0.24229350754667
H           -1.75643224524386        2.79660180879594        0.74222943984089
H           -2.76634922061891        2.58106192430197       -0.71124343231354
H           -3.06708820697853        1.57653162366489        0.70896422059670
H           -0.75004028899429       -3.63378592662983        1.29715871156151
H           -1.06403629349102       -0.40831098225377       -1.77302092124693
H           -2.41521912101769       -3.02414046076734        0.76005801228550
H            1.56282562678583       -3.07715465311475        0.57551279676969

          :  Hamiltonian                  GFN2-xTB          :
         :: total energy             -42.181460148610 Eh    ::
         :: gradient norm              0.004978031817 Eh/a0 ::
         :: HOMO-LUMO gap              2.392774771888 eV    ::
         :: SCC energy               -42.714028551093 Eh    ::
         :: -> dispersion             -0.022511443537 Eh    ::
         :: repulsion energy           0.532378928122 Eh    ::

    * Orbital Energies and Occupations

         #    Occupation            Energy/Eh            Energy/eV
      -------------------------------------------------------------
         1        2.0000           -0.9033965             -24.5827
       ...           ...                  ...                  ...
        25        1.9986           -0.6652672             -18.1028
        26        1.9983           -0.6605357             -17.9741
        27        1.9978           -0.6549689             -17.8226
        28        1.9969           -0.6463888             -17.5891
        29        1.9950           -0.6347392             -17.2721
        30        1.9947           -0.6335536             -17.2399
        31        1.9880           -0.6140358             -16.7088
        32        1.9838           -0.6069052             -16.5147
        33        1.9542           -0.5818725             -15.8336
        34        1.9317           -0.5721156             -15.5681
        35        1.9011           -0.5629475             -15.3186
        36        1.8738           -0.5568120             -15.1516
        37        1.8198           -0.5476524             -14.9024 (HOMO)
        38        0.3989           -0.4597196             -12.5096 (LUMO)
        39        0.1348           -0.4303185             -11.7096
        40        0.0293           -0.3927810             -10.6881
        41        0.0057           -0.3536711              -9.6239
        42        0.0011           -0.3140632              -8.5461
        43        0.0000           -0.1903491              -5.1797
        44        0.0000           -0.1710306              -4.6540
        45        0.0000           -0.1253624              -3.4113
        46                         -0.0631273              -1.7178
        47                         -0.0510312              -1.3886
        48                         -0.0297256              -0.8089
       ...                                ...                  ...
        67                          0.5028774              13.6840
      -------------------------------------------------------------
                  HL-Gap            0.0879329 Eh            2.3928 eV

     #   Z          covCN         q      C6AA      α(0)
     1   6 C        3.692    -0.094    22.477     6.784
     2   7 N        2.829     0.077    19.903     6.626
     3   6 C        3.008     0.058    26.688     8.474
     4   7 N        2.788    -0.068    22.555     7.054
     5   6 C        2.997     0.120    25.347     8.259
     6   6 C        3.073    -0.013    28.272     8.718
     7   6 C        2.764     0.264    22.555     7.778
     8   8 O        0.859    -0.350    20.707     6.101
     9   7 N        2.735    -0.045    22.103     6.983
    10   6 C        3.707    -0.063    21.860     6.683
    11   6 C        2.714     0.246    22.878     7.830
    12   8 O        0.858    -0.274    19.311     5.892
    13   7 N        1.825    -0.156    25.166     7.433
    14   6 C        2.790     0.021    27.516     8.593
    15   1 H        0.925     0.104     1.752     2.070
    16   1 H        0.924     0.108     1.711     2.045
    17   1 H        0.924     0.141     1.452     1.884
    18   1 H        0.926     0.121     1.609     1.983
    19   1 H        0.925     0.114     1.659     2.014
    20   1 H        0.924     0.110     1.697     2.037
    21   1 H        0.924     0.112     1.683     2.029
    22   1 H        0.925     0.070     2.088     2.259
    23   1 H        0.924     0.058     2.226     2.333
    24   1 H        0.926     0.116     1.650     2.009
    25   1 H        0.860     0.224     0.992     1.560

Wiberg/Mayer (AO) data.
largest (>0.10) Wiberg bond orders for each atom

     #   Z sym  total        # sym  WBO       # sym  WBO       # sym  WBO
 ---------------------------------------------------------------------------
     1   6 C    3.903 --     2 N    0.990    15 H    0.968    16 H    0.950
                            17 H    0.945
     2   7 N    3.647 --     3 C    1.356     6 C    1.165     1 C    0.990
     3   6 C    3.811 --     2 N    1.356     4 N    1.306    18 H    0.951
     4   7 N    3.534 --     3 C    1.306     5 C    1.125    25 H    0.921
     5   6 C    3.839 --     6 C    1.308    13 N    1.245     4 N    1.125
     6   6 C    3.798 --     5 C    1.308     2 N    1.165     7 C    1.050
     7   6 C    3.875 --     8 O    1.648     9 N    1.099     6 C    1.050
     8   8 O    1.919 --     7 C    1.648     9 N    0.108
     9   7 N    3.487 --    11 C    1.143     7 C    1.099    10 C    0.978
                            12 O    0.125     8 O    0.108
    10   6 C    3.876 --     9 N    0.978    19 H    0.961    20 H    0.948
                            21 H    0.944
    11   6 C    3.898 --    12 O    1.788     9 N    1.143    23 H    0.902
    12   8 O    2.003 --    11 C    1.788     9 N    0.125
    13   7 N    3.044 --    14 C    1.671     5 C    1.245
    14   6 C    3.656 --    13 N    1.671    24 H    0.949    22 H    0.937
    15   1 H    0.984 --     1 C    0.968
    16   1 H    0.978 --     1 C    0.950
    17   1 H    0.973 --     1 C    0.945
    18   1 H    0.984 --     3 C    0.951
    19   1 H    0.976 --    10 C    0.961
    20   1 H    0.964 --    10 C    0.948
    21   1 H    0.962 --    10 C    0.944
    22   1 H    0.960 --    14 C    0.937
    23   1 H    0.958 --    11 C    0.902
    24   1 H    0.969 --    14 C    0.949
    25   1 H    0.949 --     4 N    0.921
 ---------------------------------------------------------------------------

molecular dipole:
                 x           y           z       tot (Debye)
 q only:        2.171      -1.551       0.357
   full:        2.626      -2.209       0.434       8.791

           -------------------------------------------------
          | TOTAL ENERGY              -42.181460148610 Eh   |
          | GRADIENT NORM               0.004978031817 Eh/α |
          | HOMO-LUMO GAP               2.392774771888 eV   |
           -------------------------------------------------

 * finished run on 2024/06/05 at 19:58:56.296
