   * xtb version 6.6.1 (8d0f1dd) compiled by 'conda@1efc2f54142f' on 2023-08-01
          program call               : xtb struc.xyz --opt loose --input .xc1 --gfn2

   ID    Z sym.   atoms
    1    6 C      1, 3, 5-7, 10, 11, 14
    2    7 N      2, 4, 9, 13
    3    8 O      8, 12
    4    1 H      15-25
constraining bond 6 18 to    5.1400000 Å, actual value:    3.2169490 Å

          :  Hamiltonian                  GFN2-xTB          :
 * total energy  :   -35.6447375 Eh     change       -0.6650680E-10 Eh
 * total energy  :   -38.6410924 Eh     change       -0.2996355E+01 Eh
 * total energy  :   -40.5717443 Eh     change       -0.1930652E+01 Eh
 * total energy  :   -41.5317358 Eh     change       -0.9599916E+00 Eh
 * total energy  :   -41.8437370 Eh     change       -0.3120012E+00 Eh
 * total energy  :   -41.8901137 Eh     change       -0.4637667E-01 Eh
 * total energy  :   -41.9144732 Eh     change       -0.2435954E-01 Eh
 * total energy  :   -41.9523148 Eh     change       -0.3784159E-01 Eh
 * total energy  :   -41.9806612 Eh     change       -0.2834642E-01 Eh
 * total energy  :   -42.0024251 Eh     change       -0.2176384E-01 Eh
 * total energy  :   -42.0856395 Eh     change       -0.2487240E-02 Eh
 * total energy  :   -42.0864050 Eh     change       -0.7655752E-03 Eh
 * total energy  :   -42.0877415 Eh     change       -0.1336424E-02 Eh
 * total energy  :   -42.0883027 Eh     change       -0.5612120E-03 Eh
 * total energy  :   -42.0887646 Eh     change       -0.4618861E-03 Eh
 * total energy  :   -42.0897853 Eh     change       -0.1020713E-02 Eh
 * total energy  :   -42.0900555 Eh     change       -0.2702354E-03 Eh
 * total energy  :   -42.0901331 Eh     change       -0.7760510E-04 Eh
 * total energy  :   -42.0901828 Eh     change       -0.4969011E-04 Eh
   *** GEOMETRY OPTIMIZATION CONVERGED AFTER 25 ITERATIONS ***

 final structure:
================
25
 xtb: 6.6.1 (8d0f1dd)
C            3.15680265917468        1.20133781578197        0.01578934693189
N            2.20985289334042        0.12006404361747       -0.00114788193124
C            2.51648528731405       -1.18150969302522       -0.00691267617627
N            1.35520656848397       -1.87548361735821       -0.00656123328513
C            0.30141784043855       -1.00942000353783       -0.00070520463931
C            0.84168200384506        0.27045741331103        0.00502741352333
C            0.00496419571902        1.44824953567183       -0.00271961344292
O            0.38610607180535        2.59513587557476       -0.01386524527169
N           -1.35001063558681        1.10759187392813        0.00134367578421
C           -2.31643814307639        2.19417608789717        0.00073942685488
C           -1.90688695197217       -0.16062378187170        0.00273433461324
O           -3.09506281877127       -0.33514901791548        0.00538085474617
N           -1.02044651955059       -1.25314170361294       -0.00043268148916
C           -1.55830052864117       -2.59695769045343       -0.00425373676231
H            3.65851842989765        1.24419390760356        0.98400820698044
H            3.90889082204642        1.04432017431952       -0.75636011931566
H            2.63457634295630        2.14201397460123       -0.15572228138829
H            4.92683199651878       -2.84631080756087       -0.00988304730889
H           -1.77323347394422        3.13659860655095        0.00929516497206
H           -2.94775018327256        2.12828729412172       -0.88647091229440
H           -2.95922192339921        2.11765575036056        0.87872197464195
H           -1.22921396078025       -3.13976810434242        0.88275469447350
H           -1.24360515996432       -3.12942973923937       -0.90278352320145
H           -2.64508249040803       -2.52049595008581        0.00460246767151
H            1.30434919192682       -2.88355370273678       -0.01140778678644

          :  Hamiltonian                  GFN2-xTB          :
         :: total energy             -42.090182814313 Eh    ::
         :: gradient norm              0.001793653327 Eh/a0 ::
         :: HOMO-LUMO gap              0.936069429770 eV    ::
         :: SCC energy               -42.595507599803 Eh    ::
         :: -> dispersion             -0.022534918865 Eh    ::
         :: repulsion energy           0.505226497535 Eh    ::

    * Orbital Energies and Occupations

         #    Occupation            Energy/Eh            Energy/eV
      -------------------------------------------------------------
         1        2.0000           -0.8974323             -24.4204
       ...           ...                  ...                  ...
        25        1.9997           -0.6669407             -18.1484
        26        1.9997           -0.6663051             -18.1311
        27        1.9987           -0.6427745             -17.4908
        28        1.9978           -0.6345420             -17.2668
        29        1.9961           -0.6249989             -17.0071
        30        1.9937           -0.6175564             -16.8046
        31        1.9913           -0.6123266             -16.6623
        32        1.9868           -0.6057824             -16.4842
        33        1.9718           -0.5936021             -16.1527
        34        1.9281           -0.5784226             -15.7397
        35        1.9095           -0.5746221             -15.6363
        36        1.7174           -0.5549114             -15.0999
        37        1.7074           -0.5542715             -15.0825 (HOMO)
        38        0.7986           -0.5198716             -14.1464 (LUMO)
        39        0.0031           -0.4237760             -11.5315
        40        0.0005           -0.3939997             -10.7213
        41        0.0001           -0.3747589             -10.1977
        42        0.0000           -0.2954712              -8.0402
        43                         -0.2112474              -5.7483
        44                         -0.1679118              -4.5691
        45                         -0.1438419              -3.9141
        46                         -0.1331936              -3.6244
        47                         -0.0678180              -1.8454
        48                         -0.0408376              -1.1112
       ...                                ...                  ...
        67                          0.5409315              14.7195
      -------------------------------------------------------------
                  HL-Gap            0.0343999 Eh            0.9361 eV

     #   Z          covCN         q      C6AA      α(0)
     1   6 C        3.692    -0.084    22.298     6.757
     2   7 N        2.851     0.077    19.903     6.626
     3   6 C        2.067    -0.053    32.374     9.191
     4   7 N        2.811    -0.060    22.398     7.029
     5   6 C        3.022     0.117    25.412     8.269
     6   6 C        3.088    -0.011    28.190     8.703
     7   6 C        2.764     0.274    22.364     7.745
     8   8 O        0.858    -0.334    20.413     6.058
     9   7 N        2.746    -0.074    22.675     7.072
    10   6 C        3.710    -0.062    21.832     6.678
    11   6 C        2.730     0.319    21.584     7.606
    12   8 O        0.860    -0.339    20.496     6.070
    13   7 N        2.738    -0.044    22.083     6.979
    14   6 C        3.697    -0.071    22.031     6.714
    15   1 H        0.924     0.110     1.697     2.037
    16   1 H        0.925     0.110     1.695     2.036
    17   1 H        0.925     0.121     1.604     1.980
    18   1 H        0.000     0.128     3.857     3.591
    19   1 H        0.925     0.121     1.608     1.983
    20   1 H        0.924     0.111     1.690     2.033
    21   1 H        0.924     0.111     1.688     2.032
    22   1 H        0.924     0.093     1.848     2.126
    23   1 H        0.924     0.094     1.845     2.124
    24   1 H        0.925     0.129     1.546     1.944
    25   1 H        0.860     0.218     1.018     1.581

Wiberg/Mayer (AO) data.
largest (>0.10) Wiberg bond orders for each atom

     #   Z sym  total        # sym  WBO       # sym  WBO       # sym  WBO
 ---------------------------------------------------------------------------
     1   6 C    3.904 --     2 N    0.996    17 H    0.960    16 H    0.957
                            15 H    0.948
     2   7 N    3.646 --     3 C    1.364     6 C    1.168     1 C    0.996
     3   6 C    2.878 --     2 N    1.364     4 N    1.289
     4   7 N    3.583 --     3 C    1.289     5 C    1.195    25 H    0.924
     5   6 C    3.906 --     6 C    1.320    13 N    1.211     4 N    1.195
     6   6 C    3.824 --     5 C    1.320     2 N    1.168     7 C    1.072
     7   6 C    3.949 --     8 O    1.684     9 N    1.094     6 C    1.072
     8   8 O    1.987 --     7 C    1.684     9 N    0.130
     9   7 N    3.512 --    11 C    1.119     7 C    1.094    10 C    0.975
                             8 O    0.130    12 O    0.124
    10   6 C    3.878 --     9 N    0.975    19 H    0.961    21 H    0.949
                            20 H    0.949
    11   6 C    3.954 --    12 O    1.694     9 N    1.119    13 N    1.049
    12   8 O    2.003 --    11 C    1.694     9 N    0.124    13 N    0.109
    13   7 N    3.498 --     5 C    1.211    11 C    1.049    14 C    0.978
                            12 O    0.109
    14   6 C    3.909 --    13 N    0.978    24 H    0.962    22 H    0.962
                            23 H    0.961
    15   1 H    0.974 --     1 C    0.948
    16   1 H    0.977 --     1 C    0.957
    17   1 H    0.980 --     1 C    0.960
    18   1 H    0.062
    19   1 H    0.979 --    10 C    0.961
    20   1 H    0.967 --    10 C    0.949
    21   1 H    0.967 --    10 C    0.949
    22   1 H    0.978 --    14 C    0.962
    23   1 H    0.978 --    14 C    0.961
    24   1 H    0.982 --    14 C    0.962
    25   1 H    0.951 --     4 N    0.924
 ---------------------------------------------------------------------------

molecular dipole:
                 x           y           z       tot (Debye)
 q only:        1.994      -1.829       0.007
   full:        1.788      -2.089       0.013       6.989

           -------------------------------------------------
          | TOTAL ENERGY              -42.090182814313 Eh   |
          | GRADIENT NORM               0.001793653327 Eh/α |
          | HOMO-LUMO GAP               0.936069429770 eV   |
           -------------------------------------------------

 * finished run on 2024/06/05 at 20:00:14.220
