   * xtb version 6.6.1 (8d0f1dd) compiled by 'conda@1efc2f54142f' on 2023-08-01
          program call               : xtb struc.xyz --opt loose --input .xc1 --gfn2

   ID    Z sym.   atoms
    1    6 C      1, 3, 5-7, 10, 11, 14
    2    7 N      2, 4, 9, 13
    3    8 O      8, 12
    4    1 H      15-25
constraining bond 2 18 to    2.6866700 Å, actual value:    2.1303834 Å

          :  Hamiltonian                  GFN2-xTB          :
 * total energy  :   -42.8125917 Eh     change       -0.2401990E-09 Eh
 * total energy  :   -44.9069283 Eh     change       -0.2094337E+01 Eh
 * total energy  :   -48.2162858 Eh     change       -0.3309358E+01 Eh
 * total energy  :   -23.6768122 Eh     change        0.2453947E+02 Eh
 * total energy  :   -49.3747319 Eh     change       -0.2569792E+02 Eh
 * total energy  :   -49.3347391 Eh     change        0.3999275E-01 Eh
 * total energy  :   -49.4839695 Eh     change       -0.1492303E+00 Eh
 * total energy  :   -49.5082162 Eh     change       -0.2424673E-01 Eh
 * total energy  :   -49.5118843 Eh     change       -0.3668082E-02 Eh
 * total energy  :   -49.5308637 Eh     change       -0.1897946E-01 Eh
 * total energy  :   -49.6579970 Eh     change       -0.7056735E-02 Eh
 * total energy  :   -49.6629934 Eh     change       -0.4996438E-02 Eh
 * total energy  :   -49.6655383 Eh     change       -0.2544915E-02 Eh
 * total energy  :   -49.6666365 Eh     change       -0.1098195E-02 Eh
 * total energy  :   -49.6671375 Eh     change       -0.5009257E-03 Eh
 * total energy  :   -49.6672627 Eh     change       -0.1252936E-03 Eh
 * total energy  :   -49.6673276 Eh     change       -0.6485299E-04 Eh
 * total energy  :   -49.6673466 Eh     change       -0.1898552E-04 Eh
 * total energy  :   -49.6673578 Eh     change       -0.1118875E-04 Eh
   *** GEOMETRY OPTIMIZATION CONVERGED AFTER 34 ITERATIONS ***

 final structure:
================
25
 xtb: 6.6.1 (8d0f1dd)
C            3.40573821785943        0.57185471029747        0.06815568282285
N            3.64124838712599       -0.88514595892643       -0.00792707368211
C            2.69173664450053       -1.78875990442863       -0.03656567942431
N            1.37312216794869       -1.76578765504600       -0.03227910490226
C            0.43092758258353       -0.73116121908878       -0.03399183532251
C            0.77262972146925        0.57626286550302       -0.07206960733927
C           -0.15145945196101        1.65800485760529       -0.05993474452848
O            0.11028877834876        2.83913056689357       -0.07517831507371
N           -1.48981465849358        1.20781142337023       -0.02361267654426
C           -2.54470605998313        2.20130036899866       -0.00535282621056
C           -1.89344423228112       -0.10644134052124        0.00002209700829
O           -3.06120906074384       -0.41033886864501        0.02743012433200
N           -0.89477385115381       -1.09080901048556       -0.00530960118561
C           -1.33777939906215       -2.47077724113476        0.01997703501022
H            3.74045154811611        0.96182535714931        1.02893715048465
H            3.91587106989072        1.07254559582123       -0.75408218000470
H            2.24786425840813        0.78501956621886       -0.02337147163810
H            4.12044929474169       -1.01722692063691       -0.01632475900926
H           -2.08326955479835        3.18827303868588       -0.00069819410402
H           -3.18197625257432        2.08732623506753       -0.88495562151949
H           -3.16582550519431        2.06884624764549        0.88294268612761
H           -0.98788734109343       -2.98189675655335        0.91936263503546
H           -1.02040063584169       -3.00442986767902       -0.87855555399049
H           -2.42958263677098       -2.45555131112802        0.03886309596854
H            0.95223248305884       -2.69163623738257       -0.04430964441036

          :  Hamiltonian                  GFN2-xTB          :
         :: total energy             -49.667357775802 Eh    ::
         :: gradient norm              0.003365591728 Eh/a0 ::
         :: HOMO-LUMO gap              0.704654858393 eV    ::
         :: SCC energy               -42.657103379345 Eh    ::
         :: -> dispersion             -0.021823874299 Eh    ::
         :: repulsion energy           1.549559944491 Eh    ::

    * Orbital Energies and Occupations

         #    Occupation            Energy/Eh            Energy/eV
      -------------------------------------------------------------
         1        2.0000           -0.8864026             -24.1202
       ...           ...                  ...                  ...
        25        1.9977           -0.6683414             -18.1865
        26        1.9974           -0.6653454             -18.1050
        27        1.9956           -0.6526208             -17.7587
        28        1.9935           -0.6434407             -17.5089
        29        1.9914           -0.6366031             -17.3229
        30        1.9886           -0.6299145             -17.1408
        31        1.9771           -0.6132673             -16.6879
        32        1.9498           -0.5943091             -16.1720
        33        1.9448           -0.5919978             -16.1091
        34        1.8782           -0.5723971             -15.5757
        35        1.8772           -0.5721806             -15.5698
        36        1.7886           -0.5581244             -15.1873
        37        1.4977           -0.5333563             -14.5134 (HOMO)
        38        1.0010           -0.5074607             -13.8087 (LUMO)
        39        0.1074           -0.4392691             -11.9531
        40        0.0118           -0.3857132             -10.4958
        41        0.0077           -0.3754084             -10.2154
        42        0.0002           -0.2880711              -7.8388
        43        0.0000           -0.1982077              -5.3935
        44        0.0000           -0.1631080              -4.4384
        45        0.0000           -0.1442613              -3.9255
        46        0.0000           -0.1341031              -3.6491
        47                         -0.0638788              -1.7382
        48                         -0.0293021              -0.7974
       ...                                ...                  ...
        67                          3.6733925              99.9581
      -------------------------------------------------------------
                  HL-Gap            0.0258956 Eh            0.7047 eV

     #   Z          covCN         q      C6AA      α(0)
     1   6 C        3.669    -0.086    22.418     6.788
     2   7 N        2.680    -0.091    23.027     7.127
     3   6 C        1.897     0.008    30.910     8.979
     4   7 N        2.689    -0.067    22.544     7.052
     5   6 C        2.831     0.127    25.202     8.227
     6   6 C        2.286    -0.120    32.987     9.318
     7   6 C        2.765     0.281    22.241     7.723
     8   8 O        0.858    -0.316    20.078     6.008
     9   7 N        2.746    -0.068    22.551     7.053
    10   6 C        3.705    -0.059    21.784     6.672
    11   6 C        2.723     0.319    21.584     7.606
    12   8 O        0.860    -0.350    20.700     6.100
    13   7 N        2.747    -0.054    22.284     7.011
    14   6 C        3.697    -0.074    22.098     6.724
    15   1 H        0.925     0.111     1.689     2.032
    16   1 H        0.925     0.113     1.673     2.023
    17   1 H        1.194     0.151     1.378     1.833
    18   1 H        0.937     0.263     0.827     1.422
    19   1 H        0.925     0.127     1.556     1.951
    20   1 H        0.924     0.115     1.652     2.010
    21   1 H        0.924     0.115     1.653     2.011
    22   1 H        0.924     0.092     1.858     2.132
    23   1 H        0.924     0.092     1.861     2.134
    24   1 H        0.924     0.137     1.485     1.906
    25   1 H        0.860     0.235     0.945     1.523

Wiberg/Mayer (AO) data.
largest (>0.10) Wiberg bond orders for each atom

     #   Z sym  total        # sym  WBO       # sym  WBO       # sym  WBO
 ---------------------------------------------------------------------------
     1   6 C    3.575 --    16 H    0.950    15 H    0.948     2 N    0.945
                            17 H    0.666
     2   7 N    3.458 --     3 C    1.485     1 C    0.945    18 H    0.903
     3   6 C    2.953 --     2 N    1.485     4 N    1.353
     4   7 N    3.510 --     3 C    1.353     5 C    1.071    25 H    0.891
     5   6 C    3.838 --     6 C    1.490    13 N    1.149     4 N    1.071
     6   6 C    3.162 --     5 C    1.490     7 C    1.120    17 H    0.289
     7   6 C    3.902 --     8 O    1.666     6 C    1.120     9 N    1.034
     8   8 O    1.925 --     7 C    1.666     9 N    0.105
     9   7 N    3.436 --    11 C    1.138     7 C    1.034    10 C    0.980
                            12 O    0.119     8 O    0.105
    10   6 C    3.850 --     9 N    0.980    19 H    0.950    21 H    0.940
                            20 H    0.939
    11   6 C    3.943 --    12 O    1.653     9 N    1.138    13 N    1.068
    12   8 O    1.956 --    11 C    1.653     9 N    0.119    13 N    0.108
    13   7 N    3.459 --     5 C    1.149    11 C    1.068    14 C    0.982
                            12 O    0.108
    14   6 C    3.897 --    13 N    0.982    22 H    0.957    23 H    0.957
                            24 H    0.947
    15   1 H    0.969 --     1 C    0.948
    16   1 H    0.968 --     1 C    0.950
    17   1 H    0.971 --     1 C    0.666     6 C    0.289
    18   1 H    0.925 --     2 N    0.903
    19   1 H    0.969 --    10 C    0.950
    20   1 H    0.956 --    10 C    0.939
    21   1 H    0.957 --    10 C    0.940
    22   1 H    0.977 --    14 C    0.957
    23   1 H    0.977 --    14 C    0.957
    24   1 H    0.972 --    14 C    0.947
    25   1 H    0.931 --     4 N    0.891
 ---------------------------------------------------------------------------

molecular dipole:
                 x           y           z       tot (Debye)
 q only:        1.970      -1.650       0.036
   full:        1.969      -1.776       0.047       6.742

           -------------------------------------------------
          | TOTAL ENERGY              -49.667357775802 Eh   |
          | GRADIENT NORM               0.003365591728 Eh/α |
          | HOMO-LUMO GAP               0.704654858393 eV   |
           -------------------------------------------------

 * finished run on 2024/06/05 at 19:58:56.698
