   * xtb version 6.6.1 (8d0f1dd) compiled by 'conda@1efc2f54142f' on 2023-08-01
          program call               : xtb xtbopt.xyz --opt crude --input .xc2 --gfn2

   ID    Z sym.   atoms
    1    6 C      1, 3, 5-7, 10, 11, 14
    2    7 N      2, 4, 9, 13
    3    8 O      8, 12
    4    1 H      15-25
########################################################################
[WARNING] Please study the warnings concerning your input carefully
-1- readin_getIntValue: could not parse ''
########################################################################

          :  Hamiltonian                  GFN2-xTB          :
 * total energy  :   -41.1074527 Eh     change       -0.9592327E-12 Eh
 * total energy  :   -42.0954445 Eh     change       -0.9879918E+00 Eh
 * total energy  :   -42.1119953 Eh     change       -0.1655076E-01 Eh
 * total energy  :   -42.1143537 Eh     change       -0.2358430E-02 Eh
 * total energy  :   -42.1154182 Eh     change       -0.1064544E-02 Eh
 * total energy  :   -42.1157154 Eh     change       -0.2971283E-03 Eh
 * total energy  :   -42.1158602 Eh     change       -0.1448139E-03 Eh
 * total energy  :   -42.1159296 Eh     change       -0.6941239E-04 Eh
 * total energy  :   -42.1160267 Eh     change       -0.9707705E-04 Eh
   *** GEOMETRY OPTIMIZATION CONVERGED AFTER 9 ITERATIONS ***

 final structure:
================
25
 xtb: 6.6.1 (8d0f1dd)
C            3.37133727960501        0.59408330909427        0.06632989002664
N            3.54887724235301       -0.83467316456640       -0.01680397766332
C            2.68077860654186       -1.79015812593006       -0.04253727890496
N            1.35619918524931       -1.78093034119591       -0.02639079842941
C            0.41809620166344       -0.74576422616931       -0.02058380214929
C            0.76990069893295        0.56271069765389       -0.04298027298427
C           -0.14914847168726        1.64918741102696       -0.03773045235054
O            0.12208251547794        2.82893816019728       -0.04645182368005
N           -1.48993453941066        1.20824534806526       -0.02061330250055
C           -2.53882007960540        2.20882658986772       -0.01648393942344
C           -1.90127638694565       -0.10297271245869       -0.00140286984663
O           -3.07092698824109       -0.40080419645523        0.01651282596594
N           -0.90843460071965       -1.09377265910507       -0.00167373818677
C           -1.35729612076606       -2.47189058482523        0.02046748992743
H            3.71286764352266        0.99221816763795        1.02123130197321
H            3.84143801645357        1.10888858669085       -0.77033299742112
H            2.17926397682753        0.78605469283757        0.00162802648295
H            4.53009439624578       -1.11897757926695       -0.04549624065183
H           -2.06992537722845        3.19218456573909       -0.01321635106899
H           -3.16876366252650        2.09379106522050       -0.90086730248888
H           -3.16797915497290        2.08562756598071        0.86722882455318
H           -1.00497855654736       -2.98578529667489        0.91708653487479
H           -1.04185101031057       -3.00320252529687       -0.87989995753807
H           -2.44857504843940       -2.45261874184824        0.04192385849669
H            0.94740574862784       -2.71096746461894       -0.03777202911259

          :  Hamiltonian                  GFN2-xTB          :
         :: total energy             -42.116026668299 Eh    ::
         :: gradient norm              0.008794892694 Eh/a0 ::
         :: HOMO-LUMO gap              0.775087062361 eV    ::
         :: SCC energy               -42.623490238022 Eh    ::
         :: -> dispersion             -0.021789731113 Eh    ::
         :: repulsion energy           0.507379473547 Eh    ::

    * Orbital Energies and Occupations

         #    Occupation            Energy/Eh            Energy/eV
      -------------------------------------------------------------
         1        2.0000           -0.8828993             -24.0249
       ...           ...                  ...                  ...
        25        1.9978           -0.6650969             -18.0982
        26        1.9975           -0.6621892             -18.0191
        27        1.9957           -0.6489677             -17.6593
        28        1.9938           -0.6402462             -17.4220
        29        1.9918           -0.6334987             -17.2384
        30        1.9891           -0.6266108             -17.0509
        31        1.9782           -0.6101054             -16.6018
        32        1.9479           -0.5890102             -16.0278
        33        1.9467           -0.5884359             -16.0122
        34        1.8833           -0.5690417             -15.4844
        35        1.8819           -0.5687386             -15.4762
        36        1.7957           -0.5546081             -15.0917
        37        1.5158           -0.5300861             -14.4244 (HOMO)
        38        0.9709           -0.5016022             -13.6493 (LUMO)
        39        0.0996           -0.4329573             -11.7814
        40        0.0122           -0.3819378             -10.3931
        41        0.0068           -0.3681881             -10.0189
        42        0.0002           -0.2852725              -7.7627
        43        0.0000           -0.1944290              -5.2907
        44        0.0000           -0.1659860              -4.5167
        45        0.0000           -0.1451850              -3.9507
        46        0.0000           -0.1342880              -3.6542
        47                         -0.0657030              -1.7879
        48                         -0.0332781              -0.9055
       ...                                ...                  ...
        67                          0.5445599              14.8182
      -------------------------------------------------------------
                  HL-Gap            0.0284839 Eh            0.7751 eV

     #   Z          covCN         q      C6AA      α(0)
     1   6 C        3.644    -0.077    22.335     6.794
     2   7 N        2.680    -0.036    21.944     6.957
     3   6 C        1.830     0.002    31.109     9.011
     4   7 N        2.691    -0.071    22.623     7.064
     5   6 C        2.832     0.129    25.173     8.222
     6   6 C        2.453    -0.120    31.425     9.148
     7   6 C        2.765     0.279    22.271     7.729
     8   8 O        0.858    -0.323    20.206     6.027
     9   7 N        2.746    -0.069    22.576     7.057
    10   6 C        3.705    -0.058    21.777     6.671
    11   6 C        2.723     0.318    21.587     7.606
    12   8 O        0.860    -0.352    20.748     6.107
    13   7 N        2.747    -0.055    22.305     7.014
    14   6 C        3.697    -0.073    22.078     6.721
    15   1 H        0.925     0.109     1.704     2.041
    16   1 H        0.925     0.110     1.695     2.036
    17   1 H        1.343     0.157     1.337     1.805
    18   1 H        0.860     0.229     0.968     1.541
    19   1 H        0.925     0.126     1.567     1.958
    20   1 H        0.924     0.113     1.669     2.020
    21   1 H        0.924     0.113     1.667     2.019
    22   1 H        0.924     0.091     1.872     2.140
    23   1 H        0.924     0.091     1.873     2.140
    24   1 H        0.924     0.135     1.496     1.913
    25   1 H        0.860     0.231     0.962     1.536

Wiberg/Mayer (AO) data.
largest (>0.10) Wiberg bond orders for each atom

     #   Z sym  total        # sym  WBO       # sym  WBO       # sym  WBO
 ---------------------------------------------------------------------------
     1   6 C    3.543 --     2 N    0.983    16 H    0.948    15 H    0.945
                            17 H    0.606
     2   7 N    3.520 --     3 C    1.519     1 C    0.983    18 H    0.900
     3   6 C    2.949 --     2 N    1.519     4 N    1.319
     4   7 N    3.498 --     3 C    1.319     5 C    1.083    25 H    0.896
     5   6 C    3.845 --     6 C    1.480    13 N    1.154     4 N    1.083
     6   6 C    3.217 --     5 C    1.480     7 C    1.124    17 H    0.344
     7   6 C    3.904 --     8 O    1.662     6 C    1.124     9 N    1.036
     8   8 O    1.926 --     7 C    1.662     9 N    0.106
     9   7 N    3.442 --    11 C    1.139     7 C    1.036    10 C    0.980
                            12 O    0.120     8 O    0.106
    10   6 C    3.854 --     9 N    0.980    19 H    0.951    21 H    0.942
                            20 H    0.941
    11   6 C    3.943 --    12 O    1.653     9 N    1.139    13 N    1.066
    12   8 O    1.958 --    11 C    1.653     9 N    0.120    13 N    0.108
    13   7 N    3.465 --     5 C    1.154    11 C    1.066    14 C    0.982
                            12 O    0.108
    14   6 C    3.900 --    13 N    0.982    22 H    0.958    23 H    0.958
                            24 H    0.949
    15   1 H    0.970 --     1 C    0.945
    16   1 H    0.969 --     1 C    0.948
    17   1 H    0.970 --     1 C    0.606     6 C    0.344
    18   1 H    0.922 --     2 N    0.900
    19   1 H    0.970 --    10 C    0.951
    20   1 H    0.958 --    10 C    0.941
    21   1 H    0.959 --    10 C    0.942
    22   1 H    0.978 --    14 C    0.958
    23   1 H    0.978 --    14 C    0.958
    24   1 H    0.973 --    14 C    0.949
    25   1 H    0.934 --     4 N    0.896
 ---------------------------------------------------------------------------

molecular dipole:
                 x           y           z       tot (Debye)
 q only:        2.292      -1.701       0.020
   full:        2.342      -1.815       0.031       7.532

           -------------------------------------------------
          | TOTAL ENERGY              -42.116026668299 Eh   |
          | GRADIENT NORM               0.008794892694 Eh/α |
          | HOMO-LUMO GAP               0.775087062361 eV   |
           -------------------------------------------------

 * finished run on 2024/06/05 at 19:58:57.101
