   * xtb version 6.6.1 (8d0f1dd) compiled by 'conda@1efc2f54142f' on 2023-08-01
          program call               : xtb xtbopt.xyz --opt crude --input .xc2 --gfn2

   ID    Z sym.   atoms
    1    6 C      1, 3, 5-7, 10, 11, 14
    2    7 N      2, 4, 9, 13
    3    8 O      8, 12
    4    1 H      15-25

          :  Hamiltonian                  GFN2-xTB          :
 * total energy  :   -42.1018005 Eh     change       -0.2008207E-09 Eh
   *** GEOMETRY OPTIMIZATION CONVERGED AFTER 1 ITERATIONS ***

 final structure:
================
25
 xtb: 6.6.1 (8d0f1dd)
C            3.18165811644640        1.20546635161037        0.01910436006388
N            2.19463462921832        0.16434793608813        0.00766589983331
C            2.42241513009275       -1.17964020917968        0.00866517939682
N            1.32605297309299       -1.89246487688408        0.00583042688793
C            0.31580813643855       -0.98918520103783        0.00376333287772
C            0.85075405091107        0.31610786393129        0.00557939637923
C            0.00728161685994        1.49328253974143       -0.00329440539893
O            0.39701087519475        2.63684110037248       -0.01033262333338
N           -1.34420898311752        1.15148756694182       -0.00473127120419
C           -2.30803228073694        2.24245842599252       -0.00924277370538
C           -1.89578126755727       -0.11927320250654       -0.00130170699474
O           -3.08149871686360       -0.30120204733616       -0.00056599426306
N           -1.00294562711705       -1.21673020119122        0.00091663182997
C           -1.53456264164979       -2.55376967419802       -0.00164860406991
H            3.74351159302671        1.18043456789719        0.95523793798482
H            3.88076062137652        1.06810874096672       -0.80719787726875
H            2.68532541158439        2.17083864744640       -0.07529355507320
H            3.41007850866943       -1.59868289736414        0.01114994260093
H           -1.75764979209883        3.18077017296471       -0.00531478813683
H           -2.93914426216963        2.17846621865848       -0.89595286785935
H           -2.94914970388079        2.17617672575024        0.87001931604621
H           -1.16293433311592       -3.10012130108568        0.86633187364090
H           -1.20747671120612       -3.08046439407325       -0.89975129265125
H           -2.62106272493442       -2.49370623070840        0.02397463807442
H            2.54958689563827       -4.82130808119667       -0.03243955775791

          :  Hamiltonian                  GFN2-xTB          :
         :: total energy             -42.101800518870 Eh    ::
         :: gradient norm              0.002071721826 Eh/a0 ::
         :: HOMO-LUMO gap              0.255873397294 eV    ::
         :: SCC energy               -42.614161933088 Eh    ::
         :: -> dispersion             -0.022385433380 Eh    ::
         :: repulsion energy           0.512269677470 Eh    ::

    * Orbital Energies and Occupations

         #    Occupation            Energy/Eh            Energy/eV
      -------------------------------------------------------------
         1        2.0000           -0.8914637             -24.2580
       ...           ...                  ...                  ...
        25        2.0000           -0.6638292             -18.0637
        26        2.0000           -0.6552967             -17.8315
        27        2.0000           -0.6391622             -17.3925
        28        2.0000           -0.6383551             -17.3705
        29        1.9999           -0.6262165             -17.0402
        30        1.9996           -0.6129710             -16.6798
        31        1.9993           -0.6085502             -16.5595
        32        1.9989           -0.6046354             -16.4530
        33        1.9953           -0.5934842             -16.1495
        34        1.9719           -0.5791699             -15.7600
        35        1.9373           -0.5726736             -15.5832
        36        1.9304           -0.5718180             -15.5600
        37        1.3699           -0.5516564             -15.0113 (HOMO)
        38        0.7973           -0.5422533             -14.7555 (LUMO)
        39        0.0000           -0.4281058             -11.6494
        40                         -0.3860856             -10.5059
        41                         -0.3716884             -10.1142
        42                         -0.2928952              -7.9701
        43                         -0.2034056              -5.5349
        44                         -0.1573496              -4.2817
        45                         -0.1337299              -3.6390
        46                         -0.0799025              -2.1743
        47                         -0.0545072              -1.4832
        48                         -0.0346321              -0.9424
       ...                                ...                  ...
        67                          0.5466007              14.8738
      -------------------------------------------------------------
                  HL-Gap            0.0094032 Eh            0.2559 eV

     #   Z          covCN         q      C6AA      α(0)
     1   6 C        3.689    -0.083    22.279     6.755
     2   7 N        2.829     0.052    20.330     6.697
     3   6 C        3.196     0.100    25.294     8.199
     4   7 N        1.890    -0.226    26.788     7.673
     5   6 C        3.177     0.137    24.653     8.108
     6   6 C        3.114    -0.001    27.902     8.653
     7   6 C        2.763     0.274    22.370     7.746
     8   8 O        0.858    -0.338    20.482     6.068
     9   7 N        2.745    -0.075    22.704     7.077
    10   6 C        3.709    -0.063    21.854     6.682
    11   6 C        2.725     0.317    21.608     7.610
    12   8 O        0.859    -0.332    20.369     6.051
    13   7 N        2.738    -0.011    21.477     6.883
    14   6 C        3.701    -0.074    22.088     6.721
    15   1 H        0.924     0.108     1.716     2.049
    16   1 H        0.924     0.106     1.733     2.059
    17   1 H        0.925     0.125     1.575     1.962
    18   1 H        0.926     0.104     1.746     2.066
    19   1 H        0.925     0.117     1.638     2.001
    20   1 H        0.924     0.107     1.725     2.054
    21   1 H        0.925     0.107     1.724     2.053
    22   1 H        0.924     0.114     1.660     2.015
    23   1 H        0.924     0.115     1.658     2.013
    24   1 H        0.925     0.128     1.550     1.947
    25   1 H        0.000     0.194     2.810     3.065

Wiberg/Mayer (AO) data.
largest (>0.10) Wiberg bond orders for each atom

     #   Z sym  total        # sym  WBO       # sym  WBO       # sym  WBO
 ---------------------------------------------------------------------------
     1   6 C    3.914 --     2 N    0.995    17 H    0.964    16 H    0.956
                            15 H    0.950
     2   7 N    3.637 --     6 C    1.258     3 C    1.228     1 C    0.995
     3   6 C    3.860 --     4 N    1.529     2 N    1.228    18 H    0.956
     4   7 N    2.995 --     3 C    1.529     5 C    1.251
     5   6 C    3.889 --     4 N    1.251    13 N    1.244     6 C    1.228
     6   6 C    3.794 --     2 N    1.258     5 C    1.228     7 C    1.062
     7   6 C    3.952 --     8 O    1.691     9 N    1.105     6 C    1.062
     8   8 O    1.991 --     7 C    1.691     9 N    0.138
     9   7 N    3.538 --    11 C    1.122     7 C    1.105    10 C    0.972
                             8 O    0.138    12 O    0.128
    10   6 C    3.893 --     9 N    0.972    19 H    0.967    21 H    0.954
                            20 H    0.954
    11   6 C    3.951 --    12 O    1.709     9 N    1.122    13 N    1.032
    12   8 O    2.007 --    11 C    1.709     9 N    0.128
    13   7 N    3.470 --     5 C    1.244    11 C    1.032    14 C    0.990
    14   6 C    3.894 --    13 N    0.990    24 H    0.965    22 H    0.945
                            23 H    0.943
    15   1 H    0.977 --     1 C    0.950
    16   1 H    0.980 --     1 C    0.956
    17   1 H    0.983 --     1 C    0.964
    18   1 H    0.988 --     3 C    0.956
    19   1 H    0.985 --    10 C    0.967
    20   1 H    0.973 --    10 C    0.954
    21   1 H    0.973 --    10 C    0.954
    22   1 H    0.963 --    14 C    0.945
    23   1 H    0.961 --    14 C    0.943
    24   1 H    0.983 --    14 C    0.965
    25   1 H    0.009
 ---------------------------------------------------------------------------

molecular dipole:
                 x           y           z       tot (Debye)
 q only:        1.996      -2.161       0.002
   full:        2.288      -2.023       0.005       7.762

           -------------------------------------------------
          | TOTAL ENERGY              -42.101800518870 Eh   |
          | GRADIENT NORM               0.002071721826 Eh/α |
          | HOMO-LUMO GAP               0.255873397294 eV   |
           -------------------------------------------------

 * finished run on 2024/06/05 at 19:58:08.490
