   * xtb version 6.6.1 (8d0f1dd) compiled by 'conda@1efc2f54142f' on 2023-08-01
          program call               : xtb struc.xyz --opt loose --input .xc1 --gfn2

   ID    Z sym.   atoms
    1    6 C      1, 3, 5-7, 10, 11, 14
    2    7 N      2, 4, 9, 13
    3    8 O      8, 12
    4    1 H      15-25
constraining bond 23 24 to    3.2800000 Å, actual value:    1.7744882 Å

          :  Hamiltonian                  GFN2-xTB          :
 * total energy  :   -38.2008324 Eh     change       -0.6650680E-10 Eh
 * total energy  :   -40.2913988 Eh     change       -0.2090566E+01 Eh
 * total energy  :   -41.6378788 Eh     change       -0.1346480E+01 Eh
 * total energy  :   -42.0391308 Eh     change       -0.4012520E+00 Eh
 * total energy  :   -42.0688172 Eh     change       -0.2968644E-01 Eh
 * total energy  :   -42.0698200 Eh     change       -0.1002830E-02 Eh
 * total energy  :   -42.0708946 Eh     change       -0.1074509E-02 Eh
 * total energy  :   -42.0723337 Eh     change       -0.1439115E-02 Eh
 * total energy  :   -42.0743238 Eh     change       -0.1990115E-02 Eh
 * total energy  :   -42.0754511 Eh     change       -0.1127301E-02 Eh
 * total energy  :   -42.1737176 Eh     change       -0.1015189E-02 Eh
 * total energy  :   -42.1740864 Eh     change       -0.3688125E-03 Eh
 * total energy  :   -42.1745249 Eh     change       -0.4385019E-03 Eh
 * total energy  :   -42.1749164 Eh     change       -0.3914240E-03 Eh
 * total energy  :   -42.1753103 Eh     change       -0.3939360E-03 Eh
 * total energy  :   -42.1754630 Eh     change       -0.1526648E-03 Eh
 * total energy  :   -42.1756205 Eh     change       -0.1575601E-03 Eh
 * total energy  :   -42.1757346 Eh     change       -0.1141124E-03 Eh
 * total energy  :   -42.1757731 Eh     change       -0.3843075E-04 Eh
   *** GEOMETRY OPTIMIZATION CONVERGED AFTER 35 ITERATIONS ***

 final structure:
================
25
 xtb: 6.6.1 (8d0f1dd)
C            3.23507614092422        1.20611275787290       -0.03674591932431
N            2.32946876050193        0.08937865631850       -0.05584163667457
C            2.66096027369904       -1.20858248907260       -0.08095568523192
N            1.53829532457207       -1.96802029556649       -0.05639413237495
C            0.46238452397445       -1.12405315976545       -0.01473947014269
C            0.95662782843360        0.17696708959082       -0.01235964836050
C            0.10647183256892        1.33265696043301        0.03068446383134
O            0.44042891979347        2.49937882256618        0.04613384837167
N           -1.25290820841970        0.94209396813612        0.04776932771537
C           -2.25112760091658        1.99811274540626        0.07654358826868
C           -1.69621477846385       -0.33313661826031        0.02599488442984
O           -3.01126691077616       -0.51669396636042       -0.01614859378605
N           -0.87442667741557       -1.42657275475430        0.03257821203472
C           -1.35743970239301       -2.70013666519922        0.02052458443015
H            3.76507023858555        1.24772116197585        0.91633801866215
H            3.96414780916096        1.11614079160111       -0.84121856594344
H            2.65888320165384        2.12217744116049       -0.16001489891837
H            3.65832626736209       -1.59466368455677       -0.11629320072703
H           -1.71646777998119        2.94587491812874        0.08765448253059
H           -2.88818672461099        1.93767051377041       -0.80468915500462
H           -2.86957159262451        1.90494266986368        0.96746653251712
H           -2.33102166500355       -2.91797525433952        0.40855590957567
H           -0.66860868197510       -3.50046938587139       -0.10084713178073
H           -3.21298845024787       -1.43440165011900       -0.27254122391588
H            1.51451916569912       -2.97628403135895       -0.06028297228146

          :  Hamiltonian                  GFN2-xTB          :
         :: total energy             -42.175773064230 Eh    ::
         :: gradient norm              0.002292714515 Eh/a0 ::
         :: HOMO-LUMO gap              1.411578442225 eV    ::
         :: SCC energy               -42.692789628592 Eh    ::
         :: -> dispersion             -0.023014111133 Eh    ::
         :: repulsion energy           0.516903822933 Eh    ::

    * Orbital Energies and Occupations

         #    Occupation            Energy/Eh            Energy/eV
      -------------------------------------------------------------
         1        2.0000           -0.8999161             -24.4880
       ...           ...                  ...                  ...
        25        2.0000           -0.6678396             -18.1728
        26        2.0000           -0.6625506             -18.0289
        27        2.0000           -0.6584978             -17.9186
        28        2.0000           -0.6428456             -17.4927
        29        2.0000           -0.6345633             -17.2673
        30        2.0000           -0.6208483             -16.8941
        31        2.0000           -0.6183410             -16.8259
        32        1.9999           -0.6022875             -16.3891
        33        1.9999           -0.5998802             -16.3236
        34        1.9995           -0.5796939             -15.7743
        35        1.9989           -0.5675901             -15.4449
        36        1.9968           -0.5510411             -14.9946
        37        1.5904           -0.4704170             -12.8007 (HOMO)
        38        0.2558           -0.4185425             -11.3891 (LUMO)
        39        0.1434           -0.4083853             -11.1127
        40        0.0155           -0.3720708             -10.1246
        41        0.0000           -0.2803015              -7.6274
        42        0.0000           -0.1944895              -5.2923
        43        0.0000           -0.1859867              -5.0610
        44                         -0.1408139              -3.8317
        45                         -0.1242445              -3.3809
        46                         -0.0921181              -2.5067
        47                         -0.0520466              -1.4163
        48                         -0.0316402              -0.8610
       ...                                ...                  ...
        67                          0.5385597              14.6550
      -------------------------------------------------------------
                  HL-Gap            0.0518746 Eh            1.4116 eV

     #   Z          covCN         q      C6AA      α(0)
     1   6 C        3.691    -0.092    22.446     6.780
     2   7 N        2.826     0.067    20.071     6.654
     3   6 C        3.037     0.039    27.091     8.537
     4   7 N        2.781    -0.060    22.406     7.030
     5   6 C        3.073     0.082    26.109     8.378
     6   6 C        3.097    -0.018    28.343     8.725
     7   6 C        2.766     0.248    22.840     7.827
     8   8 O        0.857    -0.389    21.472     6.213
     9   7 N        2.746    -0.047    22.153     6.990
    10   6 C        3.707    -0.071    22.006     6.705
    11   6 C        2.773     0.226    23.255     7.898
    12   8 O        1.660    -0.331    19.552     5.969
    13   7 N        2.736     0.020    20.898     6.789
    14   6 C        2.797    -0.148    31.779     9.235
    15   1 H        0.924     0.102     1.764     2.077
    16   1 H        0.925     0.100     1.788     2.091
    17   1 H        0.925     0.133     1.513     1.923
    18   1 H        0.927     0.117     1.636     2.000
    19   1 H        0.925     0.124     1.584     1.968
    20   1 H        0.925     0.097     1.815     2.107
    21   1 H        0.925     0.098     1.807     2.102
    22   1 H        0.926     0.066     2.132     2.283
    23   1 H        0.927     0.058     2.218     2.329
    24   1 H        0.804     0.356     0.574     1.190
    25   1 H        0.860     0.224     0.992     1.560

Wiberg/Mayer (AO) data.
largest (>0.10) Wiberg bond orders for each atom

     #   Z sym  total        # sym  WBO       # sym  WBO       # sym  WBO
 ---------------------------------------------------------------------------
     1   6 C    3.920 --     2 N    0.988    16 H    0.965    17 H    0.962
                            15 H    0.958
     2   7 N    3.603 --     3 C    1.331     6 C    1.154     1 C    0.988
     3   6 C    3.734 --     2 N    1.331     4 N    1.258    18 H    0.955
     4   7 N    3.527 --     3 C    1.258     5 C    1.178    25 H    0.920
     5   6 C    3.857 --     6 C    1.335     4 N    1.178    13 N    1.112
     6   6 C    3.879 --     5 C    1.335     2 N    1.154     7 C    1.106
     7   6 C    3.896 --     8 O    1.639     6 C    1.106     9 N    1.038
     8   8 O    1.943 --     7 C    1.639     9 N    0.135
     9   7 N    3.544 --    11 C    1.243     7 C    1.038    10 C    0.970
                             8 O    0.135
    10   6 C    3.916 --     9 N    0.970    21 H    0.966    20 H    0.965
                            19 H    0.965
    11   6 C    3.775 --     9 N    1.243    13 N    1.156    12 O    1.145
                            14 C    0.112
    12   8 O    2.160 --    11 C    1.145    24 H    0.827
    13   7 N    3.650 --    14 C    1.184    11 C    1.156     5 C    1.112
    14   6 C    3.395 --    13 N    1.184    23 H    0.974    22 H    0.962
                            11 C    0.112
    15   1 H    0.983 --     1 C    0.958
    16   1 H    0.985 --     1 C    0.965
    17   1 H    0.982 --     1 C    0.962
    18   1 H    0.985 --     3 C    0.955
    19   1 H    0.984 --    10 C    0.965
    20   1 H    0.986 --    10 C    0.965
    21   1 H    0.986 --    10 C    0.966
    22   1 H    0.993 --    14 C    0.962
    23   1 H    0.996 --    14 C    0.974
    24   1 H    0.871 --    12 O    0.827
    25   1 H    0.949 --     4 N    0.920
 ---------------------------------------------------------------------------

molecular dipole:
                 x           y           z       tot (Debye)
 q only:        1.047      -1.877      -0.184
   full:        1.128      -2.631      -0.155       7.288

           -------------------------------------------------
          | TOTAL ENERGY              -42.175773064230 Eh   |
          | GRADIENT NORM               0.002292714515 Eh/α |
          | HOMO-LUMO GAP               1.411578442225 eV   |
           -------------------------------------------------

 * finished run on 2024/06/05 at 19:58:02.226
