   * xtb version 6.6.1 (8d0f1dd) compiled by 'conda@1efc2f54142f' on 2023-08-01
          program call               : xtb struc.xyz --opt loose --input .xc1 --gfn2

   ID    Z sym.   atoms
    1    7 N      1, 17
    2    6 C      2-6, 8, 9, 11-16, 18-23, 25, 26, 28-33
    3    8 O      7, 10, 24, 27
    4    1 H      34-72
constraining bond 22 24 to    4.7600000 Å, actual value:    2.4323017 Å

          :  Hamiltonian                  GFN2-xTB          :
 * total energy  :   -98.4366976 Eh     change       -0.4035485E-08 Eh
 * total energy  :   -98.6631773 Eh     change       -0.2264797E+00 Eh
 * total energy  :   -98.8114616 Eh     change       -0.1482843E+00 Eh
 * total energy  :   -98.9012503 Eh     change       -0.8978872E-01 Eh
 * total energy  :   -98.9633264 Eh     change       -0.6207613E-01 Eh
 * total energy  :   -99.0099836 Eh     change       -0.4665713E-01 Eh
 * total energy  :   -99.0432154 Eh     change       -0.3323184E-01 Eh
 * total energy  :   -99.0645856 Eh     change       -0.2137021E-01 Eh
 * total energy  :   -99.0760391 Eh     change       -0.1145349E-01 Eh
 * total energy  :   -99.0927315 Eh     change       -0.1669237E-01 Eh
 * total energy  :   -99.3554045 Eh     change       -0.7776114E-04 Eh
 * total energy  :   -99.3554748 Eh     change       -0.7022431E-04 Eh
 * total energy  :   -99.3555271 Eh     change       -0.5231782E-04 Eh
 * total energy  :   -99.3554711 Eh     change        0.5598991E-04 Eh
 * total energy  :   -99.3555942 Eh     change       -0.1230773E-03 Eh
 * total energy  :   -99.3556567 Eh     change       -0.6255673E-04 Eh
 * total energy  :   -99.3556934 Eh     change       -0.3664101E-04 Eh
 * total energy  :   -99.3557517 Eh     change       -0.5830257E-04 Eh
 * total energy  :   -99.3557900 Eh     change       -0.3836009E-04 Eh
   *** GEOMETRY OPTIMIZATION CONVERGED AFTER 73 ITERATIONS ***

 final structure:
================
72
 xtb: 6.6.1 (8d0f1dd)
N           -2.02534662190227        2.94348665270605        2.19653182293177
C           -1.97970708433715        2.19650661340573        1.19729769566571
C           -3.13202161284956        1.94415796699576        0.26427353328925
C           -3.55571608387603        0.48710624818362        0.36151553093389
C           -4.43326423785419       -0.04597189046941       -0.58486930838579
C           -4.87085394887359       -1.35775573961227       -0.50833643740208
O           -5.71550515444036       -1.94931433147233       -1.37794497969519
C           -6.28799908650758       -1.18480475562285       -2.41278522562960
C           -4.41979722279263       -2.18532290346506        0.55576808022113
O           -4.90045968059999       -3.44423541551817        0.55470604731493
C           -4.58166318278492       -4.30101046196017        1.62673337761635
C           -3.54898560473653       -1.64972474950731        1.49148639955655
C           -3.12363408279000       -0.33084365790407        1.39425014268460
C           -2.59755767621234        2.25867461828643       -1.15756713401347
C           -1.65188640653090        1.19129929161320       -1.73637843497809
C           -0.31038831772656        1.17688558400567       -1.11262553938458
N            0.35296327264693        0.09138466834417       -0.73977781598862
C            1.75567238883384        0.16603731757967       -0.40352812458626
C            2.64049770336533       -0.32962303047577       -1.56264972038760
C            4.09052548048379       -0.15980617182975       -1.19985091801690
C            4.73840447898651        1.04030088238003       -1.45784913157550
C            6.06390561814100        1.20689923541911       -1.08405207836072
C            6.74714726384321        0.18958850023946       -0.45386970194770
O           10.16687400799343        1.05683524093106        1.31878544696503
C           11.13137058928183        1.72747081771463        1.53840967523340
C            6.10720522031075       -1.03030832530914       -0.19578216462650
O            6.85702656729181       -1.97218508453950        0.40896791214168
C            6.29913334639783       -3.23470971435297        0.68564723142648
C            4.77287439639253       -1.19125416987856       -0.56773265356339
C           -0.25110240739090       -1.21955519213698       -0.75389043810343
C           -4.37878339437753        2.82822328161280        0.56683610529870
C           -4.97677998940014        2.50468337849935        1.93384652200790
C           -4.09223125402089        4.32410091802005        0.47151952147637
H           -4.79175422509382        0.58048041269136       -1.38467493600617
H           -6.86100361716680       -0.34055343152070       -2.01796626908482
H           -6.95968964466457       -1.86126853044979       -2.93750955745492
H           -5.52816714540212       -0.81866537871210       -3.11107312821908
H           -4.91312231528930       -3.88573624989444        2.58294422556724
H           -5.11848260062871       -5.22682545310953        1.42973046216491
H           -3.50763115379959       -4.50774171482206        1.67027251898852
H           -3.20238803774238       -2.24899774446450        2.31760987947989
H           -2.46957765443356        0.05925804598683        2.15866119126913
H           -3.44452259267046        2.36190705922895       -1.83497336928210
H           -2.07888165301171        3.21773497729835       -1.13212529635501
H           -2.12833691487744        0.21386475049832       -1.68904800476115
H           -1.50871396191927        1.44242896058188       -2.79565660607763
H           -1.06358390535026        1.67315335435823        0.86107886384373
H            0.23625659135403        2.10846157650735       -1.08859901447756
H            1.94629868322926       -0.44016265356069        0.48632552477305
H            2.01916729661440        1.20065060138698       -0.17477804907684
H            2.40901982056290        0.25386037222627       -2.45554524692576
H            2.42315365156672       -1.37839241591954       -1.76837418654568
H            4.21322929501651        1.83974129039561       -1.95868866630044
H            6.56549970765057        2.14004615799207       -1.28784958818974
H           11.47582472925205        1.96099542556445        2.55896972961675
H            7.77492770441216        0.30158050012530       -0.14748917688918
H           11.74970434458815        2.16153554891123        0.73599206044337
H            7.09517577989086       -3.81256211279706        1.15123234871539
H            5.45645706728780       -3.15781919404541        1.38060716360287
H            5.97491265308679       -3.73971907299210       -0.22994393091526
H            4.25915753436496       -2.12177579053472       -0.37957953076831
H           -0.41674552118752       -1.56949479200016       -1.77510844232401
H           -1.20806372094048       -1.20329468029765       -0.22749884538687
H            0.40822557998579       -1.92174801496151       -0.24989526593138
H           -5.12618279079239        2.57614643174177       -0.19451868254223
H           -4.27308123928310        2.76301942733494        2.71861858161297
H           -5.22624154188110        1.44954160095898        2.01521136108568
H           -5.88541701485285        3.08280039677663        2.07939391618875
H           -3.32674302278070        4.60740071902441        1.18723403982425
H           -3.77692815142379        4.61563971481451       -0.52674496056811
H           -4.99841403310286        4.87549406187281        0.70798642137930
H           -1.17673966756885        3.06593974440249        2.73995207000322

          :  Hamiltonian                  GFN2-xTB          :
         :: total energy             -99.355790037312 Eh    ::
         :: gradient norm              0.001588706433 Eh/a0 ::
         :: HOMO-LUMO gap              1.754254673855 eV    ::
         :: SCC energy              -100.759768784595 Eh    ::
         :: -> dispersion             -0.072604879014 Eh    ::
         :: repulsion energy           1.402715718642 Eh    ::

    * Orbital Energies and Occupations

         #    Occupation            Energy/Eh            Energy/eV
      -------------------------------------------------------------
         1        2.0000           -0.8105446             -22.0560
       ...           ...                  ...                  ...
        78        1.9980           -0.5288007             -14.3894
        79        1.9974           -0.5241628             -14.2632
        80        1.9973           -0.5235365             -14.2462
        81        1.9956           -0.5159099             -14.0386
        82        1.9948           -0.5133455             -13.9688
        83        1.9938           -0.5106451             -13.8954
        84        1.9930           -0.5086513             -13.8411
        85        1.9805           -0.4923412             -13.3973
        86        1.9800           -0.4919396             -13.3864
        87        1.9558           -0.4791492             -13.0383
        88        1.9330           -0.4723923             -12.8544
        89        1.8967           -0.4652329             -12.6596
        90        1.8661           -0.4608550             -12.5405 (HOMO)
        91        0.3839           -0.3963873             -10.7862 (LUMO)
        92        0.0209           -0.3470873              -9.4447
        93        0.0134           -0.3399860              -9.2515
        94        0.0034           -0.3180873              -8.6556
        95        0.0028           -0.3150491              -8.5729
        96        0.0025           -0.3135686              -8.5326
        97        0.0013           -0.3032190              -8.2510
        98        0.0000           -0.1924556              -5.2370
        99        0.0000           -0.1824513              -4.9648
       100                         -0.1364457              -3.7129
       101                         -0.0697112              -1.8969
       ...                                ...                  ...
       171                          0.5761763              15.6786
      -------------------------------------------------------------
                  HL-Gap            0.0644677 Eh            1.7543 eV

     #   Z          covCN         q      C6AA      α(0)
     1   7 N        1.774    -0.267    27.748     7.800
     2   6 C        2.827     0.102    25.741     8.314
     3   6 C        3.908     0.006    20.412     6.422
     4   6 C        2.974     0.002    27.985     8.677
     5   6 C        2.920    -0.081    30.016     8.984
     6   6 C        2.862     0.129    25.166     8.223
     7   8 O        1.706    -0.230    17.806     5.697
     8   6 C        3.644     0.027    20.450     6.500
     9   6 C        2.864     0.129    25.178     8.225
    10   8 O        1.706    -0.228    17.779     5.693
    11   6 C        3.645     0.026    20.463     6.501
    12   6 C        2.914    -0.074    29.852     8.959
    13   6 C        2.921    -0.053    29.313     8.878
    14   6 C        3.813    -0.065    21.730     6.635
    15   6 C        3.802    -0.070    21.830     6.652
    16   6 C        2.843     0.009    27.810     8.643
    17   7 N        2.729     0.014    21.016     6.809
    18   6 C        3.756    -0.016    20.914     6.520
    19   6 C        3.808    -0.070    21.839     6.652
    20   6 C        2.971     0.009    27.821     8.652
    21   6 C        2.922    -0.047    29.170     8.857
    22   6 C        2.917    -0.023    28.590     8.768
    23   6 C        2.919    -0.048    29.201     8.862
    24   8 O        0.856    -0.268    19.211     5.876
    25   6 C        2.701     0.181    24.113     8.037
    26   6 C        2.864     0.155    24.651     8.138
    27   8 O        1.706    -0.235    17.887     5.710
    28   6 C        3.644     0.029    20.421     6.496
    29   6 C        2.920    -0.075    29.871     8.963
    30   6 C        3.700    -0.070    22.014     6.710
    31   6 C        3.853    -0.007    20.669     6.466
    32   6 C        3.756    -0.119    22.827     6.812
    33   6 C        3.755    -0.119    22.838     6.814
    34   1 H        0.926     0.052     2.294     2.368
    35   1 H        0.924     0.054     2.268     2.355
    36   1 H        0.925     0.082     1.962     2.191
    37   1 H        0.924     0.047     2.357     2.401
    38   1 H        0.924     0.056     2.250     2.346
    39   1 H        0.925     0.082     1.962     2.191
    40   1 H        0.924     0.049     2.335     2.390
    41   1 H        0.926     0.053     2.282     2.362
    42   1 H        0.926     0.040     2.446     2.446
    43   1 H        0.925     0.061     2.188     2.313
    44   1 H        0.924     0.055     2.264     2.353
    45   1 H        0.925     0.067     2.121     2.278
    46   1 H        0.923     0.081     1.966     2.193
    47   1 H        0.922     0.006     2.961     2.691
    48   1 H        0.926     0.071     2.074     2.252
    49   1 H        0.924     0.068     2.110     2.272
    50   1 H        0.924     0.069     2.102     2.267
    51   1 H        0.924     0.054     2.273     2.357
    52   1 H        0.924     0.054     2.267     2.355
    53   1 H        0.926     0.040     2.451     2.448
    54   1 H        0.926     0.057     2.236     2.339
    55   1 H        0.923     0.056     2.249     2.345
    56   1 H        0.926     0.083     1.947     2.182
    57   1 H        0.923     0.055     2.259     2.351
    58   1 H        0.925     0.079     1.989     2.206
    59   1 H        0.924     0.047     2.361     2.403
    60   1 H        0.924     0.051     2.313     2.378
    61   1 H        0.926     0.039     2.458     2.451
    62   1 H        0.924     0.077     2.010     2.217
    63   1 H        0.924     0.080     1.982     2.202
    64   1 H        0.925     0.081     1.971     2.196
    65   1 H        0.924     0.037     2.483     2.464
    66   1 H        0.925     0.069     2.098     2.265
    67   1 H        0.925     0.036     2.509     2.477
    68   1 H        0.925     0.052     2.299     2.371
    69   1 H        0.925     0.062     2.177     2.307
    70   1 H        0.925     0.035     2.514     2.479
    71   1 H        0.925     0.055     2.257     2.349
    72   1 H        0.860     0.158     1.347     1.818

Wiberg/Mayer (AO) data.
largest (>0.10) Wiberg bond orders for each atom

     #   Z sym  total        # sym  WBO       # sym  WBO       # sym  WBO
 ---------------------------------------------------------------------------
     1   7 N    3.039 --     2 C    1.958    72 H    0.941
     2   6 C    3.931 --     1 N    1.958     3 C    0.994    47 H    0.902
     3   6 C    3.975 --     2 C    0.994     4 C    0.971    14 C    0.957
                            31 C    0.941
     4   6 C    3.948 --    13 C    1.412     5 C    1.368     3 C    0.971
     5   6 C    3.962 --     6 C    1.400     4 C    1.368    34 H    0.958
     6   6 C    3.904 --     5 C    1.400     9 C    1.221     7 O    1.100
     7   8 O    2.254 --     6 C    1.100     8 C    0.978
     8   6 C    3.932 --     7 O    0.978    36 H    0.977    37 H    0.973
                            35 H    0.973
     9   6 C    3.900 --    12 C    1.391     6 C    1.221    10 O    1.103
    10   8 O    2.253 --     9 C    1.103    11 C    0.977
    11   6 C    3.930 --    10 O    0.977    39 H    0.977    40 H    0.973
                            38 H    0.973
    12   6 C    3.962 --    13 C    1.404     9 C    1.391    41 H    0.964
    13   6 C    3.953 --     4 C    1.412    12 C    1.404    42 H    0.963
    14   6 C    3.972 --    15 C    0.981    44 H    0.972    43 H    0.968
                             3 C    0.957
    15   6 C    3.986 --    16 C    1.060    14 C    0.981    45 H    0.961
                            46 H    0.926
    16   6 C    3.602 --    17 N    1.411    15 C    1.060    48 H    0.957
    17   7 N    3.486 --    16 C    1.411    30 C    0.998    18 C    0.986
    18   6 C    3.956 --    17 N    0.986    50 H    0.968    19 C    0.967
                            49 H    0.964
    19   6 C    3.975 --    20 C    1.005    52 H    0.972    51 H    0.972
                            18 C    0.967
    20   6 C    3.965 --    29 C    1.412    21 C    1.405    19 C    1.005
    21   6 C    3.941 --    22 C    1.409    20 C    1.405    53 H    0.968
    22   6 C    3.974 --    23 C    1.474    21 C    1.409    54 H    0.967
    23   6 C    3.938 --    22 C    1.474    26 C    1.316    56 H    0.962
    24   8 O    2.081 --    25 C    1.994
    25   6 C    3.866 --    24 O    1.994    55 H    0.936    57 H    0.936
    26   6 C    3.907 --    29 C    1.353    23 C    1.316    27 O    1.101
    27   8 O    2.250 --    26 C    1.101    28 C    0.979
    28   6 C    3.934 --    27 O    0.979    58 H    0.977    59 H    0.973
                            60 H    0.973
    29   6 C    3.949 --    20 C    1.412    26 C    1.353    61 H    0.963
    30   6 C    3.957 --    17 N    0.998    64 H    0.977    62 H    0.966
                            63 H    0.962
    31   6 C    3.972 --    33 C    1.009    32 C    1.008    65 H    0.960
                             3 C    0.941
    32   6 C    3.978 --    31 C    1.008    67 H    0.982    68 H    0.981
                            66 H    0.974
    33   6 C    3.981 --    31 C    1.009    70 H    0.983    71 H    0.980
                            69 H    0.976
    34   1 H    0.996 --     5 C    0.958
    35   1 H    0.993 --     8 C    0.973
    36   1 H    0.993 --     8 C    0.977
    37   1 H    0.994 --     8 C    0.973
    38   1 H    0.993 --    11 C    0.973
    39   1 H    0.993 --    11 C    0.977
    40   1 H    0.993 --    11 C    0.973
    41   1 H    0.995 --    12 C    0.964
    42   1 H    0.998 --    13 C    0.963
    43   1 H    0.995 --    14 C    0.968
    44   1 H    0.996 --    14 C    0.972
    45   1 H    0.995 --    15 C    0.961
    46   1 H    0.970 --    15 C    0.926
    47   1 H    0.986 --     2 C    0.902
    48   1 H    0.995 --    16 C    0.957
    49   1 H    0.991 --    18 C    0.964
    50   1 H    0.994 --    18 C    0.968
    51   1 H    0.996 --    19 C    0.972
    52   1 H    0.996 --    19 C    0.972
    53   1 H    0.997 --    21 C    0.968
    54   1 H    0.994 --    22 C    0.967
    55   1 H    0.983 --    25 C    0.936
    56   1 H    0.991 --    23 C    0.962
    57   1 H    0.983 --    25 C    0.936
    58   1 H    0.993 --    28 C    0.977
    59   1 H    0.993 --    28 C    0.973
    60   1 H    0.993 --    28 C    0.973
    61   1 H    0.997 --    29 C    0.963
    62   1 H    0.984 --    30 C    0.966
    63   1 H    0.988 --    30 C    0.962
    64   1 H    0.993 --    30 C    0.977
    65   1 H    0.992 --    31 C    0.960
    66   1 H    0.991 --    32 C    0.974
    67   1 H    0.996 --    32 C    0.982
    68   1 H    0.994 --    32 C    0.981
    69   1 H    0.993 --    33 C    0.976
    70   1 H    0.997 --    33 C    0.983
    71   1 H    0.993 --    33 C    0.980
    72   1 H    0.970 --     1 N    0.941
 ---------------------------------------------------------------------------

molecular dipole:
                 x           y           z       tot (Debye)
 q only:        0.541       0.030      -0.669
   full:        0.986      -0.040      -0.728       3.117

           -------------------------------------------------
          | TOTAL ENERGY              -99.355790037312 Eh   |
          | GRADIENT NORM               0.001588706433 Eh/α |
          | HOMO-LUMO GAP               1.754254673855 eV   |
           -------------------------------------------------

 * finished run on 2024/04/06 at 11:14:17.088
