   * xtb version 6.6.1 (8d0f1dd) compiled by 'conda@1efc2f54142f' on 2023-08-01
          program call               : xtb xtbopt.xyz --opt crude --input .xc2 --gfn2

   ID    Z sym.   atoms
    1    7 N      1, 17
    2    6 C      2-6, 8, 9, 11-16, 18-23, 25, 26, 28-33
    3    8 O      7, 10, 24, 27
    4    1 H      34-72

          :  Hamiltonian                  GFN2-xTB          :
 * total energy  :   -99.2696853 Eh     change       -0.2045795E-09 Eh
   *** GEOMETRY OPTIMIZATION CONVERGED AFTER 1 ITERATIONS ***

 final structure:
================
72
 xtb: 6.6.1 (8d0f1dd)
N           -1.91684050764910        2.83527741611387        2.23478573199985
C           -1.85374588830207        2.13798106635950        1.20064927259293
C           -2.99630673204904        1.92289849269025        0.24646489141031
C           -3.46524820574853        0.47796360110344        0.33256218483506
C           -4.40828089801804        0.00394269895945       -0.58177063490899
C           -4.88446997267646       -1.29490701899523       -0.52428420971989
O           -5.80546112950163       -1.82343902087850       -1.35609558854091
C           -6.43434012173499       -0.99255658565401       -2.30334621744646
C           -4.39132585367520       -2.17746604751226        0.47495229072626
O           -4.90149300482166       -3.42441931075293        0.44925183234679
C           -4.51744976364603       -4.34433126283444        1.44447106672068
C           -3.45437604154802       -1.70131206141984        1.37808003230809
C           -3.00170370492514       -0.38937167113343        1.30942862174489
C           -2.43549079616403        2.21127402055104       -1.17129654975096
C           -1.50518844868531        1.11675688286549       -1.72511466042613
C           -0.16339563125025        1.11316846883520       -1.10259599890931
N            0.50980503893360        0.03229852807062       -0.72249521660190
C            1.89064051262567        0.13618704232256       -0.31294392202790
C            2.85710670446977       -0.28376025101490       -1.43778035660237
C            4.27951217765479       -0.08171647454659       -0.99499129571081
C            4.91641511925191        1.13664714253265       -1.19830644609234
C            6.21256643699561        1.35286205944240       -0.75756836446398
C            6.91252974406151        0.35105434176130       -0.09867336892449
O            8.16675076028908        0.43945962685692        0.37195198968063
C            8.88650134667004        1.64151291599336        0.20131218024803
C            6.27089047285295       -0.90205017402484        0.10140877968731
O            7.01852452193985       -1.82720332674286        0.74775425019687
C            6.70871506134665       -3.08330234758186        0.91233227534388
C            4.96278053815388       -1.09535001755035       -0.33936821160129
C           -0.07386115535661       -1.28718124154975       -0.76776505132726
C           -4.21509292419894        2.85112281947678        0.53022782790132
C           -4.86782219357432        2.52534705772606        1.87144004462067
C           -3.86602972154134        4.33576997083983        0.47357410138588
H           -4.78714720140711        0.66774055838870       -1.34078067889890
H           -6.93958626968497       -0.14903850740115       -1.82328198927019
H           -7.17296000566984       -1.62032108887947       -2.79768623618506
H           -5.72318253051157       -0.61949003410519       -3.04760649496269
H           -4.77164885990104       -3.98234329857795        2.44502115125400
H           -5.08039942415306       -5.25183522920836        1.23542827208373
H           -3.44606082687357       -4.56401911055026        1.39625414179747
H           -3.07681368478882       -2.34206326334065        2.15841310950677
H           -2.29816878622744       -0.04726705918335        2.05263108631448
H           -3.27151716647624        2.32434009734476       -1.86026371026815
H           -1.89643272127748        3.15907728675340       -1.15018806794857
H           -1.99143870994785        0.14624886575859       -1.64276456081193
H           -1.36981534820209        1.33071354402722       -2.79359267707970
H           -0.93144443580771        1.63264459065085        0.85426706694230
H            0.37351821327590        2.05001805464460       -1.07341139251729
H            2.05389938938248       -0.49841503699484        0.56224392704009
H            2.10604502257589        1.16885255432527       -0.03027434084221
H            2.65353409051686        0.32471628625801       -2.32024329435679
H            2.68888992556362       -1.33034744115974       -1.69350253337990
H            4.40106646134720        1.93163261525891       -1.71485943023033
H            6.67303796371897        2.31046074176398       -0.93615454628214
H            8.39214587892111        2.47821973976590        0.70270686409505
H            9.02549946663490        1.87644989276662       -0.85757132178577
H            9.85625881837448        1.46609118277548        0.66276331929019
H            7.41882904073917       -3.65579235483496        1.47823089813641
H            5.47296479393925       -5.23525474467311        2.73598850016603
H            5.81252972596555       -3.53649514962808        0.52481961624362
H            4.47272370421361       -2.04074683931426       -0.16590719214735
H           -0.23631401282861       -1.61303477344220       -1.79762530606593
H           -1.03137609449599       -1.29864328279954       -0.24108321542889
H            0.59525673693115       -1.99316044097303       -0.28231859165832
H           -4.94916120067491        2.64832723297937       -0.25780121964990
H           -4.17760464800559        2.73451941686760        2.68214560820402
H           -5.16496185780713        1.48061619646748        1.92112419946027
H           -5.75440802773615        3.14002287943952        2.00311902094551
H           -3.12076699479917        4.57788169961771        1.22491005320408
H           -3.49796809480359        4.62985030033192       -0.50586731781147
H           -4.75904725306324        4.91921919402512        0.68189340173544
H           -1.07627522014456        2.93160690705103        2.79583744306493

          :  Hamiltonian                  GFN2-xTB          :
         :: total energy             -99.269685282093 Eh    ::
         :: gradient norm              0.002903951950 Eh/a0 ::
         :: HOMO-LUMO gap              0.470995403755 eV    ::
         :: SCC energy              -100.644526608536 Eh    ::
         :: -> dispersion             -0.074898510788 Eh    ::
         :: repulsion energy           1.373636003966 Eh    ::

    * Orbital Energies and Occupations

         #    Occupation            Energy/Eh            Energy/eV
      -------------------------------------------------------------
         1        2.0000           -0.8483139             -23.0838
       ...           ...                  ...                  ...
        78        1.9987           -0.5331189             -14.5069
        79        1.9982           -0.5284770             -14.3806
        80        1.9982           -0.5279520             -14.3663
        81        1.9974           -0.5224749             -14.2173
        82        1.9959           -0.5149036             -14.0112
        83        1.9958           -0.5144731             -13.9995
        84        1.9951           -0.5122084             -13.9379
        85        1.9942           -0.5095285             -13.8650
        86        1.9806           -0.4902174             -13.3395
        87        1.9709           -0.4837617             -13.1638
        88        1.9371           -0.4712749             -12.8240
        89        1.8693           -0.4591264             -12.4935
        90        1.1813           -0.4228051             -11.5051 (HOMO)
        91        0.6519           -0.4054963             -11.0341 (LUMO)
        92        0.4108           -0.3955813             -10.7643
        93        0.0146           -0.3392032              -9.2302
        94        0.0063           -0.3257642              -8.8645
        95        0.0043           -0.3196779              -8.6989
        96        0.0034           -0.3162493              -8.6056
        97        0.0028           -0.3132446              -8.5238
        98        0.0000           -0.2015426              -5.4843
        99        0.0000           -0.1905805              -5.1860
       100                         -0.1391403              -3.7862
       101                         -0.0714664              -1.9447
       ...                                ...                  ...
       171                          0.5728107              15.5870
      -------------------------------------------------------------
                  HL-Gap            0.0173088 Eh            0.4710 eV

     #   Z          covCN         q      C6AA      α(0)
     1   7 N        1.774    -0.268    27.778     7.805
     2   6 C        2.826     0.102    25.742     8.314
     3   6 C        3.907     0.006    20.414     6.422
     4   6 C        2.974     0.002    27.966     8.674
     5   6 C        2.921    -0.080    29.997     8.982
     6   6 C        2.863     0.130    25.159     8.222
     7   8 O        1.706    -0.230    17.807     5.697
     8   6 C        3.645     0.028    20.447     6.499
     9   6 C        2.864     0.129    25.176     8.225
    10   8 O        1.706    -0.228    17.779     5.693
    11   6 C        3.645     0.027    20.461     6.501
    12   6 C        2.914    -0.075    29.861     8.961
    13   6 C        2.921    -0.053    29.324     8.880
    14   6 C        3.812    -0.065    21.736     6.636
    15   6 C        3.802    -0.069    21.819     6.650
    16   6 C        2.843     0.006    27.886     8.654
    17   7 N        2.729     0.010    21.088     6.820
    18   6 C        3.755    -0.017    20.926     6.523
    19   6 C        3.807    -0.072    21.871     6.657
    20   6 C        2.968     0.002    27.969     8.675
    21   6 C        2.922    -0.044    29.095     8.846
    22   6 C        2.913    -0.067    29.671     8.932
    23   6 C        2.862     0.140    24.945     8.187
    24   8 O        1.706    -0.225    17.727     5.685
    25   6 C        3.645     0.023    20.527     6.512
    26   6 C        2.867     0.105    25.666     8.304
    27   8 O        1.710    -0.096    15.774     5.362
    28   6 C        2.732     0.037    27.150     8.531
    29   6 C        2.918    -0.068    29.688     8.935
    30   6 C        3.699    -0.070    22.019     6.711
    31   6 C        3.853    -0.007    20.675     6.467
    32   6 C        3.756    -0.119    22.829     6.813
    33   6 C        3.755    -0.118    22.823     6.812
    34   1 H        0.926     0.052     2.294     2.368
    35   1 H        0.924     0.054     2.272     2.357
    36   1 H        0.925     0.081     1.965     2.192
    37   1 H        0.924     0.047     2.352     2.398
    38   1 H        0.924     0.055     2.253     2.347
    39   1 H        0.925     0.082     1.964     2.191
    40   1 H        0.924     0.049     2.338     2.391
    41   1 H        0.926     0.052     2.289     2.366
    42   1 H        0.926     0.038     2.471     2.458
    43   1 H        0.925     0.060     2.199     2.319
    44   1 H        0.924     0.053     2.283     2.363
    45   1 H        0.925     0.067     2.124     2.279
    46   1 H        0.923     0.080     1.984     2.203
    47   1 H        0.922     0.005     2.974     2.697
    48   1 H        0.926     0.068     2.106     2.269
    49   1 H        0.924     0.069     2.102     2.267
    50   1 H        0.924     0.067     2.117     2.276
    51   1 H        0.924     0.058     2.223     2.332
    52   1 H        0.924     0.059     2.215     2.328
    53   1 H        0.926     0.052     2.291     2.367
    54   1 H        0.926     0.064     2.152     2.294
    55   1 H        0.924     0.056     2.241     2.341
    56   1 H        0.924     0.058     2.224     2.332
    57   1 H        0.925     0.085     1.929     2.172
    58   1 H        0.926     0.107     1.725     2.054
    59   1 H        0.000    -0.156    19.912     8.159
    60   1 H        0.926     0.073     2.052     2.240
    61   1 H        0.926     0.054     2.268     2.355
    62   1 H        0.924     0.076     2.017     2.221
    63   1 H        0.924     0.080     1.979     2.200
    64   1 H        0.925     0.080     1.977     2.199
    65   1 H        0.924     0.037     2.487     2.466
    66   1 H        0.925     0.069     2.092     2.262
    67   1 H        0.925     0.036     2.509     2.477
    68   1 H        0.925     0.051     2.307     2.375
    69   1 H        0.925     0.060     2.197     2.318
    70   1 H        0.925     0.034     2.529     2.487
    71   1 H        0.925     0.054     2.266     2.354
    72   1 H        0.860     0.157     1.358     1.825

Wiberg/Mayer (AO) data.
largest (>0.10) Wiberg bond orders for each atom

     #   Z sym  total        # sym  WBO       # sym  WBO       # sym  WBO
 ---------------------------------------------------------------------------
     1   7 N    3.039 --     2 C    1.957    72 H    0.942
     2   6 C    3.930 --     1 N    1.957     3 C    0.995    47 H    0.902
     3   6 C    3.976 --     2 C    0.995     4 C    0.969    14 C    0.957
                            31 C    0.943
     4   6 C    3.949 --    13 C    1.414     5 C    1.368     3 C    0.969
     5   6 C    3.962 --     6 C    1.402     4 C    1.368    34 H    0.958
     6   6 C    3.905 --     5 C    1.402     9 C    1.221     7 O    1.100
     7   8 O    2.254 --     6 C    1.100     8 C    0.978
     8   6 C    3.932 --     7 O    0.978    36 H    0.977    35 H    0.974
                            37 H    0.973
     9   6 C    3.901 --    12 C    1.392     6 C    1.221    10 O    1.103
    10   8 O    2.253 --     9 C    1.103    11 C    0.977
    11   6 C    3.931 --    10 O    0.977    39 H    0.977    40 H    0.974
                            38 H    0.973
    12   6 C    3.962 --    13 C    1.403     9 C    1.392    41 H    0.964
    13   6 C    3.954 --     4 C    1.414    12 C    1.403    42 H    0.963
    14   6 C    3.972 --    15 C    0.982    44 H    0.972    43 H    0.969
                             3 C    0.957
    15   6 C    3.987 --    16 C    1.061    14 C    0.982    45 H    0.961
                            46 H    0.927
    16   6 C    3.581 --    17 N    1.395    15 C    1.061    48 H    0.957
    17   7 N    3.472 --    16 C    1.395    30 C    0.998    18 C    0.990
    18   6 C    3.958 --    17 N    0.990    50 H    0.968    19 C    0.968
                            49 H    0.964
    19   6 C    3.977 --    20 C    1.008    51 H    0.972    52 H    0.972
                            18 C    0.968
    20   6 C    3.969 --    29 C    1.413    21 C    1.390    19 C    1.008
    21   6 C    3.918 --    22 C    1.425    20 C    1.390    53 H    0.968
    22   6 C    3.961 --    21 C    1.425    23 C    1.375    54 H    0.963
    23   6 C    3.890 --    22 C    1.375    26 C    1.226    24 O    1.120
    24   8 O    2.276 --    23 C    1.120    25 C    0.971
    25   6 C    3.926 --    57 H    0.977    55 H    0.974    56 H    0.974
                            24 O    0.971
    26   6 C    3.893 --    29 C    1.356    23 C    1.226    27 O    1.057
    27   8 O    2.434 --    28 C    1.280    26 C    1.057
    28   6 C    3.348 --    27 O    1.280    60 H    0.964    58 H    0.963
    29   6 C    3.911 --    20 C    1.413    26 C    1.356    61 H    0.960
    30   6 C    3.957 --    17 N    0.998    64 H    0.978    62 H    0.967
                            63 H    0.962
    31   6 C    3.973 --    33 C    1.009    32 C    1.008    65 H    0.960
                             3 C    0.943
    32   6 C    3.978 --    31 C    1.008    67 H    0.982    68 H    0.981
                            66 H    0.974
    33   6 C    3.983 --    31 C    1.009    70 H    0.983    71 H    0.980
                            69 H    0.977
    34   1 H    0.996 --     5 C    0.958
    35   1 H    0.993 --     8 C    0.974
    36   1 H    0.993 --     8 C    0.977
    37   1 H    0.994 --     8 C    0.973
    38   1 H    0.993 --    11 C    0.973
    39   1 H    0.993 --    11 C    0.977
    40   1 H    0.993 --    11 C    0.974
    41   1 H    0.995 --    12 C    0.964
    42   1 H    0.998 --    13 C    0.963
    43   1 H    0.995 --    14 C    0.969
    44   1 H    0.996 --    14 C    0.972
    45   1 H    0.995 --    15 C    0.961
    46   1 H    0.969 --    15 C    0.927
    47   1 H    0.987 --     2 C    0.902
    48   1 H    0.995 --    16 C    0.957
    49   1 H    0.990 --    18 C    0.964
    50   1 H    0.994 --    18 C    0.968
    51   1 H    0.996 --    19 C    0.972
    52   1 H    0.996 --    19 C    0.972
    53   1 H    0.997 --    21 C    0.968
    54   1 H    0.995 --    22 C    0.963
    55   1 H    0.994 --    25 C    0.974
    56   1 H    0.993 --    25 C    0.974
    57   1 H    0.992 --    25 C    0.977
    58   1 H    0.988 --    28 C    0.963
    59   1 H    0.014
    60   1 H    0.995 --    28 C    0.964
    61   1 H    0.996 --    29 C    0.960
    62   1 H    0.985 --    30 C    0.967
    63   1 H    0.987 --    30 C    0.962
    64   1 H    0.993 --    30 C    0.978
    65   1 H    0.992 --    31 C    0.960
    66   1 H    0.991 --    32 C    0.974
    67   1 H    0.997 --    32 C    0.982
    68   1 H    0.994 --    32 C    0.981
    69   1 H    0.993 --    33 C    0.977
    70   1 H    0.997 --    33 C    0.983
    71   1 H    0.994 --    33 C    0.980
    72   1 H    0.970 --     1 N    0.942
 ---------------------------------------------------------------------------

molecular dipole:
                 x           y           z       tot (Debye)
 q only:        1.123       1.041      -1.540
   full:        1.464       0.958      -1.676       6.157

           -------------------------------------------------
          | TOTAL ENERGY              -99.269685282093 Eh   |
          | GRADIENT NORM               0.002903951950 Eh/α |
          | HOMO-LUMO GAP               0.470995403755 eV   |
           -------------------------------------------------

 * finished run on 2024/04/06 at 11:14:34.337
