   * xtb version 6.6.1 (8d0f1dd) compiled by 'conda@1efc2f54142f' on 2023-08-01
          program call               : xtb xtbopt.xyz --opt crude --input .xc2 --gfn2

   ID    Z sym.   atoms
    1    6 C      1, 3, 5-7, 10, 11, 14
    2    7 N      2, 4, 9, 13
    3    8 O      8, 12
    4    1 H      15-25
########################################################################
[WARNING] Please study the warnings concerning your input carefully
-1- readin_getIntValue: could not parse ''
########################################################################

          :  Hamiltonian                  GFN2-xTB          :
 * total energy  :   -40.4380723 Eh     change       -0.3197442E-12 Eh
 * total energy  :   -42.1511592 Eh     change       -0.1713087E+01 Eh
 * total energy  :   -42.1686469 Eh     change       -0.1748763E-01 Eh
 * total energy  :   -42.1725132 Eh     change       -0.3866287E-02 Eh
 * total energy  :   -42.1732693 Eh     change       -0.7560952E-03 Eh
 * total energy  :   -42.1738591 Eh     change       -0.5898358E-03 Eh
 * total energy  :   -42.1745617 Eh     change       -0.7025955E-03 Eh
 * total energy  :   -42.1751257 Eh     change       -0.5639808E-03 Eh
 * total energy  :   -42.1753755 Eh     change       -0.2497846E-03 Eh
   *** GEOMETRY OPTIMIZATION CONVERGED AFTER 9 ITERATIONS ***

 final structure:
================
25
 xtb: 6.6.1 (8d0f1dd)
C            3.27426554862093        1.13757633274181        0.02703796476508
N            2.41699717868906        0.14465690680183        0.00852933627947
C            2.57310343868316       -1.09988346809522       -0.49426461339156
N            1.41111765735731       -1.80862128145500       -0.37508440343271
C            0.47348394403011       -1.07484367339493        0.23794399581234
C            1.06953847671149        0.24493877560864        0.55439829939361
C            0.18067385168877        1.34673591652080       -0.10289137640884
O            0.64723046172651        2.32566718077570       -0.61113532091035
N           -1.14878852788373        1.06473512998735        0.02076910416851
C           -2.10445693865415        2.13251995944976       -0.27048576045706
C           -1.72478210839236       -0.16716995874628        0.34020677881847
O           -2.89714922417315       -0.30091573651899        0.54535404906230
N           -0.85496535610311       -1.27479438530262        0.31178209844832
C           -1.43553757444761       -2.60351574496164        0.22592572540375
H            1.08503395591275        0.50597226419965        1.62116807422053
H            4.24212196934941        1.00530595434053       -0.41879428144397
H            2.99075798280283        2.08070002318710        0.44910297329044
H            3.47202517848932       -1.47715576883297       -0.93164552297420
H           -1.56696398604559        3.07582692298053       -0.30866237452518
H           -2.59548403373832        1.95044208016524       -1.22559835925250
H           -2.85839963900244        2.15171232289473        0.51470245185938
H           -0.91644438876480       -3.28212360788773        0.90051820324484
H           -1.39059014531736       -2.98222970955457       -0.79676634742570
H           -2.48010077991451       -2.52433670536567        0.52440244561220
H            1.29774457247424       -2.75296118794042       -0.71534152225955

          :  Hamiltonian                  GFN2-xTB          :
         :: total energy             -42.175375456737 Eh    ::
         :: gradient norm              0.006891794099 Eh/a0 ::
         :: HOMO-LUMO gap              1.592873233050 eV    ::
         :: SCC energy               -42.691760600942 Eh    ::
         :: -> dispersion             -0.023047100302 Eh    ::
         :: repulsion energy           0.516220587141 Eh    ::

    * Orbital Energies and Occupations

         #    Occupation            Energy/Eh            Energy/eV
      -------------------------------------------------------------
         1        2.0000           -0.9065669             -24.6689
       ...           ...                  ...                  ...
        25        2.0000           -0.6772112             -18.4279
        26        2.0000           -0.6728215             -18.3084
        27        2.0000           -0.6644931             -18.0818
        28        2.0000           -0.6605013             -17.9732
        29        1.9999           -0.6369355             -17.3319
        30        1.9999           -0.6328863             -17.2217
        31        1.9998           -0.6282965             -17.0968
        32        1.9993           -0.6076518             -16.5350
        33        1.9991           -0.6040038             -16.4358
        34        1.9974           -0.5871794             -15.9780
        35        1.9953           -0.5775838             -15.7169
        36        1.9921           -0.5695127             -15.4972
        37        1.7251           -0.5109359             -13.9033 (HOMO)
        38        0.2694           -0.4523989             -12.3104 (LUMO)
        39        0.0180           -0.4074449             -11.0871
        40        0.0045           -0.3853470             -10.4858
        41        0.0003           -0.3422267              -9.3125
        42                         -0.2120066              -5.7690
        43                         -0.1915312              -5.2118
        44                         -0.1579550              -4.2982
        45                         -0.1482088              -4.0330
        46                         -0.1074001              -2.9225
        47                         -0.0782293              -2.1287
        48                         -0.0597209              -1.6251
       ...                                ...                  ...
        67                          0.5341780              14.5357
      -------------------------------------------------------------
                  HL-Gap            0.0585370 Eh            1.5929 eV

     #   Z          covCN         q      C6AA      α(0)
     1   6 C        2.789    -0.071    29.760     8.936
     2   7 N        2.780     0.107    19.403     6.542
     3   6 C        2.950    -0.002    28.078     8.691
     4   7 N        2.742    -0.048    22.159     6.991
     5   6 C        2.974     0.089    26.006     8.365
     6   6 C        3.900    -0.009    20.674     6.463
     7   6 C        2.762     0.271    22.417     7.754
     8   8 O        0.857    -0.327    20.273     6.037
     9   7 N        2.736    -0.088    22.960     7.117
    10   6 C        3.708    -0.062    21.841     6.680
    11   6 C        2.723     0.314    21.666     7.620
    12   8 O        0.859    -0.340    20.527     6.074
    13   7 N        2.735    -0.059    22.381     7.026
    14   6 C        3.697    -0.073    22.063     6.718
    15   1 H        0.923     0.121     1.602     1.980
    16   1 H        0.926     0.109     1.707     2.043
    17   1 H        0.926     0.119     1.619     1.990
    18   1 H        0.927     0.115     1.655     2.012
    19   1 H        0.925     0.106     1.734     2.059
    20   1 H        0.925     0.094     1.836     2.119
    21   1 H        0.925     0.108     1.718     2.049
    22   1 H        0.925     0.087     1.913     2.163
    23   1 H        0.924     0.083     1.943     2.180
    24   1 H        0.925     0.127     1.557     1.951
    25   1 H        0.860     0.228     0.975     1.547

Wiberg/Mayer (AO) data.
largest (>0.10) Wiberg bond orders for each atom

     #   Z sym  total        # sym  WBO       # sym  WBO       # sym  WBO
 ---------------------------------------------------------------------------
     1   6 C    3.660 --     2 N    1.427    17 H    0.964    16 H    0.964
                             3 C    0.167
     2   7 N    3.715 --     1 C    1.427     3 C    1.236     6 C    0.977
     3   6 C    3.702 --     2 N    1.236     4 N    1.187    18 H    0.956
                             1 C    0.167
     4   7 N    3.558 --     5 C    1.281     3 C    1.187    25 H    0.918
     5   6 C    3.763 --     4 N    1.281    13 N    1.220     6 C    1.016
     6   6 C    3.964 --     5 C    1.016     2 N    0.977    15 H    0.912
                             7 C    0.868
     7   6 C    3.921 --     8 O    1.765     9 N    1.184     6 C    0.868
     8   8 O    2.108 --     7 C    1.765     9 N    0.158
     9   7 N    3.552 --     7 C    1.184    11 C    1.072    10 C    0.955
                             8 O    0.158    12 O    0.113
    10   6 C    3.913 --    19 H    0.973    20 H    0.969    21 H    0.967
                             9 N    0.955
    11   6 C    3.919 --    12 O    1.720     9 N    1.072    13 N    1.038
    12   8 O    2.041 --    11 C    1.720     9 N    0.113    13 N    0.113
    13   7 N    3.513 --     5 C    1.220    11 C    1.038    14 C    0.969
                            12 O    0.113
    14   6 C    3.921 --    22 H    0.974    13 N    0.969    23 H    0.968
                            24 H    0.964
    15   1 H    0.965 --     6 C    0.912
    16   1 H    0.987 --     1 C    0.964
    17   1 H    0.986 --     1 C    0.964
    18   1 H    0.986 --     3 C    0.956
    19   1 H    0.988 --    10 C    0.973
    20   1 H    0.988 --    10 C    0.969
    21   1 H    0.986 --    10 C    0.967
    22   1 H    0.989 --    14 C    0.974
    23   1 H    0.988 --    14 C    0.968
    24   1 H    0.983 --    14 C    0.964
    25   1 H    0.948 --     4 N    0.918
 ---------------------------------------------------------------------------

molecular dipole:
                 x           y           z       tot (Debye)
 q only:        2.022      -1.651       0.052
   full:        2.285      -1.982       0.058       7.690

           -------------------------------------------------
          | TOTAL ENERGY              -42.175375456737 Eh   |
          | GRADIENT NORM               0.006891794099 Eh/α |
          | HOMO-LUMO GAP               1.592873233050 eV   |
           -------------------------------------------------

 * finished run on 2024/06/05 at 20:00:26.863
