   * xtb version 6.6.1 (8d0f1dd) compiled by 'conda@1efc2f54142f' on 2023-08-01
          program call               : xtb struc.xyz --opt loose --input .xc1 --gfn2

   ID    Z sym.   atoms
    1    6 C      1, 3, 5-7, 10, 11, 14
    2    7 N      2, 4, 9, 13
    3    8 O      8, 12
    4    1 H      15-25
constraining bond 5 23 to    3.7133300 Å, actual value:    2.7817644 Å

          :  Hamiltonian                  GFN2-xTB          :
 * total energy  :   -43.7973692 Eh     change       -0.6650680E-10 Eh
 * total energy  :   -47.0642885 Eh     change       -0.3266919E+01 Eh
 * total energy  :   -52.1096155 Eh     change       -0.5045327E+01 Eh
 * total energy  :   -58.6623252 Eh     change       -0.6552710E+01 Eh
 * total energy  :   -45.8855123 Eh     change        0.1277681E+02 Eh
 * total energy  :   -56.2562257 Eh     change       -0.1037071E+02 Eh
 * total energy  :   -56.6206208 Eh     change       -0.3643951E+00 Eh
 * total energy  :   -59.0810826 Eh     change       -0.2460462E+01 Eh
 * total energy  :   -56.8774077 Eh     change        0.2203675E+01 Eh
 * total energy  :   -59.3871742 Eh     change       -0.2509766E+01 Eh
 * total energy  :   -59.7405177 Eh     change       -0.6070072E-03 Eh
 * total energy  :   -59.7411300 Eh     change       -0.6123184E-03 Eh
 * total energy  :   -59.7406655 Eh     change        0.4645543E-03 Eh
 * total energy  :   -59.7416892 Eh     change       -0.1023664E-02 Eh
 * total energy  :   -59.7418368 Eh     change       -0.1476298E-03 Eh
 * total energy  :   -59.7420243 Eh     change       -0.1874827E-03 Eh
 * total energy  :   -59.7420841 Eh     change       -0.5983318E-04 Eh
 * total energy  :   -59.7421396 Eh     change       -0.5551704E-04 Eh
 * total energy  :   -59.7421694 Eh     change       -0.2976452E-04 Eh
   *** GEOMETRY OPTIMIZATION CONVERGED AFTER 82 ITERATIONS ***

 final structure:
================
25
 xtb: 6.6.1 (8d0f1dd)
C            2.85475608609693        0.71905586836567        0.44701222945779
N            1.82793678851210       -0.22998954538243        0.06927883498501
C            2.12930903877652       -1.40369945772504       -0.42899988798748
N            1.18351903245298       -2.28538545265703       -0.84574865417056
C           -0.25938918640027       -2.12742313815470       -0.64226191771077
C            0.50536800912782        0.14730904538401        0.27356261558553
C           -0.04600400322639        1.44017105500191        0.10725213885696
O            0.44978722562351        2.53959608876879        0.12845460530705
N           -1.46069426938596        1.22746000398270       -0.08321159181432
C           -2.37905324184950        2.33545079204525       -0.23810043199251
C           -1.81555176039770       -0.04350455731464       -0.16844562287743
O           -2.82912981707574       -0.63649289415903       -0.34564880405924
N           -0.51314234027727       -0.83644908855203        0.07445098066855
C           -0.62717162082231       -2.06368535947299        0.83703493254345
H            3.17588078329659        0.54179879936801        1.47518136167976
H            3.71090961658374        0.62699787679340       -0.21802346151995
H            2.44579587206842        1.72756165458292        0.37916685279614
H            3.16273014564113       -1.67796511123949       -0.55413358862582
H           -1.80097490167488        3.19386448886885       -0.57774409308202
H           -3.14837624288514        2.07717571396229       -0.96241888918915
H           -2.84423060392379        2.57397133849749        0.71862494408001
H            0.12406488004666       -2.23274960586067        1.59624330311495
H           -0.52595596827625       -2.27147572075389       -0.93929341361660
H           -1.64127680233589       -2.33532473091953        1.11086046371998
H            1.48132479440477       -3.18802952183200       -1.18192128824989

          :  Hamiltonian                  GFN2-xTB          :
         :: total energy             -59.742169384377 Eh    ::
         :: gradient norm              0.003040342253 Eh/a0 ::
         :: HOMO-LUMO gap              2.452808726625 eV    ::
         :: SCC energy               -42.677689123897 Eh    ::
         :: -> dispersion             -0.023292370732 Eh    ::
         :: repulsion energy           2.250631152723 Eh    ::

    * Orbital Energies and Occupations

         #    Occupation            Energy/Eh            Energy/eV
      -------------------------------------------------------------
         1        2.0000           -0.9302747             -25.3141
       ...           ...                  ...                  ...
        25        2.0000           -0.6773216             -18.4309
        26        2.0000           -0.6745877             -18.3565
        27        2.0000           -0.6672580             -18.1570
        28        2.0000           -0.6567455             -17.8710
        29        2.0000           -0.6410500             -17.4439
        30        1.9999           -0.6372311             -17.3399
        31        1.9999           -0.6321004             -17.2003
        32        1.9998           -0.6141856             -16.7128
        33        1.9996           -0.6069746             -16.5166
        34        1.9993           -0.5960236             -16.2186
        35        1.9959           -0.5686412             -15.4735
        36        1.9914           -0.5569008             -15.1540
        37        1.8789           -0.5140574             -13.9882 (HOMO)
        38        0.0994           -0.4239184             -11.5354 (LUMO)
        39        0.0356           -0.4071536             -11.0792
        40        0.0002           -0.3263688              -8.8809
        41        0.0001           -0.3036608              -8.2630
        42        0.0000           -0.2717888              -7.3957
        43        0.0000           -0.2376860              -6.4678
        44                         -0.1838643              -5.0032
        45                         -0.1684187              -4.5829
        46                         -0.1433769              -3.9015
        47                         -0.0999985              -2.7211
        48                         -0.0709481              -1.9306
       ...                                ...                  ...
        67                         10.6168619             288.8995
      -------------------------------------------------------------
                  HL-Gap            0.0901391 Eh            2.4528 eV

     #   Z          covCN         q      C6AA      α(0)
     1   6 C        3.708    -0.095    22.471     6.776
     2   7 N        2.736     0.060    20.197     6.675
     3   6 C        2.795     0.057    26.700     8.465
     4   7 N        2.690    -0.153    24.302     7.322
     5   6 C        3.721     0.058    19.715     6.341
     6   6 C        2.903    -0.057    29.418     8.893
     7   6 C        2.806     0.251    22.781     7.820
     8   8 O        0.857    -0.378    21.243     6.179
     9   7 N        2.777    -0.079    22.777     7.088
    10   6 C        3.693    -0.059    21.813     6.682
    11   6 C        2.740     0.304    21.843     7.652
    12   8 O        0.856    -0.333    20.395     6.055
    13   7 N        3.656     0.058    20.229     6.680
    14   6 C        3.741    -0.035    21.273     6.580
    15   1 H        0.924     0.103     1.760     2.075
    16   1 H        0.925     0.098     1.807     2.102
    17   1 H        0.924     0.136     1.487     1.907
    18   1 H        0.926     0.110     1.693     2.035
    19   1 H        0.925     0.116     1.648     2.007
    20   1 H        0.925     0.096     1.824     2.112
    21   1 H        0.924     0.096     1.820     2.110
    22   1 H        0.925     0.114     1.661     2.015
    23   1 H        0.939     0.178     1.218     1.725
    24   1 H        0.925     0.133     1.513     1.924
    25   1 H        0.860     0.221     1.005     1.571

Wiberg/Mayer (AO) data.
largest (>0.10) Wiberg bond orders for each atom

     #   Z sym  total        # sym  WBO       # sym  WBO       # sym  WBO
 ---------------------------------------------------------------------------
     1   6 C    3.915 --     2 N    0.973    16 H    0.973    15 H    0.959
                            17 H    0.954
     2   7 N    3.650 --     3 C    1.426     6 C    1.077     1 C    0.973
                             4 N    0.108
     3   6 C    3.838 --     2 N    1.426     4 N    1.225    18 H    0.947
     4   7 N    3.385 --     3 C    1.225     5 C    1.004    25 H    0.923
                             2 N    0.108
     5   6 C    3.860 --     4 N    1.004    23 H    0.953    14 C    0.942
                            13 N    0.870
     6   6 C    3.622 --     7 C    1.212     2 N    1.077    13 N    0.960
                             8 O    0.139
     7   6 C    3.938 --     8 O    1.663     6 C    1.212     9 N    0.952
     8   8 O    2.031 --     7 C    1.663     6 C    0.139
     9   7 N    3.571 --    11 C    1.297    10 C    0.966     7 C    0.952
                            12 O    0.196
    10   6 C    3.918 --    20 H    0.972    19 H    0.967     9 N    0.966
                            21 H    0.964
    11   6 C    3.928 --    12 O    1.754     9 N    1.297    13 N    0.773
    12   8 O    2.140 --    11 C    1.754     9 N    0.196    13 N    0.104
    13   7 N    3.710 --     6 C    0.960    14 C    0.908     5 C    0.870
                            11 C    0.773    12 O    0.104
    14   6 C    3.874 --    22 H    0.966    24 H    0.957     5 C    0.942
                            13 N    0.908
    15   1 H    0.986 --     1 C    0.959
    16   1 H    0.989 --     1 C    0.973
    17   1 H    0.980 --     1 C    0.954
    18   1 H    0.987 --     3 C    0.947
    19   1 H    0.985 --    10 C    0.967
    20   1 H    0.990 --    10 C    0.972
    21   1 H    0.988 --    10 C    0.964
    22   1 H    0.986 --    14 C    0.966
    23   1 H    0.968 --     5 C    0.953
    24   1 H    0.981 --    14 C    0.957
    25   1 H    0.950 --     4 N    0.923
 ---------------------------------------------------------------------------

molecular dipole:
                 x           y           z       tot (Debye)
 q only:        1.530      -2.350      -0.030
   full:        1.663      -2.760      -0.097       8.195

           -------------------------------------------------
          | TOTAL ENERGY              -59.742169384377 Eh   |
          | GRADIENT NORM               0.003040342253 Eh/α |
          | HOMO-LUMO GAP               2.452808726625 eV   |
           -------------------------------------------------

 * finished run on 2024/06/05 at 19:58:31.980
