   * xtb version 6.6.1 (8d0f1dd) compiled by 'conda@1efc2f54142f' on 2023-08-01
          program call               : xtb xtbopt.xyz --opt crude --input .xc2 --gfn2

   ID    Z sym.   atoms
    1    6 C      1, 3, 5-7, 10, 11, 14
    2    7 N      2, 4, 9, 13
    3    8 O      8, 12
    4    1 H      15-25
########################################################################
[WARNING] Please study the warnings concerning your input carefully
-1- readin_getIntValue: could not parse ''
########################################################################

          :  Hamiltonian                  GFN2-xTB          :
 * total energy  :   -40.4188413 Eh     change       -0.8526513E-13 Eh
 * total energy  :   -42.0940717 Eh     change       -0.1675230E+01 Eh
 * total energy  :   -42.1360045 Eh     change       -0.4193272E-01 Eh
 * total energy  :   -42.1464156 Eh     change       -0.1041116E-01 Eh
 * total energy  :   -42.1491122 Eh     change       -0.2696621E-02 Eh
 * total energy  :   -42.1496548 Eh     change       -0.5425656E-03 Eh
 * total energy  :   -42.1505124 Eh     change       -0.8576261E-03 Eh
 * total energy  :   -42.1514313 Eh     change       -0.9188535E-03 Eh
 * total energy  :   -42.1520257 Eh     change       -0.5944165E-03 Eh
 * total energy  :   -42.1521915 Eh     change       -0.1657589E-03 Eh
   *** GEOMETRY OPTIMIZATION CONVERGED AFTER 10 ITERATIONS ***

 final structure:
================
25
 xtb: 6.6.1 (8d0f1dd)
C            3.22273627715129        1.13231346996045        0.11362087628462
N            2.22442513157709        0.09872800203527        0.07172943238204
C            2.44511123206963       -1.20269343981878        0.03219082448726
N            1.26921444943506       -1.86601797867090        0.04510205112294
C            0.25192765032264       -0.95175529540920        0.10078916595020
C            0.86191583647503        0.31377792031279        0.10499634690869
C            0.16948428742410        1.56761985312126       -0.12317625729046
O            0.68014801846629        2.64433286295291       -0.32731327398331
N           -1.22665893612030        1.34037595809637       -0.15348002532523
C           -2.08555695085373        2.17816320341466       -0.57341754069173
C           -1.93335050922428       -0.15372065133621        0.70303655094033
O           -3.11633528019751       -0.19620690008449        0.46712517684330
N           -1.05240167753226       -1.19596024192724        0.14971697659354
C           -1.64345180285584       -2.46186656675275       -0.21649613730256
H            3.46667799991499        1.37465732547683        1.15004251088524
H            4.12602854967096        0.80289790684449       -0.39531748212955
H            2.82955582251024        2.03151984433287       -0.36086937113540
H            3.40883557130540       -1.67161603924092       -0.00674403604685
H           -1.81310411149764        3.15616674305594       -0.95182336090603
H           -3.12421743573666        1.86966128330560       -0.53340366831995
H           -1.51762504582947        0.19439362362621        1.66465587006897
H           -1.51977387347950       -3.20814282010170        0.57159619921259
H           -1.21423073121141       -2.82779332569458       -1.14861106064557
H           -2.70985465230512       -2.28117086515412       -0.35763445631994
H            1.16093169462105       -2.86942533074461        0.00485630631658

          :  Hamiltonian                  GFN2-xTB          :
         :: total energy             -42.152191452722 Eh    ::
         :: gradient norm              0.005236369442 Eh/a0 ::
         :: HOMO-LUMO gap              1.928216586253 eV    ::
         :: SCC energy               -42.680565024199 Eh    ::
         :: -> dispersion             -0.023130626608 Eh    ::
         :: repulsion energy           0.528212259306 Eh    ::

    * Orbital Energies and Occupations

         #    Occupation            Energy/Eh            Energy/eV
      -------------------------------------------------------------
         1        2.0000           -0.9107297             -24.7822
       ...           ...                  ...                  ...
        25        2.0000           -0.6706787             -18.2501
        26        2.0000           -0.6617091             -18.0060
        27        1.9999           -0.6504458             -17.6995
        28        1.9998           -0.6381649             -17.3654
        29        1.9997           -0.6352499             -17.2860
        30        1.9994           -0.6219509             -16.9241
        31        1.9993           -0.6192088             -16.8495
        32        1.9992           -0.6166193             -16.7791
        33        1.9989           -0.6118906             -16.6504
        34        1.9896           -0.5766224             -15.6907
        35        1.9643           -0.5569143             -15.1544
        36        1.9428           -0.5492456             -14.9457
        37        1.8450           -0.5326534             -14.4942 (HOMO)
        38        0.2387           -0.4617927             -12.5660 (LUMO)
        39        0.0185           -0.4193884             -11.4121
        40        0.0050           -0.3986301             -10.8473
        41        0.0000           -0.3217860              -8.7562
        42        0.0000           -0.3100305              -8.4364
        43                         -0.1950677              -5.3081
        44                         -0.1829744              -4.9790
        45                         -0.1379033              -3.7525
        46                         -0.0881595              -2.3989
        47                         -0.0804589              -2.1894
        48                         -0.0398742              -1.0850
       ...                                ...                  ...
        67                          0.5376113              14.6291
      -------------------------------------------------------------
                  HL-Gap            0.0708607 Eh            1.9282 eV

     #   Z          covCN         q      C6AA      α(0)
     1   6 C        3.693    -0.095    22.496     6.787
     2   7 N        2.832     0.087    19.741     6.599
     3   6 C        3.035     0.055    26.726     8.480
     4   7 N        2.795    -0.062    22.447     7.037
     5   6 C        3.012     0.119    25.365     8.262
     6   6 C        3.104    -0.029    28.597     8.762
     7   6 C        2.768     0.277    22.313     7.736
     8   8 O        0.857    -0.343    20.581     6.082
     9   7 N        2.452    -0.118    23.642     7.221
    10   6 C        2.783     0.048    26.906     8.496
    11   6 C        3.322     0.251    21.014     7.293
    12   8 O        0.856    -0.369    21.077     6.155
    13   7 N        2.730    -0.063    22.454     7.038
    14   6 C        3.694    -0.069    22.000     6.711
    15   1 H        0.924     0.112     1.675     2.024
    16   1 H        0.925     0.103     1.761     2.075
    17   1 H        0.925     0.137     1.485     1.906
    18   1 H        0.926     0.125     1.577     1.964
    19   1 H        0.925     0.126     1.563     1.955
    20   1 H        0.925     0.143     1.437     1.874
    21   1 H        0.923     0.052     2.297     2.370
    22   1 H        0.924     0.081     1.971     2.196
    23   1 H        0.925     0.078     2.001     2.212
    24   1 H        0.924     0.125     1.573     1.961
    25   1 H        0.860     0.229     0.968     1.541

Wiberg/Mayer (AO) data.
largest (>0.10) Wiberg bond orders for each atom

     #   Z sym  total        # sym  WBO       # sym  WBO       # sym  WBO
 ---------------------------------------------------------------------------
     1   6 C    3.915 --     2 N    0.988    16 H    0.971    17 H    0.954
                            15 H    0.951
     2   7 N    3.697 --     3 C    1.413     6 C    1.152     1 C    0.988
     3   6 C    3.874 --     2 N    1.413     4 N    1.273    18 H    0.952
     4   7 N    3.591 --     3 C    1.273     5 C    1.177    25 H    0.919
     5   6 C    3.938 --     6 C    1.293    13 N    1.288     4 N    1.177
     6   6 C    3.883 --     5 C    1.293     2 N    1.152     7 C    1.091
     7   6 C    3.890 --     8 O    1.707     6 C    1.091     9 N    1.010
     8   8 O    1.998 --     7 C    1.707
     9   7 N    3.435 --    10 C    1.761     7 C    1.010    11 C    0.404
                            12 O    0.129
    10   6 C    3.735 --     9 N    1.761    19 H    0.941    20 H    0.940
    11   6 C    3.936 --    12 O    1.657    13 N    0.902    21 H    0.896
                             9 N    0.404
    12   8 O    1.971 --    11 C    1.657     9 N    0.129
    13   7 N    3.467 --     5 C    1.288    14 C    0.982    11 C    0.902
    14   6 C    3.925 --    13 N    0.982    23 H    0.971    22 H    0.963
                            24 H    0.961
    15   1 H    0.984 --     1 C    0.951
    16   1 H    0.988 --     1 C    0.971
    17   1 H    0.980 --     1 C    0.954
    18   1 H    0.983 --     3 C    0.952
    19   1 H    0.975 --    10 C    0.941
    20   1 H    0.974 --    10 C    0.940
    21   1 H    0.958 --    11 C    0.896
    22   1 H    0.983 --    14 C    0.963
    23   1 H    0.987 --    14 C    0.971
    24   1 H    0.982 --    14 C    0.961
    25   1 H    0.947 --     4 N    0.919
 ---------------------------------------------------------------------------

molecular dipole:
                 x           y           z       tot (Debye)
 q only:        2.322      -1.624      -0.146
   full:        2.614      -1.890      -0.092       8.201

           -------------------------------------------------
          | TOTAL ENERGY              -42.152191452722 Eh   |
          | GRADIENT NORM               0.005236369442 Eh/α |
          | HOMO-LUMO GAP               1.928216586253 eV   |
           -------------------------------------------------

 * finished run on 2024/06/05 at 19:59:28.692
