   * xtb version 6.6.1 (8d0f1dd) compiled by 'conda@1efc2f54142f' on 2023-08-01
          program call               : xtb struc.xyz --opt loose --input .xc1 --gfn2

   ID    Z sym.   atoms
    1    7 N      1, 17
    2    6 C      2-6, 8, 9, 11-16, 18-23, 25, 26, 28-33
    3    8 O      7, 10, 24, 27
    4    1 H      34-72
constraining bond 38 40 to    3.2800000 Å, actual value:    1.7881358 Å

          :  Hamiltonian                  GFN2-xTB          :
 * total energy  :   -99.0067324 Eh     change       -0.4035485E-08 Eh
 * total energy  :   -99.1655775 Eh     change       -0.1588452E+00 Eh
 * total energy  :   -99.2380998 Eh     change       -0.7252222E-01 Eh
 * total energy  :   -99.2553651 Eh     change       -0.1726534E-01 Eh
 * total energy  :   -99.2579744 Eh     change       -0.2609324E-02 Eh
 * total energy  :   -99.2586358 Eh     change       -0.6613904E-03 Eh
 * total energy  :   -99.2591814 Eh     change       -0.5456001E-03 Eh
 * total energy  :   -99.2593756 Eh     change       -0.1941823E-03 Eh
 * total energy  :   -99.2595112 Eh     change       -0.1356157E-03 Eh
 * total energy  :   -99.2596337 Eh     change       -0.1224502E-03 Eh
 * total energy  :   -99.2716747 Eh     change       -0.3052449E-02 Eh
 * total energy  :   -99.2726630 Eh     change       -0.9883139E-03 Eh
 * total energy  :   -99.2733771 Eh     change       -0.7140409E-03 Eh
 * total energy  :   -99.2737484 Eh     change       -0.3712971E-03 Eh
 * total energy  :   -99.2738542 Eh     change       -0.1058578E-03 Eh
 * total energy  :   -99.2739066 Eh     change       -0.5239986E-04 Eh
 * total energy  :   -99.2739577 Eh     change       -0.5112945E-04 Eh
 * total energy  :   -99.2740224 Eh     change       -0.6466082E-04 Eh
 * total energy  :   -99.2740621 Eh     change       -0.3972737E-04 Eh
   *** GEOMETRY OPTIMIZATION CONVERGED AFTER 31 ITERATIONS ***

 final structure:
================
72
 xtb: 6.6.1 (8d0f1dd)
N           -1.90012264086762        2.84371517057845        2.22653348198066
C           -1.84002089892350        2.14474570148334        1.19366528699194
C           -2.98806818712826        1.92742583098765        0.24501348301525
C           -3.47649172299662        0.49142067963604        0.34898641322119
C           -4.41968392942096        0.01671496004959       -0.56332985276833
C           -4.92081285025984       -1.27445458320247       -0.48523417235421
O           -5.85361674617193       -1.80170775429551       -1.29780253363995
C           -6.44238824768961       -0.99710750797709       -2.29481922115038
C           -4.44404795511733       -2.13213834274706        0.53855957855232
O           -4.93258488868155       -3.39746914874307        0.53230137218910
C           -4.81581681006411       -4.21220511113785        1.54949236475951
C           -3.50181886931628       -1.65962601951492        1.44473182977932
C           -3.02738156340063       -0.36292115741887        1.34949136611557
C           -2.43158174172415        2.19385297145673       -1.17798240986071
C           -1.49634113652091        1.09518794151896       -1.71374086408990
C           -0.16194946416224        1.08671234018838       -1.07300673219800
N            0.50111278405741        0.00299613228330       -0.69059880290880
C            1.87970448843802        0.09823069604740       -0.27191823335391
C            2.84811068990148       -0.35457267484257       -1.38179472895593
C            4.26760134840656       -0.14955635228271       -0.93212336696232
C            4.90604224024325        1.06151979587042       -1.14557438285774
C            6.20414118466484        1.26734526755675       -0.70520650765023
C            6.88963713996631        0.26425669246285       -0.03490951347040
O            8.14685019606002        0.35255165271501        0.43627431784952
C            8.87560321109399        1.54116842206457        0.23178821014137
C            6.24163082267916       -0.98206568890480        0.19133049239170
O            6.97964159486592       -1.90056789196154        0.84464062509117
C            6.43546821486080       -3.17546078477490        1.09042844720004
C            4.94286632386268       -1.16386144201823       -0.25775326503882
C           -0.08894045701904       -1.31365371982183       -0.73692262781361
C           -4.19946384585674        2.86694638969591        0.52708522575960
C           -4.85075887852382        2.54982646820690        1.87154391167081
C           -3.83885711362932        4.34832931440259        0.46552319870583
H           -4.78329389902829        0.66960912966961       -1.33904727402826
H           -6.93772341202096       -0.12280964544503       -1.86237057373795
H           -7.18476781858695       -1.63084210067896       -2.77559456502422
H           -5.70696528982341       -0.67449834514803       -3.03791992213743
H           -4.70295524723136       -3.83244811302227        2.56550366123869
H           -5.19507810088897       -5.20264972752650        1.37506788835090
H           -2.73900683115926       -5.22525744910952        0.40636474426871
H           -3.11571034144398       -2.31565747348669        2.20828538883925
H           -2.31298575897765       -0.01582193788491        2.07914403142673
H           -3.26899183509316        2.28918815896372       -1.86818771465286
H           -1.89878800897127        3.14516354622651       -1.17486364074533
H           -1.98571403533779        0.12576756656732       -1.63683887670836
H           -1.34221920714390        1.30648575549419       -2.78010441635041
H           -0.91853733323976        1.64056867394209        0.84164726312701
H            0.38311717895276        2.01925554831509       -1.05048990280061
H            2.02922522296677       -0.52139882474566        0.61637047322350
H            2.10659341355512        1.13342927237982       -0.00845182241886
H            2.65354653822767        0.23580936619640       -2.27887991393709
H            2.67386356849720       -1.40552369415992       -1.61441158990366
H            4.39752581852919        1.85527249179078       -1.67153978210864
H            6.67698896839533        2.21707288185854       -0.89380184150522
H            8.39938885567953        2.39311935525964        0.72671464667372
H            8.99689520183147        1.75780469443760       -0.83369438686087
H            9.85248932144773        1.36515841444593        0.67784766604467
H            7.21595556210811       -3.73171225042458        1.60583818811720
H            5.55026234163931       -3.11729257119108        1.73186065238776
H            6.18033229839210       -3.68936557005462        0.15853988564654
H            4.44556417172170       -2.10781773031644       -0.09861627590817
H           -0.25385724247425       -1.63742622395906       -1.76670514746529
H           -1.04551257991976       -1.32416551932201       -0.20931199080645
H            0.57690025288301       -2.02416128375427       -0.25441319079545
H           -4.93624112775473        2.66711916134888       -0.25909339883784
H           -4.15498736271026        2.75283971188071        2.67897755310369
H           -5.15895952058892        1.50843192272515        1.92461782004520
H           -5.73019518646636        3.17376881622403        2.00600418166081
H           -3.09701381357868        4.58876172739152        1.22056925045110
H           -3.46220866243504        4.63467994848849       -0.51277812701749
H           -4.72915045871455        4.93882199239416        0.66481553855156
H           -1.05893233586414        2.94928159916699        2.78553797285161

          :  Hamiltonian                  GFN2-xTB          :
         :: total energy             -99.274062141309 Eh    ::
         :: gradient norm              0.002750048454 Eh/a0 ::
         :: HOMO-LUMO gap              0.906346541273 eV    ::
         :: SCC energy              -100.648094405374 Eh    ::
         :: -> dispersion             -0.075810836532 Eh    ::
         :: repulsion energy           1.372370831767 Eh    ::

    * Orbital Energies and Occupations

         #    Occupation            Energy/Eh            Energy/eV
      -------------------------------------------------------------
         1        2.0000           -0.8436286             -22.9563
       ...           ...                  ...                  ...
        78        1.9986           -0.5323685             -14.4865
        79        1.9984           -0.5310842             -14.4515
        80        1.9982           -0.5289101             -14.3924
        81        1.9974           -0.5231154             -14.2347
        82        1.9969           -0.5203953             -14.1607
        83        1.9961           -0.5165736             -14.0567
        84        1.9956           -0.5147945             -14.0083
        85        1.9924           -0.5060782             -13.7711
        86        1.9776           -0.4888373             -13.3019
        87        1.9734           -0.4860464             -13.2260
        88        1.9450           -0.4743216             -12.9069
        89        1.8370           -0.4562228             -12.4145
        90        1.4169           -0.4319346             -11.7535 (HOMO)
        91        0.4574           -0.3986270             -10.8472 (LUMO)
        92        0.3934           -0.3955951             -10.7647
        93        0.0172           -0.3426621              -9.3243
        94        0.0064           -0.3269140              -8.8958
        95        0.0048           -0.3222555              -8.7690
        96        0.0026           -0.3127960              -8.5116
        97        0.0023           -0.3105261              -8.4498
        98        0.0000           -0.2022071              -5.5023
        99        0.0000           -0.1880223              -5.1163
       100                         -0.1369371              -3.7262
       101                         -0.0737021              -2.0055
       ...                                ...                  ...
       171                          0.5759070              15.6712
      -------------------------------------------------------------
                  HL-Gap            0.0333076 Eh            0.9063 eV

     #   Z          covCN         q      C6AA      α(0)
     1   7 N        1.774    -0.268    27.784     7.805
     2   6 C        2.825     0.100    25.777     8.319
     3   6 C        3.908     0.006    20.417     6.423
     4   6 C        2.974     0.010    27.795     8.648
     5   6 C        2.921    -0.079    29.981     8.979
     6   6 C        2.860     0.137    25.007     8.197
     7   8 O        1.706    -0.230    17.811     5.698
     8   6 C        3.644     0.025    20.486     6.506
     9   6 C        2.878     0.107    25.633     8.300
    10   8 O        1.710    -0.104    15.891     5.382
    11   6 C        2.739     0.052    26.820     8.479
    12   6 C        2.912    -0.060    29.489     8.905
    13   6 C        2.921    -0.052    29.286     8.874
    14   6 C        3.812    -0.066    21.749     6.638
    15   6 C        3.802    -0.069    21.824     6.651
    16   6 C        2.844     0.006    27.871     8.652
    17   7 N        2.729     0.013    21.034     6.812
    18   6 C        3.756    -0.017    20.928     6.523
    19   6 C        3.808    -0.071    21.846     6.654
    20   6 C        2.969     0.000    28.021     8.683
    21   6 C        2.922    -0.049    29.210     8.863
    22   6 C        2.914    -0.067    29.678     8.933
    23   6 C        2.865     0.134    25.074     8.208
    24   8 O        1.706    -0.221    17.665     5.675
    25   6 C        3.645     0.025    20.492     6.506
    26   6 C        2.863     0.134    25.077     8.208
    27   8 O        1.706    -0.223    17.706     5.681
    28   6 C        3.645     0.027    20.463     6.502
    29   6 C        2.919    -0.079    29.982     8.979
    30   6 C        3.700    -0.070    22.017     6.710
    31   6 C        3.853    -0.007    20.675     6.467
    32   6 C        3.756    -0.120    22.845     6.815
    33   6 C        3.755    -0.119    22.832     6.813
    34   1 H        0.926     0.058     2.227     2.334
    35   1 H        0.924     0.055     2.253     2.347
    36   1 H        0.925     0.084     1.936     2.176
    37   1 H        0.924     0.051     2.307     2.375
    38   1 H        0.924     0.072     2.062     2.246
    39   1 H        0.926     0.106     1.727     2.055
    40   1 H        0.000    -0.198    26.486     9.410
    41   1 H        0.926     0.062     2.170     2.304
    42   1 H        0.926     0.046     2.370     2.407
    43   1 H        0.925     0.060     2.199     2.319
    44   1 H        0.924     0.055     2.256     2.349
    45   1 H        0.925     0.065     2.139     2.287
    46   1 H        0.923     0.081     1.973     2.197
    47   1 H        0.922     0.007     2.946     2.684
    48   1 H        0.926     0.070     2.087     2.259
    49   1 H        0.924     0.069     2.102     2.267
    50   1 H        0.924     0.067     2.116     2.275
    51   1 H        0.924     0.055     2.253     2.347
    52   1 H        0.924     0.057     2.232     2.336
    53   1 H        0.926     0.045     2.380     2.413
    54   1 H        0.926     0.059     2.213     2.326
    55   1 H        0.924     0.055     2.264     2.353
    56   1 H        0.924     0.056     2.243     2.342
    57   1 H        0.925     0.083     1.951     2.184
    58   1 H        0.925     0.082     1.954     2.186
    59   1 H        0.924     0.050     2.325     2.385
    60   1 H        0.924     0.054     2.276     2.359
    61   1 H        0.926     0.049     2.337     2.391
    62   1 H        0.924     0.078     1.995     2.209
    63   1 H        0.924     0.079     1.994     2.208
    64   1 H        0.925     0.083     1.946     2.181
    65   1 H        0.924     0.037     2.495     2.470
    66   1 H        0.925     0.070     2.083     2.257
    67   1 H        0.925     0.033     2.544     2.494
    68   1 H        0.925     0.052     2.296     2.369
    69   1 H        0.925     0.061     2.186     2.312
    70   1 H        0.925     0.035     2.516     2.481
    71   1 H        0.925     0.055     2.257     2.349
    72   1 H        0.860     0.158     1.350     1.820

Wiberg/Mayer (AO) data.
largest (>0.10) Wiberg bond orders for each atom

     #   Z sym  total        # sym  WBO       # sym  WBO       # sym  WBO
 ---------------------------------------------------------------------------
     1   7 N    3.041 --     2 C    1.958    72 H    0.942
     2   6 C    3.927 --     1 N    1.958     3 C    0.994    47 H    0.899
     3   6 C    3.978 --     2 C    0.994     4 C    0.972    14 C    0.958
                            31 C    0.941
     4   6 C    3.927 --    13 C    1.396     5 C    1.379     3 C    0.972
     5   6 C    3.962 --     6 C    1.389     4 C    1.379    34 H    0.957
     6   6 C    3.903 --     5 C    1.389     9 C    1.233     7 O    1.110
     7   8 O    2.273 --     6 C    1.110     8 C    0.973
     8   6 C    3.929 --    36 H    0.976    37 H    0.974    35 H    0.974
                             7 O    0.973
     9   6 C    3.892 --    12 C    1.367     6 C    1.233    10 O    1.048
    10   8 O    2.426 --    11 C    1.260     9 C    1.048
    11   6 C    3.437 --    10 O    1.260    38 H    0.964    39 H    0.963
                            40 H    0.141
    12   6 C    3.929 --    13 C    1.431     9 C    1.367    41 H    0.962
    13   6 C    3.971 --    12 C    1.431     4 C    1.396    42 H    0.962
    14   6 C    3.973 --    15 C    0.983    44 H    0.972    43 H    0.969
                             3 C    0.958
    15   6 C    3.987 --    16 C    1.058    14 C    0.983    45 H    0.962
                            46 H    0.927
    16   6 C    3.596 --    17 N    1.404    15 C    1.058    48 H    0.957
    17   7 N    3.481 --    16 C    1.404    30 C    0.998    18 C    0.988
    18   6 C    3.955 --    17 N    0.988    50 H    0.968    19 C    0.966
                            49 H    0.963
    19   6 C    3.976 --    20 C    1.008    51 H    0.972    52 H    0.972
                            18 C    0.966
    20   6 C    3.943 --    21 C    1.408    29 C    1.381    19 C    1.008
    21   6 C    3.948 --    22 C    1.417    20 C    1.408    53 H    0.968
    22   6 C    3.959 --    21 C    1.417    23 C    1.383    54 H    0.963
    23   6 C    3.893 --    22 C    1.383    26 C    1.218    24 O    1.111
    24   8 O    2.255 --    23 C    1.111    25 C    0.976
    25   6 C    3.928 --    57 H    0.977    24 O    0.976    56 H    0.972
                            55 H    0.972
    26   6 C    3.897 --    29 C    1.394    23 C    1.218    27 O    1.106
    27   8 O    2.255 --    26 C    1.106    28 C    0.978
    28   6 C    3.931 --    27 O    0.978    58 H    0.977    59 H    0.973
                            60 H    0.973
    29   6 C    3.958 --    26 C    1.394    20 C    1.381    61 H    0.962
    30   6 C    3.956 --    17 N    0.998    64 H    0.977    62 H    0.966
                            63 H    0.962
    31   6 C    3.974 --    33 C    1.009    32 C    1.008    65 H    0.960
                             3 C    0.941
    32   6 C    3.980 --    31 C    1.008    67 H    0.982    68 H    0.982
                            66 H    0.974
    33   6 C    3.984 --    31 C    1.009    70 H    0.983    71 H    0.980
                            69 H    0.977
    34   1 H    0.996 --     5 C    0.957
    35   1 H    0.994 --     8 C    0.974
    36   1 H    0.992 --     8 C    0.976
    37   1 H    0.995 --     8 C    0.974
    38   1 H    0.992 --    11 C    0.964
    39   1 H    0.987 --    11 C    0.963
    40   1 H    0.171 --    11 C    0.141
    41   1 H    0.995 --    12 C    0.962
    42   1 H    0.997 --    13 C    0.962
    43   1 H    0.995 --    14 C    0.969
    44   1 H    0.996 --    14 C    0.972
    45   1 H    0.995 --    15 C    0.962
    46   1 H    0.970 --    15 C    0.927
    47   1 H    0.988 --     2 C    0.899
    48   1 H    0.995 --    16 C    0.957
    49   1 H    0.990 --    18 C    0.963
    50   1 H    0.994 --    18 C    0.968
    51   1 H    0.996 --    19 C    0.972
    52   1 H    0.996 --    19 C    0.972
    53   1 H    0.997 --    21 C    0.968
    54   1 H    0.995 --    22 C    0.963
    55   1 H    0.991 --    25 C    0.972
    56   1 H    0.991 --    25 C    0.972
    57   1 H    0.992 --    25 C    0.977
    58   1 H    0.992 --    28 C    0.977
    59   1 H    0.993 --    28 C    0.973
    60   1 H    0.992 --    28 C    0.973
    61   1 H    0.996 --    29 C    0.962
    62   1 H    0.984 --    30 C    0.966
    63   1 H    0.987 --    30 C    0.962
    64   1 H    0.993 --    30 C    0.977
    65   1 H    0.993 --    31 C    0.960
    66   1 H    0.991 --    32 C    0.974
    67   1 H    0.997 --    32 C    0.982
    68   1 H    0.994 --    32 C    0.982
    69   1 H    0.994 --    33 C    0.977
    70   1 H    0.997 --    33 C    0.983
    71   1 H    0.994 --    33 C    0.980
    72   1 H    0.970 --     1 N    0.942
 ---------------------------------------------------------------------------

molecular dipole:
                 x           y           z       tot (Debye)
 q only:        0.086       0.891      -0.709
   full:        0.307       0.784      -0.896       3.125

           -------------------------------------------------
          | TOTAL ENERGY              -99.274062141309 Eh   |
          | GRADIENT NORM               0.002750048454 Eh/α |
          | HOMO-LUMO GAP               0.906346541273 eV   |
           -------------------------------------------------

 * finished run on 2024/04/06 at 11:15:01.096
