   * xtb version 6.6.1 (8d0f1dd) compiled by 'conda@1efc2f54142f' on 2023-08-01
          program call               : xtb xtbopt.xyz --opt crude --input .xc2 --gfn2

   ID    Z sym.   atoms
    1    7 N      1, 17
    2    6 C      2-6, 8, 9, 11-16, 18-23, 25, 26, 28-33
    3    8 O      7, 10, 24, 27
    4    1 H      34-72

          :  Hamiltonian                  GFN2-xTB          :
 * total energy  :   -99.2744396 Eh     change       -0.4558842E-10 Eh
 * total energy  :   -99.2851337 Eh     change       -0.1069407E-01 Eh
 * total energy  :   -99.3247863 Eh     change       -0.3965267E-01 Eh
 * total energy  :   -99.3982559 Eh     change       -0.7346951E-01 Eh
 * total energy  :   -99.0782968 Eh     change        0.3199591E+00 Eh
 * total energy  :   -99.3982233 Eh     change       -0.3199265E+00 Eh
 * total energy  :   -99.3969011 Eh     change        0.1322162E-02 Eh
 * total energy  :   -99.4045276 Eh     change       -0.7626448E-02 Eh
 * total energy  :   -99.3998173 Eh     change        0.4710285E-02 Eh
 * total energy  :   -99.4056587 Eh     change       -0.5841365E-02 Eh
 * total energy  :   -99.4056154 Eh     change        0.4324041E-04 Eh
 * total energy  :   -99.4061247 Eh     change       -0.5092903E-03 Eh
 * total energy  :   -99.4063495 Eh     change       -0.2247720E-03 Eh
   *** GEOMETRY OPTIMIZATION CONVERGED AFTER 13 ITERATIONS ***

 final structure:
================
72
 xtb: 6.6.1 (8d0f1dd)
N           -1.89682084466061        2.84172981239253        2.22710855680878
C           -1.84805367670309        2.13898011300367        1.19641023902070
C           -2.99537063020938        1.92714053597630        0.24818405678108
C           -3.47386686233233        0.48535267574464        0.34057497261641
C           -4.42756172761891        0.01571300822989       -0.56519923031180
C           -4.90760736238535       -1.28122720814248       -0.50259253443100
O           -5.83599374310827       -1.81039195479755       -1.32543872846375
C           -6.44284533857440       -0.99251947395763       -2.29785053923624
C           -4.40410489307954       -2.16887196928621        0.48772568427329
O           -4.93112939910458       -3.40907030170350        0.46870817912239
C           -4.45613334722577       -4.37960572843147        1.36850488299953
C           -3.44776552702797       -1.70069720855015        1.37417951276280
C           -2.99908672371455       -0.38687080504335        1.30765779184216
C           -2.43367839122963        2.19885560638696       -1.17236184090721
C           -1.50037349110825        1.09806933339739       -1.70764241144934
C           -0.16620308294406        1.08911773271004       -1.06679145690047
N            0.49702247334020        0.00427742518179       -0.68421421569970
C            1.87675249122293        0.09640866632222       -0.26804976018363
C            2.84396496537759       -0.35462869788737       -1.37973024380510
C            4.26419895942470       -0.15031292131949       -0.93123661735189
C            4.90311947806675        1.06015740836898       -1.14552518740250
C            6.20194412924292        1.26535891502395       -0.70672573671234
C            6.88808135111305        0.26192185780355       -0.03784352082723
O            8.14664004413561        0.34844781440755        0.43054635977335
C            8.87529974092001        1.53773760419877        0.22957006778928
C            6.23951865922405       -0.98357887446908        0.18971169161487
O            6.97851529885831       -1.90238049683597        0.84257955997559
C            6.43518207245551       -3.17725279930927        1.08852910040853
C            4.94003720744043       -1.16467333574418       -0.25712723738534
C           -0.09519968559955       -1.31107717637463       -0.73173752974742
C           -4.20402438850785        2.86874668708165        0.52944043151926
C           -4.85417010979745        2.55601396866737        1.87502530328587
C           -3.84090976825120        4.34966771700687        0.46393641735991
H           -4.81149669431765        0.68045411293764       -1.32084387533736
H           -6.94420447312012       -0.13272640151572       -1.84336709296106
H           -7.18269176509824       -1.62247609112819       -2.78768221563098
H           -5.71726657801269       -0.64460942882438       -3.04059102516501
H           -4.52197103379884       -4.03711337727256        2.40763606626638
H           -5.10172789008145       -5.24420514700130        1.23876445672497
H           -3.42104510707415       -4.65667568620658        1.15497051805713
H           -3.05343928684366       -2.34682856732158        2.14175650347811
H           -2.28811535992790       -0.04735345071100        2.04495341943362
H           -3.26904404470912        2.29833621240008       -1.86442128331562
H           -1.89732574319429        3.14837140545019       -1.16448462564356
H           -1.99290352949231        0.13052306648507       -1.62705244741671
H           -1.34758475765902        1.30621959778717       -2.77484222012151
H           -0.93135494342321        1.62574869895959        0.84362922814301
H            0.38007570796998        2.02075282634646       -1.04301949185892
H            2.02688094447606       -0.52581154050511        0.61843824234838
H            2.10534653707391        1.13034073155084       -0.00164529534353
H            2.64846744929200        0.23687833667177       -2.27578631427320
H            2.66995750186002       -1.40535999033979       -1.61419475531343
H            4.39451181976236        1.85413449550218       -1.67102266632901
H            6.67506029414288        2.21490323368681       -0.89556349068554
H            8.39761351884399        2.38881515175852        0.72446950748448
H            8.99953708147871        1.75603575789091       -0.83527196379066
H            9.85105892735799        1.36125861884186        0.67796827588466
H            7.21677448462520       -3.73353145691191        1.60228368066070
H            5.55109492842055       -3.11976891075031        1.73170655893650
H            6.17860624676246       -3.69085479640226        0.15678194632829
H            4.44254883755273       -2.10833574132416       -0.09629302233280
H           -0.26060648019913       -1.63289525592825       -1.76216020685437
H           -1.05204873150210       -1.31804943672597       -0.20367251512341
H            0.57129804771118       -2.02150022072706       -0.24959777867935
H           -4.94260437588969        2.66910274872544       -0.25510151217123
H           -4.15713785375652        2.75957821733076        2.68140470905168
H           -5.16376827906003        1.51517222280239        1.92981224572674
H           -5.73229315229071        3.18214770827531        2.00928275886759
H           -3.09485503741530        4.58977441298911        1.21511504945319
H           -3.46825050040270        4.63416519390911       -0.51655862292188
H           -4.72877993528364        4.94286639129184        0.66649696636073
H           -1.05117905541503        2.93611795044507        2.78064111352214

          :  Hamiltonian                  GFN2-xTB          :
         :: total energy             -99.406349478140 Eh    ::
         :: gradient norm              0.005557018294 Eh/a0 ::
         :: HOMO-LUMO gap              1.670797224309 eV    ::
         :: SCC energy              -100.785671856707 Eh    ::
         :: -> dispersion             -0.074993585228 Eh    ::
         :: repulsion energy           1.378080381637 Eh    ::

    * Orbital Energies and Occupations

         #    Occupation            Energy/Eh            Energy/eV
      -------------------------------------------------------------
         1        2.0000           -0.8090566             -22.0155
       ...           ...                  ...                  ...
        78        1.9983           -0.5290085             -14.3951
        79        1.9983           -0.5285508             -14.3826
        80        1.9982           -0.5279246             -14.3656
        81        1.9976           -0.5230354             -14.2325
        82        1.9971           -0.5201606             -14.1543
        83        1.9958           -0.5146448             -14.0042
        84        1.9951           -0.5121549             -13.9364
        85        1.9943           -0.5095853             -13.8665
        86        1.9810           -0.4904603             -13.3461
        87        1.9787           -0.4886084             -13.2957
        88        1.9384           -0.4714925             -12.8300
        89        1.8719           -0.4593492             -12.4995
        90        1.8441           -0.4560019             -12.4084 (HOMO)
        91        0.3933           -0.3946013             -10.7376 (LUMO)
        92        0.0148           -0.3392962              -9.2327
        93        0.0035           -0.3166047              -8.6153
        94        0.0029           -0.3135827              -8.5330
        95        0.0027           -0.3125335              -8.5045
        96        0.0024           -0.3102183              -8.4415
        97        0.0000           -0.1909324              -5.1955
        98        0.0000           -0.1877199              -5.1081
        99                         -0.1367902              -3.7222
       100                         -0.0688641              -1.8739
       101                         -0.0642631              -1.7487
       ...                                ...                  ...
       171                          0.5763128              15.6823
      -------------------------------------------------------------
                  HL-Gap            0.0614007 Eh            1.6708 eV

     #   Z          covCN         q      C6AA      α(0)
     1   7 N        1.774    -0.267    27.759     7.802
     2   6 C        2.826     0.101    25.748     8.315
     3   6 C        3.907     0.006    20.413     6.422
     4   6 C        2.974     0.003    27.961     8.674
     5   6 C        2.920    -0.080    29.991     8.981
     6   6 C        2.862     0.130    25.156     8.221
     7   8 O        1.706    -0.229    17.803     5.697
     8   6 C        3.644     0.027    20.450     6.500
     9   6 C        2.863     0.129    25.179     8.225
    10   8 O        1.706    -0.227    17.766     5.691
    11   6 C        3.645     0.027    20.450     6.500
    12   6 C        2.913    -0.075    29.866     8.961
    13   6 C        2.921    -0.054    29.332     8.881
    14   6 C        3.812    -0.065    21.737     6.636
    15   6 C        3.802    -0.069    21.820     6.650
    16   6 C        2.843     0.007    27.850     8.649
    17   7 N        2.729     0.011    21.070     6.817
    18   6 C        3.756    -0.016    20.922     6.522
    19   6 C        3.808    -0.070    21.842     6.653
    20   6 C        2.969    -0.000    28.034     8.685
    21   6 C        2.922    -0.049    29.213     8.863
    22   6 C        2.914    -0.067    29.680     8.934
    23   6 C        2.865     0.134    25.079     8.209
    24   8 O        1.706    -0.222    17.679     5.677
    25   6 C        3.645     0.025    20.490     6.506
    26   6 C        2.863     0.133    25.087     8.210
    27   8 O        1.706    -0.225    17.725     5.684
    28   6 C        3.645     0.027    20.453     6.500
    29   6 C        2.919    -0.080    29.988     8.980
    30   6 C        3.700    -0.070    22.016     6.710
    31   6 C        3.853    -0.007    20.675     6.467
    32   6 C        3.756    -0.119    22.829     6.813
    33   6 C        3.755    -0.118    22.823     6.812
    34   1 H        0.926     0.052     2.291     2.367
    35   1 H        0.924     0.054     2.270     2.356
    36   1 H        0.925     0.081     1.965     2.192
    37   1 H        0.924     0.047     2.352     2.398
    38   1 H        0.924     0.053     2.286     2.364
    39   1 H        0.925     0.082     1.963     2.191
    40   1 H        0.924     0.048     2.343     2.394
    41   1 H        0.926     0.051     2.306     2.375
    42   1 H        0.926     0.038     2.476     2.461
    43   1 H        0.925     0.060     2.197     2.318
    44   1 H        0.924     0.053     2.277     2.360
    45   1 H        0.925     0.066     2.130     2.282
    46   1 H        0.923     0.080     1.980     2.201
    47   1 H        0.922     0.007     2.946     2.684
    48   1 H        0.926     0.070     2.089     2.260
    49   1 H        0.924     0.067     2.115     2.274
    50   1 H        0.924     0.067     2.114     2.274
    51   1 H        0.924     0.055     2.255     2.349
    52   1 H        0.924     0.056     2.251     2.346
    53   1 H        0.926     0.045     2.382     2.413
    54   1 H        0.926     0.059     2.215     2.328
    55   1 H        0.924     0.054     2.267     2.355
    56   1 H        0.924     0.056     2.246     2.344
    57   1 H        0.925     0.082     1.954     2.186
    58   1 H        0.925     0.082     1.959     2.189
    59   1 H        0.924     0.049     2.339     2.392
    60   1 H        0.924     0.053     2.289     2.366
    61   1 H        0.926     0.047     2.358     2.401
    62   1 H        0.924     0.076     2.018     2.222
    63   1 H        0.924     0.079     1.984     2.203
    64   1 H        0.925     0.080     1.980     2.200
    65   1 H        0.924     0.037     2.485     2.465
    66   1 H        0.925     0.069     2.094     2.263
    67   1 H        0.925     0.036     2.507     2.476
    68   1 H        0.925     0.051     2.305     2.374
    69   1 H        0.925     0.060     2.197     2.318
    70   1 H        0.925     0.034     2.527     2.486
    71   1 H        0.925     0.054     2.266     2.354
    72   1 H        0.860     0.157     1.354     1.823

Wiberg/Mayer (AO) data.
largest (>0.10) Wiberg bond orders for each atom

     #   Z sym  total        # sym  WBO       # sym  WBO       # sym  WBO
 ---------------------------------------------------------------------------
     1   7 N    3.042 --     2 C    1.957    72 H    0.942
     2   6 C    3.928 --     1 N    1.957     3 C    0.995    47 H    0.897
     3   6 C    3.976 --     2 C    0.995     4 C    0.969    14 C    0.957
                            31 C    0.943
     4   6 C    3.949 --    13 C    1.415     5 C    1.367     3 C    0.969
     5   6 C    3.962 --     6 C    1.402     4 C    1.367    34 H    0.957
     6   6 C    3.906 --     5 C    1.402     9 C    1.220     7 O    1.100
     7   8 O    2.255 --     6 C    1.100     8 C    0.978
     8   6 C    3.932 --     7 O    0.978    36 H    0.977    37 H    0.973
                            35 H    0.973
     9   6 C    3.902 --    12 C    1.393     6 C    1.220    10 O    1.102
    10   8 O    2.255 --     9 C    1.102    11 C    0.979
    11   6 C    3.932 --    10 O    0.979    39 H    0.977    40 H    0.974
                            38 H    0.972
    12   6 C    3.962 --    13 C    1.402     9 C    1.393    41 H    0.964
    13   6 C    3.954 --     4 C    1.415    12 C    1.402    42 H    0.962
    14   6 C    3.973 --    15 C    0.982    44 H    0.972    43 H    0.969
                             3 C    0.957
    15   6 C    3.987 --    16 C    1.059    14 C    0.982    45 H    0.961
                            46 H    0.927
    16   6 C    3.596 --    17 N    1.400    15 C    1.059    48 H    0.957
    17   7 N    3.479 --    16 C    1.400    30 C    0.998    18 C    0.988
    18   6 C    3.955 --    17 N    0.988    50 H    0.968    19 C    0.967
                            49 H    0.964
    19   6 C    3.976 --    20 C    1.008    51 H    0.972    52 H    0.972
                            18 C    0.967
    20   6 C    3.944 --    21 C    1.409    29 C    1.380    19 C    1.008
    21   6 C    3.950 --    22 C    1.417    20 C    1.409    53 H    0.968
    22   6 C    3.959 --    21 C    1.417    23 C    1.383    54 H    0.963
    23   6 C    3.895 --    22 C    1.383    26 C    1.219    24 O    1.111
    24   8 O    2.255 --    23 C    1.111    25 C    0.976
    25   6 C    3.928 --    57 H    0.977    24 O    0.976    55 H    0.973
                            56 H    0.973
    26   6 C    3.899 --    29 C    1.395    23 C    1.219    27 O    1.104
    27   8 O    2.255 --    26 C    1.104    28 C    0.979
    28   6 C    3.932 --    27 O    0.979    58 H    0.977    59 H    0.973
                            60 H    0.973
    29   6 C    3.959 --    26 C    1.395    20 C    1.380    61 H    0.963
    30   6 C    3.957 --    17 N    0.998    64 H    0.978    62 H    0.967
                            63 H    0.961
    31   6 C    3.973 --    33 C    1.009    32 C    1.008    65 H    0.960
                             3 C    0.943
    32   6 C    3.979 --    31 C    1.008    67 H    0.982    68 H    0.981
                            66 H    0.974
    33   6 C    3.983 --    31 C    1.009    70 H    0.983    71 H    0.980
                            69 H    0.977
    34   1 H    0.996 --     5 C    0.957
    35   1 H    0.993 --     8 C    0.973
    36   1 H    0.993 --     8 C    0.977
    37   1 H    0.994 --     8 C    0.973
    38   1 H    0.993 --    11 C    0.972
    39   1 H    0.993 --    11 C    0.977
    40   1 H    0.993 --    11 C    0.974
    41   1 H    0.996 --    12 C    0.964
    42   1 H    0.998 --    13 C    0.962
    43   1 H    0.995 --    14 C    0.969
    44   1 H    0.996 --    14 C    0.972
    45   1 H    0.995 --    15 C    0.961
    46   1 H    0.970 --    15 C    0.927
    47   1 H    0.987 --     2 C    0.897
    48   1 H    0.995 --    16 C    0.957
    49   1 H    0.990 --    18 C    0.964
    50   1 H    0.994 --    18 C    0.968
    51   1 H    0.996 --    19 C    0.972
    52   1 H    0.996 --    19 C    0.972
    53   1 H    0.997 --    21 C    0.968
    54   1 H    0.995 --    22 C    0.963
    55   1 H    0.992 --    25 C    0.973
    56   1 H    0.992 --    25 C    0.973
    57   1 H    0.992 --    25 C    0.977
    58   1 H    0.993 --    28 C    0.977
    59   1 H    0.993 --    28 C    0.973
    60   1 H    0.993 --    28 C    0.973
    61   1 H    0.997 --    29 C    0.963
    62   1 H    0.985 --    30 C    0.967
    63   1 H    0.987 --    30 C    0.961
    64   1 H    0.993 --    30 C    0.978
    65   1 H    0.992 --    31 C    0.960
    66   1 H    0.991 --    32 C    0.974
    67   1 H    0.997 --    32 C    0.982
    68   1 H    0.994 --    32 C    0.981
    69   1 H    0.993 --    33 C    0.977
    70   1 H    0.997 --    33 C    0.983
    71   1 H    0.994 --    33 C    0.980
    72   1 H    0.970 --     1 N    0.942
 ---------------------------------------------------------------------------

molecular dipole:
                 x           y           z       tot (Debye)
 q only:        0.709      -0.090      -0.855
   full:        1.014      -0.154      -1.028       3.691

           -------------------------------------------------
          | TOTAL ENERGY              -99.406349478140 Eh   |
          | GRADIENT NORM               0.005557018294 Eh/α |
          | HOMO-LUMO GAP               1.670797224309 eV   |
           -------------------------------------------------

 * finished run on 2024/04/06 at 11:15:03.551
