   * xtb version 6.6.1 (8d0f1dd) compiled by 'conda@1efc2f54142f' on 2023-08-01
          program call               : xtb xtbopt.xyz --opt crude --input .xc2 --gfn2

   ID    Z sym.   atoms
    1    6 C      1, 3, 5-7, 10, 11, 14
    2    7 N      2, 4, 9, 13
    3    8 O      8, 12
    4    1 H      15-25

          :  Hamiltonian                  GFN2-xTB          :
 * total energy  :   -42.1810246 Eh     change       -0.1939782E-11 Eh
   *** GEOMETRY OPTIMIZATION CONVERGED AFTER 1 ITERATIONS ***

 final structure:
================
25
 xtb: 6.6.1 (8d0f1dd)
C            3.20204563970435        1.07806263047818        0.00748225923735
N            2.18003281480468        0.07568895880749       -0.08882030036090
C            2.35423520459494       -1.26220363788562       -0.17880057548556
N            1.21602637586293       -1.91889147705862       -0.24302152235780
C            0.24792863046951       -0.98269985739640       -0.18940810344839
C            0.82859865448570        0.28537195949649       -0.08980971841327
C            0.05170034342460        1.49368933785705       -0.01993354998632
O            0.48388621514921        2.62548703323662        0.02780551245024
N           -1.32579467598405        1.21968443276750       -0.01149774516344
C           -2.22906020418814        2.35437083385074        0.08149243466843
C           -1.94373647334724       -0.00673378588757       -0.08590446318164
O           -3.13853157467376       -0.13500715763045       -0.05461305113497
N           -1.10837147630988       -1.17175154984247       -0.22573675053699
C           -1.67960740433863       -2.35964115302225       -0.38433291526354
H            3.72191711862605        0.99940807728327        0.96530368368518
H            3.93148653994164        0.94982507219165       -0.79373452087932
H            2.74522876491722        2.06521781694458       -0.06817334537785
H            3.31588697666779       -1.73768059514394       -0.19360656410787
H           -1.63206095411072        3.26524124449683        0.10167933367939
H           -2.90431889474720        2.36597658881161       -0.77612502992612
H           -2.83324321794849        2.28051382945061        0.98709812692990
H            0.55043467464251       -4.27765239083766        1.31903869629310
H           -1.05230644660255       -3.22433924850699       -0.49898460922223
H           -2.75524309894909       -2.40769501637228       -0.39638840570116
H            0.93329798200034       -3.75600340448681        0.84016274151438

          :  Hamiltonian                  GFN2-xTB          :
         :: total energy             -42.181024597995 Eh    ::
         :: gradient norm              0.003131554288 Eh/a0 ::
         :: HOMO-LUMO gap              2.048211798667 eV    ::
         :: SCC energy               -42.716112353931 Eh    ::
         :: -> dispersion             -0.022654881536 Eh    ::
         :: repulsion energy           0.534980403304 Eh    ::

    * Orbital Energies and Occupations

         #    Occupation            Energy/Eh            Energy/eV
      -------------------------------------------------------------
         1        2.0000           -0.9043783             -24.6094
       ...           ...                  ...                  ...
        25        1.9970           -0.6703153             -18.2402
        26        1.9951           -0.6590602             -17.9339
        27        1.9930           -0.6505669             -17.7028
        28        1.9924           -0.6483843             -17.6434
        29        1.9903           -0.6425941             -17.4859
        30        1.9782           -0.6232827             -16.9604
        31        1.9672           -0.6134638             -16.6932
        32        1.9595           -0.6083198             -16.5532
        33        1.9453           -0.6010318             -16.3549
        34        1.9093           -0.5885946             -16.0165
        35        1.9022           -0.5867108             -15.9652
        36        1.8801           -0.5815878             -15.8258
        37        1.8237           -0.5717065             -15.5569 (HOMO)
        38        0.6062           -0.4964361             -13.5087 (LUMO)
        39        0.0503           -0.4293440             -11.6830
        40        0.0124           -0.3956918             -10.7673
        41        0.0053           -0.3753938             -10.2150
        42        0.0002           -0.2980233              -8.1096
        43        0.0000           -0.2138849              -5.8201
        44        0.0000           -0.1667750              -4.5382
        45        0.0000           -0.1450262              -3.9464
        46                         -0.0813204              -2.2128
        47                         -0.0546134              -1.4861
        48                         -0.0486371              -1.3235
       ...                                ...                  ...
        67                          0.5280787              14.3698
      -------------------------------------------------------------
                  HL-Gap            0.0752704 Eh            2.0482 eV

     #   Z          covCN         q      C6AA      α(0)
     1   6 C        3.689    -0.082    22.260     6.753
     2   7 N        2.833     0.049    20.383     6.705
     3   6 C        3.173     0.093    25.564     8.258
     4   7 N        1.902    -0.191    25.953     7.553
     5   6 C        3.165     0.112    25.222     8.208
     6   6 C        3.113    -0.005    27.998     8.668
     7   6 C        2.763     0.268    22.480     7.765
     8   8 O        0.858    -0.329    20.316     6.043
     9   7 N        2.744    -0.064    22.470     7.040
    10   6 C        3.711    -0.064    21.860     6.682
    11   6 C        2.734     0.310    21.738     7.633
    12   8 O        0.859    -0.319    20.120     6.014
    13   7 N        2.736     0.034    20.651     6.749
    14   6 C        2.804    -0.021    28.510     8.748
    15   1 H        0.924     0.112     1.681     2.028
    16   1 H        0.924     0.111     1.689     2.032
    17   1 H        0.924     0.129     1.543     1.943
    18   1 H        0.926     0.113     1.669     2.021
    19   1 H        0.925     0.130     1.538     1.940
    20   1 H        0.924     0.117     1.638     2.002
    21   1 H        0.924     0.117     1.637     2.001
    22   1 H        0.712     0.047     2.496     2.506
    23   1 H        0.926     0.138     1.478     1.901
    24   1 H        0.926     0.149     1.396     1.848
    25   1 H        0.712     0.045     2.525     2.521

Wiberg/Mayer (AO) data.
largest (>0.10) Wiberg bond orders for each atom

     #   Z sym  total        # sym  WBO       # sym  WBO       # sym  WBO
 ---------------------------------------------------------------------------
     1   6 C    3.890 --     2 N    0.996    17 H    0.954    16 H    0.951
                            15 H    0.945
     2   7 N    3.623 --     3 C    1.279     6 C    1.195     1 C    0.996
     3   6 C    3.865 --     4 N    1.464     2 N    1.279    18 H    0.952
     4   7 N    2.964 --     3 C    1.464     5 C    1.281
     5   6 C    3.869 --     6 C    1.295     4 N    1.281    13 N    1.103
     6   6 C    3.824 --     5 C    1.295     2 N    1.195     7 C    1.082
     7   6 C    3.895 --     8 O    1.663     6 C    1.082     9 N    1.068
     8   8 O    1.931 --     7 C    1.663     9 N    0.114
     9   7 N    3.501 --    11 C    1.150     7 C    1.068    10 C    0.975
                            12 O    0.131     8 O    0.114
    10   6 C    3.856 --     9 N    0.975    19 H    0.951    20 H    0.943
                            21 H    0.942
    11   6 C    3.901 --    12 O    1.701     9 N    1.150    13 N    0.965
    12   8 O    1.983 --    11 C    1.701     9 N    0.131
    13   7 N    3.620 --    14 C    1.383     5 C    1.103    11 C    0.965
    14   6 C    3.399 --    13 N    1.383    23 H    0.954    24 H    0.951
    15   1 H    0.970 --     1 C    0.945
    16   1 H    0.973 --     1 C    0.951
    17   1 H    0.973 --     1 C    0.954
    18   1 H    0.983 --     3 C    0.952
    19   1 H    0.970 --    10 C    0.951
    20   1 H    0.961 --    10 C    0.943
    21   1 H    0.960 --    10 C    0.942
    22   1 H    0.894 --    25 H    0.882
    23   1 H    0.977 --    14 C    0.954
    24   1 H    0.973 --    14 C    0.951
    25   1 H    0.915 --    22 H    0.882
 ---------------------------------------------------------------------------

molecular dipole:
                 x           y           z       tot (Debye)
 q only:        1.024      -0.963      -0.046
   full:        1.236      -0.925      -0.038       3.925

           -------------------------------------------------
          | TOTAL ENERGY              -42.181024597995 Eh   |
          | GRADIENT NORM               0.003131554288 Eh/α |
          | HOMO-LUMO GAP               2.048211798667 eV   |
           -------------------------------------------------

 * finished run on 2024/06/05 at 19:58:54.634
