   * xtb version 6.6.1 (8d0f1dd) compiled by 'conda@1efc2f54142f' on 2023-08-01
          program call               : xtb struc.xyz --opt loose --input .xc1 --gfn2

   ID    Z sym.   atoms
    1    7 N      1, 17
    2    6 C      2-6, 8, 9, 11-16, 18-23, 25, 26, 28-33
    3    8 O      7, 10, 24, 27
    4    1 H      34-72
constraining bond 9 40 to    3.7133300 Å, actual value:    2.7327451 Å

          :  Hamiltonian                  GFN2-xTB          :
 * total energy  :   -99.5758182 Eh     change       -0.4035485E-08 Eh
 * total energy  :   -99.8172352 Eh     change       -0.2414170E+00 Eh
 * total energy  :  -100.1124292 Eh     change       -0.2951940E+00 Eh
 * total energy  :  -100.4669568 Eh     change       -0.3545277E+00 Eh
 * total energy  :   -96.5440147 Eh     change        0.3922942E+01 Eh
 * total energy  :  -100.5010739 Eh     change       -0.3957059E+01 Eh
 * total energy  :  -100.5487017 Eh     change       -0.4762779E-01 Eh
 * total energy  :  -100.5527876 Eh     change       -0.4085962E-02 Eh
 * total energy  :  -100.6072976 Eh     change       -0.5450996E-01 Eh
 * total energy  :  -100.6075346 Eh     change       -0.2369981E-03 Eh
 * total energy  :  -100.7799641 Eh     change       -0.8554067E-04 Eh
 * total energy  :  -100.7795775 Eh     change        0.3866164E-03 Eh
 * total energy  :  -100.7801656 Eh     change       -0.5881290E-03 Eh
 * total energy  :  -100.7802427 Eh     change       -0.7712300E-04 Eh
 * total energy  :  -100.7803263 Eh     change       -0.8359791E-04 Eh
 * total energy  :  -100.7803998 Eh     change       -0.7351462E-04 Eh
 * total energy  :  -100.7803966 Eh     change        0.3273757E-05 Eh
 * total energy  :  -100.7804998 Eh     change       -0.1032411E-03 Eh
 * total energy  :  -100.7805407 Eh     change       -0.4088590E-04 Eh
   *** GEOMETRY OPTIMIZATION CONVERGED AFTER 51 ITERATIONS ***

 final structure:
================
72
 xtb: 6.6.1 (8d0f1dd)
N           -1.92476757366219        2.82857080250076        2.25149172589384
C           -1.82592590186822        2.14974958163663        1.20888459738400
C           -2.94774631907876        1.89962660754473        0.23968799206448
C           -3.29795842887749        0.41936770175444        0.23679721020122
C           -4.16413961038045       -0.07960146347359       -0.73195947371745
C           -4.50474951027568       -1.42776994215442       -0.75504158350793
O           -5.34430014532180       -1.98701290802227       -1.65535867628342
C           -6.04359908791749       -1.16442000728165       -2.55967887469177
C           -3.96363772950372       -2.32937302101334        0.18664808312537
O           -5.68265360548737       -3.45716583197600        2.34078670537498
C           -6.01985948110120       -4.53666606917043        2.73178130261772
C           -3.11822870620004       -1.80062509877156        1.15043045642274
C           -2.78519831302851       -0.45406656982097        1.18750990801047
C           -2.40219444672818        2.31879461463598       -1.15142094609691
C           -1.41759150073824        1.31773139272690       -1.78450565687789
C           -0.09911040838674        1.26460138415027       -1.11528180683475
N            0.55781419311440        0.15727023660958       -0.80108458997406
C            1.92748249429607        0.21588893907102       -0.34697957456046
C            2.91208710397059       -0.19849662220894       -1.45747581314009
C            4.32736262619064       -0.04284732032652       -0.97554372279483
C            5.00361276274822        1.15387668841151       -1.14885810786164
C            6.30231674301157        1.30867982258326       -0.68981615468847
C            6.95081197099367        0.26750658629002       -0.04107345611685
O            8.20686657539860        0.30295113096182        0.43942577391973
C            8.97620601442308        1.47123619175428        0.26851925241817
C            6.26204490812788       -0.96308101720502        0.14836700239930
O            6.96509498556914       -1.91984739397371        0.78529743948711
C            6.38055038644367       -3.18319945647028        0.99449773400285
C            4.96356399662178       -1.09363207889196       -0.31883457055034
C           -0.02076934227080       -1.15481675056654       -0.96920165639162
C           -4.23992457505934        2.70317195931752        0.57000913035024
C           -4.84486119073753        2.26180549838525        1.90054639126980
C           -4.02432279421016        4.21379146036175        0.57342205477285
H           -4.58423738450496        0.59164818119782       -1.46290305502125
H           -6.64357623832540       -0.41492965826408       -2.03522478158493
H           -6.70374178802708       -1.82994517348501       -3.11269128224963
H           -5.36475142877280       -0.66805933414732       -3.26078936666979
H           -6.14182170771353       -4.77129430964610        3.80081489564868
H           -6.23476467422801       -5.37478202372348        2.04984609424670
H           -4.16832635243896       -3.08581381902483        0.16849481285300
H           -2.71958159817410       -2.46366744847649        1.90409681287522
H           -2.14767023425652       -0.08531110954604        1.97627184855247
H           -3.24203251607551        2.43752432065611       -1.83534047464296
H           -1.91386444033673        3.28974269913978       -1.05864959651039
H           -1.87994626704492        0.33383298529009       -1.83640320445806
H           -1.24406879256671        1.66114488327479       -2.81277427697791
H           -0.87922640022046        1.69338841749572        0.85795268526029
H            0.43788057257638        2.19486466230259       -0.99888540256047
H            2.04891845007607       -0.44779736162907        0.51361894525246
H            2.16142091768007        1.23393893439456       -0.02945978448515
H            2.74520974040730        0.43736859289691       -2.32859438439894
H            2.72620099534000       -1.23393708519190       -1.74480062535302
H            4.52493575885098        1.97596851103083       -1.65892737291022
H            6.80548727540276        2.24831190898536       -0.84790685404618
H            8.52563808323757        2.32627272467756        0.78161638839913
H            9.11160940600098        1.70968123039803       -0.79062649018819
H            9.94372765393702        1.25146787784100        0.71558911310918
H            7.13933815813758       -3.77540705950342        1.50226070642131
H            5.49175959826928       -3.11413302289129        1.62990365750734
H            6.11861650109383       -3.66600970830086        0.04791403963983
H            4.43642376604040       -2.02587268834591       -0.18875059609954
H           -0.14873478464512       -1.39715096841314       -2.02624723227669
H           -0.99263991856098       -1.21142368884462       -0.47330293729348
H            0.63580787481838       -1.89583810490079       -0.52097613835603
H           -4.96146990433236        2.46720462423749       -0.22076156908248
H           -4.16526510322650        2.49405601919836        2.71432625127392
H           -5.04982456635383        1.19400540144604        1.90558216044765
H           -5.77933088911749        2.79056674628081        2.06879617759417
H           -3.29284034972823        4.48886482133513        1.32697536484566
H           -3.69664566557362        4.57979349025097       -0.39610578394584
H           -4.96243787310491        4.70656262865393        0.81519547765686
H           -1.09393636750536        2.95730337835401        2.82014252448174

          :  Hamiltonian                  GFN2-xTB          :
         :: total energy            -100.780540688363 Eh    ::
         :: gradient norm              0.001829850542 Eh/a0 ::
         :: HOMO-LUMO gap              1.673734351842 eV    ::
         :: SCC energy              -100.788073313778 Eh    ::
         :: -> dispersion             -0.073999661717 Eh    ::
         :: repulsion energy           1.538568143070 Eh    ::

    * Orbital Energies and Occupations

         #    Occupation            Energy/Eh            Energy/eV
      -------------------------------------------------------------
         1        2.0000           -0.8072756             -21.9671
       ...           ...                  ...                  ...
        78        1.9979           -0.5267755             -14.3343
        79        1.9976           -0.5251461             -14.2900
        80        1.9969           -0.5208846             -14.1740
        81        1.9966           -0.5195186             -14.1368
        82        1.9953           -0.5143874             -13.9972
        83        1.9940           -0.5104535             -13.8901
        84        1.9911           -0.5041965             -13.7199
        85        1.9816           -0.4925746             -13.4036
        86        1.9776           -0.4893693             -13.3164
        87        1.9677           -0.4835523             -13.1581
        88        1.9275           -0.4703984             -12.8002
        89        1.9218           -0.4691494             -12.7662
        90        1.8368           -0.4567888             -12.4299 (HOMO)
        91        0.3758           -0.3952802             -10.7561 (LUMO)
        92        0.0292           -0.3517614              -9.5719
        93        0.0124           -0.3380688              -9.1993
        94        0.0040           -0.3199077              -8.7051
        95        0.0026           -0.3134000              -8.5280
        96        0.0023           -0.3110091              -8.4630
        97        0.0018           -0.3071879              -8.3590
        98        0.0000           -0.1887604              -5.1364
        99        0.0000           -0.1885103              -5.1296
       100                         -0.1364062              -3.7118
       101                         -0.0685288              -1.8648
       ...                                ...                  ...
       171                          1.2387374              33.7078
      -------------------------------------------------------------
                  HL-Gap            0.0615086 Eh            1.6737 eV

     #   Z          covCN         q      C6AA      α(0)
     1   7 N        1.774    -0.265    27.706     7.794
     2   6 C        2.827     0.103    25.719     8.310
     3   6 C        3.908     0.006    20.426     6.424
     4   6 C        2.977     0.012    27.749     8.641
     5   6 C        2.918    -0.077    29.913     8.969
     6   6 C        2.867     0.146    24.815     8.166
     7   8 O        1.706    -0.247    18.088     5.742
     8   6 C        3.643     0.030    20.412     6.495
     9   6 C        2.914    -0.072    29.789     8.950
    10   8 O        0.856    -0.279    19.403     5.906
    11   6 C        2.702     0.179    24.152     8.044
    12   6 C        2.921    -0.031    28.767     8.795
    13   6 C        2.918    -0.052    29.299     8.876
    14   6 C        3.812    -0.064    21.710     6.632
    15   6 C        3.802    -0.070    21.833     6.652
    16   6 C        2.843     0.009    27.801     8.641
    17   7 N        2.729     0.016    20.978     6.803
    18   6 C        3.756    -0.017    20.931     6.523
    19   6 C        3.808    -0.071    21.847     6.654
    20   6 C        2.969     0.000    28.023     8.683
    21   6 C        2.922    -0.048    29.202     8.862
    22   6 C        2.914    -0.067    29.674     8.933
    23   6 C        2.865     0.134    25.071     8.207
    24   8 O        1.706    -0.221    17.662     5.674
    25   6 C        3.645     0.025    20.495     6.506
    26   6 C        2.863     0.134    25.078     8.209
    27   8 O        1.706    -0.223    17.708     5.682
    28   6 C        3.645     0.027    20.460     6.501
    29   6 C        2.919    -0.079    29.984     8.980
    30   6 C        3.700    -0.073    22.071     6.719
    31   6 C        3.853    -0.007    20.659     6.465
    32   6 C        3.756    -0.119    22.828     6.813
    33   6 C        3.755    -0.119    22.830     6.813
    34   1 H        0.926     0.045     2.387     2.416
    35   1 H        0.924     0.052     2.290     2.366
    36   1 H        0.925     0.076     2.018     2.222
    37   1 H        0.924     0.044     2.395     2.420
    38   1 H        0.923     0.053     2.286     2.365
    39   1 H        0.923     0.051     2.311     2.377
    40   1 H        0.930     0.108     1.715     2.048
    41   1 H        0.926     0.048     2.341     2.393
    42   1 H        0.926     0.034     2.525     2.485
    43   1 H        0.925     0.061     2.183     2.311
    44   1 H        0.924     0.053     2.283     2.363
    45   1 H        0.925     0.068     2.109     2.271
    46   1 H        0.924     0.081     1.972     2.196
    47   1 H        0.922     0.006     2.960     2.691
    48   1 H        0.926     0.070     2.080     2.255
    49   1 H        0.924     0.069     2.097     2.265
    50   1 H        0.924     0.068     2.111     2.272
    51   1 H        0.924     0.056     2.252     2.347
    52   1 H        0.924     0.057     2.238     2.339
    53   1 H        0.926     0.046     2.371     2.408
    54   1 H        0.926     0.059     2.208     2.324
    55   1 H        0.924     0.055     2.260     2.351
    56   1 H        0.924     0.056     2.242     2.341
    57   1 H        0.925     0.083     1.949     2.183
    58   1 H        0.925     0.082     1.954     2.186
    59   1 H        0.924     0.049     2.328     2.386
    60   1 H        0.924     0.053     2.283     2.363
    61   1 H        0.926     0.048     2.349     2.397
    62   1 H        0.924     0.077     2.007     2.215
    63   1 H        0.924     0.084     1.937     2.176
    64   1 H        0.925     0.081     1.968     2.194
    65   1 H        0.924     0.038     2.475     2.460
    66   1 H        0.925     0.068     2.103     2.268
    67   1 H        0.925     0.040     2.444     2.445
    68   1 H        0.925     0.051     2.304     2.374
    69   1 H        0.925     0.061     2.183     2.310
    70   1 H        0.925     0.034     2.524     2.484
    71   1 H        0.925     0.055     2.263     2.353
    72   1 H        0.860     0.158     1.348     1.819

Wiberg/Mayer (AO) data.
largest (>0.10) Wiberg bond orders for each atom

     #   Z sym  total        # sym  WBO       # sym  WBO       # sym  WBO
 ---------------------------------------------------------------------------
     1   7 N    3.041 --     2 C    1.958    72 H    0.941
     2   6 C    3.931 --     1 N    1.958     3 C    0.994    47 H    0.900
     3   6 C    3.974 --     2 C    0.994     4 C    0.969    14 C    0.956
                            31 C    0.943
     4   6 C    3.966 --    13 C    1.404     5 C    1.399     3 C    0.969
                             9 C    0.101
     5   6 C    3.957 --     4 C    1.399     6 C    1.369    34 H    0.958
     6   6 C    3.911 --     5 C    1.369     9 C    1.312     7 O    1.091
     7   8 O    2.243 --     6 C    1.091     8 C    0.979
     8   6 C    3.935 --     7 O    0.979    36 H    0.977    35 H    0.974
                            37 H    0.974
     9   6 C    3.950 --    12 C    1.469     6 C    1.312    40 H    0.971
                             4 C    0.101
    10   8 O    2.074 --    11 C    1.983
    11   6 C    3.862 --    10 O    1.983    38 H    0.939    39 H    0.939
    12   6 C    3.976 --     9 C    1.469    13 C    1.409    41 H    0.968
    13   6 C    3.952 --    12 C    1.409     4 C    1.404    42 H    0.962
    14   6 C    3.973 --    15 C    0.980    44 H    0.973    43 H    0.968
                             3 C    0.956
    15   6 C    3.986 --    16 C    1.060    14 C    0.980    45 H    0.961
                            46 H    0.927
    16   6 C    3.608 --    17 N    1.414    15 C    1.060    48 H    0.957
    17   7 N    3.491 --    16 C    1.414    30 C    0.997    18 C    0.988
    18   6 C    3.955 --    17 N    0.988    50 H    0.968    19 C    0.967
                            49 H    0.963
    19   6 C    3.977 --    20 C    1.008    51 H    0.972    52 H    0.971
                            18 C    0.967
    20   6 C    3.943 --    21 C    1.408    29 C    1.380    19 C    1.008
    21   6 C    3.948 --    22 C    1.417    20 C    1.408    53 H    0.968
    22   6 C    3.958 --    21 C    1.417    23 C    1.383    54 H    0.963
    23   6 C    3.894 --    22 C    1.383    26 C    1.218    24 O    1.112
    24   8 O    2.255 --    23 C    1.112    25 C    0.976
    25   6 C    3.927 --    57 H    0.977    24 O    0.976    56 H    0.972
                            55 H    0.972
    26   6 C    3.897 --    29 C    1.394    23 C    1.218    27 O    1.105
    27   8 O    2.255 --    26 C    1.105    28 C    0.978
    28   6 C    3.931 --    27 O    0.978    58 H    0.977    59 H    0.973
                            60 H    0.973
    29   6 C    3.958 --    26 C    1.394    20 C    1.380    61 H    0.962
    30   6 C    3.955 --    17 N    0.997    64 H    0.977    62 H    0.966
                            63 H    0.958
    31   6 C    3.972 --    33 C    1.009    32 C    1.008    65 H    0.959
                             3 C    0.943
    32   6 C    3.976 --    31 C    1.008    67 H    0.981    68 H    0.981
                            66 H    0.973
    33   6 C    3.981 --    31 C    1.009    70 H    0.983    71 H    0.980
                            69 H    0.976
    34   1 H    0.997 --     5 C    0.958
    35   1 H    0.994 --     8 C    0.974
    36   1 H    0.993 --     8 C    0.977
    37   1 H    0.994 --     8 C    0.974
    38   1 H    0.987 --    11 C    0.939
    39   1 H    0.987 --    11 C    0.939
    40   1 H    0.988 --     9 C    0.971
    41   1 H    0.995 --    12 C    0.968
    42   1 H    0.998 --    13 C    0.962
    43   1 H    0.995 --    14 C    0.968
    44   1 H    0.996 --    14 C    0.973
    45   1 H    0.995 --    15 C    0.961
    46   1 H    0.971 --    15 C    0.927
    47   1 H    0.985 --     2 C    0.900
    48   1 H    0.995 --    16 C    0.957
    49   1 H    0.990 --    18 C    0.963
    50   1 H    0.995 --    18 C    0.968
    51   1 H    0.996 --    19 C    0.972
    52   1 H    0.996 --    19 C    0.971
    53   1 H    0.997 --    21 C    0.968
    54   1 H    0.995 --    22 C    0.963
    55   1 H    0.991 --    25 C    0.972
    56   1 H    0.991 --    25 C    0.972
    57   1 H    0.992 --    25 C    0.977
    58   1 H    0.993 --    28 C    0.977
    59   1 H    0.993 --    28 C    0.973
    60   1 H    0.992 --    28 C    0.973
    61   1 H    0.996 --    29 C    0.962
    62   1 H    0.985 --    30 C    0.966
    63   1 H    0.987 --    30 C    0.958
    64   1 H    0.993 --    30 C    0.977
    65   1 H    0.991 --    31 C    0.959
    66   1 H    0.990 --    32 C    0.973
    67   1 H    0.996 --    32 C    0.981
    68   1 H    0.993 --    32 C    0.981
    69   1 H    0.992 --    33 C    0.976
    70   1 H    0.997 --    33 C    0.983
    71   1 H    0.993 --    33 C    0.980
    72   1 H    0.969 --     1 N    0.941
 ---------------------------------------------------------------------------

molecular dipole:
                 x           y           z       tot (Debye)
 q only:        0.851      -0.114      -1.040
   full:        0.974      -0.260      -1.228       4.039

           -------------------------------------------------
          | TOTAL ENERGY             -100.780540688363 Eh   |
          | GRADIENT NORM               0.001829850542 Eh/α |
          | HOMO-LUMO GAP               1.673734351842 eV   |
           -------------------------------------------------

 * finished run on 2024/04/06 at 11:16:17.257
