   * xtb version 6.6.1 (8d0f1dd) compiled by 'conda@1efc2f54142f' on 2023-08-01
          program call               : xtb xtbopt.xyz --opt crude --input .xc2 --gfn2

   ID    Z sym.   atoms
    1    7 N      1, 17
    2    6 C      2-6, 8, 9, 11-16, 18-23, 25, 26, 28-33
    3    8 O      7, 10, 24, 27
    4    1 H      34-72

          :  Hamiltonian                  GFN2-xTB          :
 * total energy  :   -99.2482293 Eh     change       -0.3410605E-12 Eh
 * total energy  :   -99.3548365 Eh     change       -0.1066073E+00 Eh
 * total energy  :   -99.3561857 Eh     change       -0.1349195E-02 Eh
 * total energy  :   -99.3504376 Eh     change        0.5748152E-02 Eh
 * total energy  :   -99.3566274 Eh     change       -0.6189771E-02 Eh
 * total energy  :   -99.3568291 Eh     change       -0.2017907E-03 Eh
   *** GEOMETRY OPTIMIZATION CONVERGED AFTER 6 ITERATIONS ***

 final structure:
================
72
 xtb: 6.6.1 (8d0f1dd)
N           -1.92344759088725        2.83655360144533        2.25029062223318
C           -1.82516686381039        2.15686344441527        1.20811569118009
C           -2.94773746389933        1.90623260416182        0.23966875584341
C           -3.29823961458314        0.42514669776121        0.23452191750083
C           -4.16422802304089       -0.07093678727829       -0.73711138439205
C           -4.50133744566676       -1.42079921180360       -0.76844346952792
O           -5.33522864124150       -1.98599964503639       -1.66801090208367
C           -6.04090700087860       -1.16534114023268       -2.56998877438231
C           -3.94188242446489       -2.28958901300672        0.17502913719738
O           -5.64231745720067       -3.47708504618655        2.38779723641520
C           -6.03969486613917       -4.54341596036665        2.76061909049249
C           -3.10360228301414       -1.79608270539986        1.14810229338802
C           -2.78024180805363       -0.44609416693514        1.18493822832388
C           -2.39988849623773        2.32550520812598       -1.15058056841593
C           -1.41625688023346        1.32287787676126       -1.78310333686287
C           -0.09791869755692        1.26766673291619       -1.11364033851837
N            0.55832566594366        0.15942979865453       -0.80070478850867
C            1.92830828158870        0.21688296587795       -0.34729189537079
C            2.91237433242697       -0.19562618188652       -1.45898734972374
C            4.32774253846688       -0.04100356004318       -0.97705103342360
C            5.00434848263340        1.15563431743417       -1.14935052586505
C            6.30299542402434        1.30980462646801       -0.68991515708728
C            6.95098346859993        0.26808655868229       -0.04160807267094
O            8.20690460463295        0.30273649029428        0.43927076772518
C            8.97649496288250        1.47108883083690        0.27008746441895
C            6.26177626542817       -0.96239432146048        0.14694234790458
O            6.96435895539444       -1.91941685400941        0.78399072759333
C            6.37979889660899       -3.18288152654391        0.99236592491308
C            4.96348647164271       -1.09241265496695       -0.32086764488637
C           -0.02090917357010       -1.15233058128675       -0.96919611226884
C           -4.23884361497336        2.71066263749087        0.57096186149393
C           -4.84411631201610        2.26725531000562        1.90076811868771
C           -4.02214175614790        4.22116632038589        0.57753802034640
H           -4.58590311598124        0.60332409456248       -1.46436382590181
H           -6.64279806770367       -0.41876180424991       -2.04372906764859
H           -6.69931815072920       -1.83317279843812       -3.12208671743913
H           -5.36600239804407       -0.66535276538858       -3.27249141179534
H           -6.19131773392063       -4.78388862953454        3.82466696406170
H           -6.27636786505556       -5.36634360971928        2.06626963117877
H           -4.21286706320030       -3.32645039748842        0.14206789440168
H           -2.70380597402509       -2.46320385547131        1.89581660852103
H           -2.14466426555519       -0.07354489999914        1.97331824084439
H           -3.23876994053714        2.44627445012584       -1.83531424989014
H           -1.91005802357362        3.29562592546896       -1.05650949697122
H           -1.87980856353365        0.33950614140858       -1.83516198019894
H           -1.24197782922925        1.66580696751188       -2.81141862383864
H           -0.87922218679039        1.69789365408403        0.85867497982138
H            0.44018733421698        2.19725717756627       -0.99673934429994
H            2.05011112743658       -0.44851186088364        0.51193365655981
H            2.16267638621644        1.23424469015942       -0.02784974355226
H            2.74530617066354        0.44186803613249       -2.32886148731530
H            2.72612100580310       -1.23048212476874       -1.74819604629950
H            4.52601581581129        1.97821717963599       -1.65892084730158
H            6.80646814329148        2.24938670895661       -0.84728150535830
H            8.52515709461840        2.32589686037888        0.78287499146168
H            9.11351440576031        1.71001146546554       -0.78874617003698
H            9.94333294682243        1.25107783646845        0.71852316102459
H            7.13846304743683       -3.77528001560598        1.50008594198603
H            5.49080743544709       -3.11416067871917        1.62752613363518
H            6.11819282751705       -3.66522253647650        0.04546742503331
H            4.43616478900174       -2.02465706564201       -0.19159173321779
H           -0.15030468552742       -1.39410435778077       -2.02614638564060
H           -0.99222152299744       -1.20945424425737       -0.47231624900156
H            0.63600222823230       -1.89385141523927       -0.52231390573570
H           -4.96062597042975        2.47720085304479       -0.22028409300547
H           -4.16571128114571        2.50061494122782        2.71519432779080
H           -5.04670618899388        1.19892050134625        1.90518109930159
H           -5.78002131705050        2.79369125786271        2.06865039444647
H           -3.29081428543661        4.49432051325660        1.33194045467961
H           -3.69376543718085        4.58906059431757       -0.39109463267293
H           -4.96005943070572        4.71391641598690        0.82010715225113
H           -1.09268580047369        2.96428165179232        2.81922645103528

          :  Hamiltonian                  GFN2-xTB          :
         :: total energy             -99.356829150885 Eh    ::
         :: gradient norm              0.004677359919 Eh/a0 ::
         :: HOMO-LUMO gap              1.673608373514 eV    ::
         :: SCC energy              -100.761939036487 Eh    ::
         :: -> dispersion             -0.073957480255 Eh    ::
         :: repulsion energy           1.403847237839 Eh    ::

    * Orbital Energies and Occupations

         #    Occupation            Energy/Eh            Energy/eV
      -------------------------------------------------------------
         1        2.0000           -0.8071837             -21.9646
       ...           ...                  ...                  ...
        78        1.9979           -0.5268572             -14.3365
        79        1.9976           -0.5249893             -14.2857
        80        1.9969           -0.5207858             -14.1713
        81        1.9966           -0.5193164             -14.1313
        82        1.9953           -0.5141772             -13.9915
        83        1.9941           -0.5104569             -13.8902
        84        1.9909           -0.5036278             -13.7044
        85        1.9813           -0.4922056             -13.3936
        86        1.9776           -0.4892681             -13.3137
        87        1.9673           -0.4832205             -13.1491
        88        1.9277           -0.4703248             -12.7982
        89        1.9224           -0.4691769             -12.7670
        90        1.8370           -0.4566917             -12.4272 (HOMO)
        91        0.3762           -0.3951877             -10.7536 (LUMO)
        92        0.0293           -0.3517044              -9.5704
        93        0.0124           -0.3379784              -9.1969
        94        0.0034           -0.3173930              -8.6367
        95        0.0026           -0.3132968              -8.5252
        96        0.0023           -0.3109035              -8.4601
        97        0.0018           -0.3070136              -8.3543
        98        0.0000           -0.1884207              -5.1272
        99        0.0000           -0.1856375              -5.0515
       100                         -0.1363371              -3.7099
       101                         -0.0685540              -1.8655
       ...                                ...                  ...
       171                          0.5756632              15.6646
      -------------------------------------------------------------
                  HL-Gap            0.0615040 Eh            1.6736 eV

     #   Z          covCN         q      C6AA      α(0)
     1   7 N        1.774    -0.265    27.710     7.795
     2   6 C        2.827     0.103    25.720     8.310
     3   6 C        3.908     0.006    20.426     6.424
     4   6 C        2.976     0.011    27.767     8.644
     5   6 C        2.921    -0.076    29.890     8.965
     6   6 C        2.863     0.151    24.729     8.151
     7   8 O        1.706    -0.246    18.071     5.740
     8   6 C        3.643     0.030    20.408     6.494
     9   6 C        2.920    -0.048    29.184     8.859
    10   8 O        0.856    -0.279    19.401     5.905
    11   6 C        2.701     0.179    24.151     8.044
    12   6 C        2.917    -0.027    28.665     8.780
    13   6 C        2.922    -0.051    29.269     8.872
    14   6 C        3.812    -0.063    21.708     6.632
    15   6 C        3.802    -0.069    21.829     6.652
    16   6 C        2.843     0.009    27.802     8.641
    17   7 N        2.729     0.016    20.981     6.803
    18   6 C        3.756    -0.017    20.930     6.523
    19   6 C        3.808    -0.071    21.847     6.654
    20   6 C        2.969     0.000    28.023     8.683
    21   6 C        2.922    -0.048    29.202     8.862
    22   6 C        2.914    -0.067    29.674     8.933
    23   6 C        2.865     0.134    25.071     8.207
    24   8 O        1.706    -0.221    17.662     5.674
    25   6 C        3.645     0.025    20.495     6.506
    26   6 C        2.863     0.133    25.079     8.209
    27   8 O        1.706    -0.224    17.708     5.682
    28   6 C        3.645     0.027    20.460     6.501
    29   6 C        2.919    -0.079    29.984     8.980
    30   6 C        3.700    -0.073    22.067     6.718
    31   6 C        3.853    -0.007    20.659     6.465
    32   6 C        3.756    -0.118    22.823     6.812
    33   6 C        3.755    -0.119    22.830     6.813
    34   1 H        0.926     0.044     2.390     2.418
    35   1 H        0.924     0.053     2.287     2.365
    36   1 H        0.925     0.077     2.015     2.220
    37   1 H        0.924     0.045     2.390     2.417
    38   1 H        0.923     0.053     2.283     2.363
    39   1 H        0.923     0.051     2.313     2.378
    40   1 H        0.926     0.071     2.076     2.253
    41   1 H        0.926     0.051     2.303     2.373
    42   1 H        0.926     0.034     2.524     2.484
    43   1 H        0.925     0.061     2.186     2.312
    44   1 H        0.924     0.053     2.284     2.363
    45   1 H        0.925     0.068     2.112     2.273
    46   1 H        0.924     0.081     1.974     2.197
    47   1 H        0.922     0.006     2.961     2.691
    48   1 H        0.926     0.070     2.081     2.256
    49   1 H        0.924     0.069     2.098     2.265
    50   1 H        0.924     0.068     2.111     2.272
    51   1 H        0.924     0.056     2.252     2.347
    52   1 H        0.924     0.057     2.238     2.339
    53   1 H        0.926     0.046     2.371     2.408
    54   1 H        0.926     0.059     2.209     2.324
    55   1 H        0.924     0.055     2.260     2.351
    56   1 H        0.924     0.056     2.242     2.341
    57   1 H        0.925     0.083     1.949     2.183
    58   1 H        0.925     0.082     1.954     2.186
    59   1 H        0.924     0.049     2.328     2.386
    60   1 H        0.924     0.053     2.283     2.363
    61   1 H        0.926     0.048     2.350     2.397
    62   1 H        0.924     0.077     2.008     2.216
    63   1 H        0.924     0.084     1.940     2.178
    64   1 H        0.925     0.081     1.969     2.194
    65   1 H        0.924     0.038     2.478     2.462
    66   1 H        0.925     0.068     2.105     2.269
    67   1 H        0.925     0.040     2.449     2.447
    68   1 H        0.925     0.051     2.306     2.375
    69   1 H        0.925     0.062     2.181     2.309
    70   1 H        0.925     0.034     2.525     2.485
    71   1 H        0.925     0.055     2.264     2.353
    72   1 H        0.860     0.158     1.349     1.819

Wiberg/Mayer (AO) data.
largest (>0.10) Wiberg bond orders for each atom

     #   Z sym  total        # sym  WBO       # sym  WBO       # sym  WBO
 ---------------------------------------------------------------------------
     1   7 N    3.041 --     2 C    1.958    72 H    0.941
     2   6 C    3.931 --     1 N    1.958     3 C    0.994    47 H    0.900
     3   6 C    3.974 --     2 C    0.994     4 C    0.968    14 C    0.956
                            31 C    0.943
     4   6 C    3.966 --    13 C    1.407     5 C    1.399     3 C    0.968
     5   6 C    3.957 --     4 C    1.399     6 C    1.364    34 H    0.959
     6   6 C    3.913 --     5 C    1.364     9 C    1.319     7 O    1.092
     7   8 O    2.244 --     6 C    1.092     8 C    0.979
     8   6 C    3.935 --     7 O    0.979    36 H    0.977    35 H    0.974
                            37 H    0.974
     9   6 C    3.950 --    12 C    1.475     6 C    1.319    40 H    0.964
    10   8 O    2.074 --    11 C    1.983
    11   6 C    3.861 --    10 O    1.983    38 H    0.939    39 H    0.938
    12   6 C    3.977 --     9 C    1.475    13 C    1.402    41 H    0.968
    13   6 C    3.952 --     4 C    1.407    12 C    1.402    42 H    0.962
    14   6 C    3.973 --    15 C    0.980    44 H    0.973    43 H    0.968
                             3 C    0.956
    15   6 C    3.986 --    16 C    1.060    14 C    0.980    45 H    0.961
                            46 H    0.927
    16   6 C    3.608 --    17 N    1.414    15 C    1.060    48 H    0.957
    17   7 N    3.490 --    16 C    1.414    30 C    0.997    18 C    0.988
    18   6 C    3.955 --    17 N    0.988    50 H    0.968    19 C    0.967
                            49 H    0.963
    19   6 C    3.977 --    20 C    1.008    51 H    0.972    52 H    0.971
                            18 C    0.967
    20   6 C    3.943 --    21 C    1.409    29 C    1.380    19 C    1.008
    21   6 C    3.948 --    22 C    1.417    20 C    1.409    53 H    0.968
    22   6 C    3.958 --    21 C    1.417    23 C    1.383    54 H    0.963
    23   6 C    3.894 --    22 C    1.383    26 C    1.218    24 O    1.112
    24   8 O    2.255 --    23 C    1.112    25 C    0.976
    25   6 C    3.927 --    57 H    0.977    24 O    0.976    56 H    0.972
                            55 H    0.972
    26   6 C    3.897 --    29 C    1.394    23 C    1.218    27 O    1.105
    27   8 O    2.255 --    26 C    1.105    28 C    0.978
    28   6 C    3.931 --    27 O    0.978    58 H    0.977    59 H    0.973
                            60 H    0.973
    29   6 C    3.958 --    26 C    1.394    20 C    1.380    61 H    0.962
    30   6 C    3.955 --    17 N    0.997    64 H    0.977    62 H    0.966
                            63 H    0.958
    31   6 C    3.972 --    33 C    1.009    32 C    1.008    65 H    0.959
                             3 C    0.943
    32   6 C    3.976 --    31 C    1.008    68 H    0.981    67 H    0.981
                            66 H    0.973
    33   6 C    3.981 --    31 C    1.009    70 H    0.983    71 H    0.980
                            69 H    0.976
    34   1 H    0.997 --     5 C    0.959
    35   1 H    0.994 --     8 C    0.974
    36   1 H    0.993 --     8 C    0.977
    37   1 H    0.994 --     8 C    0.974
    38   1 H    0.987 --    11 C    0.939
    39   1 H    0.987 --    11 C    0.938
    40   1 H    0.993 --     9 C    0.964
    41   1 H    0.995 --    12 C    0.968
    42   1 H    0.998 --    13 C    0.962
    43   1 H    0.995 --    14 C    0.968
    44   1 H    0.996 --    14 C    0.973
    45   1 H    0.995 --    15 C    0.961
    46   1 H    0.971 --    15 C    0.927
    47   1 H    0.985 --     2 C    0.900
    48   1 H    0.995 --    16 C    0.957
    49   1 H    0.990 --    18 C    0.963
    50   1 H    0.995 --    18 C    0.968
    51   1 H    0.996 --    19 C    0.972
    52   1 H    0.996 --    19 C    0.971
    53   1 H    0.997 --    21 C    0.968
    54   1 H    0.995 --    22 C    0.963
    55   1 H    0.991 --    25 C    0.972
    56   1 H    0.991 --    25 C    0.972
    57   1 H    0.992 --    25 C    0.977
    58   1 H    0.993 --    28 C    0.977
    59   1 H    0.993 --    28 C    0.973
    60   1 H    0.993 --    28 C    0.973
    61   1 H    0.996 --    29 C    0.962
    62   1 H    0.985 --    30 C    0.966
    63   1 H    0.987 --    30 C    0.958
    64   1 H    0.993 --    30 C    0.977
    65   1 H    0.991 --    31 C    0.959
    66   1 H    0.990 --    32 C    0.973
    67   1 H    0.996 --    32 C    0.981
    68   1 H    0.993 --    32 C    0.981
    69   1 H    0.992 --    33 C    0.976
    70   1 H    0.997 --    33 C    0.983
    71   1 H    0.993 --    33 C    0.980
    72   1 H    0.969 --     1 N    0.941
 ---------------------------------------------------------------------------

molecular dipole:
                 x           y           z       tot (Debye)
 q only:        0.814      -0.084      -1.048
   full:        0.925      -0.254      -1.237       3.979

           -------------------------------------------------
          | TOTAL ENERGY              -99.356829150885 Eh   |
          | GRADIENT NORM               0.004677359919 Eh/α |
          | HOMO-LUMO GAP               1.673608373514 eV   |
           -------------------------------------------------

 * finished run on 2024/04/06 at 11:16:18.543
