   * xtb version 6.6.1 (8d0f1dd) compiled by 'conda@1efc2f54142f' on 2023-08-01
          program call               : xtb xtbopt.xyz --opt crude --input .xc2 --gfn2

   ID    Z sym.   atoms
    1    6 C      1, 3, 5-7, 10, 11, 14
    2    7 N      2, 4, 9, 13
    3    8 O      8, 12
    4    1 H      15-25

          :  Hamiltonian                  GFN2-xTB          :
 * total energy  :   -42.1046376 Eh     change       -0.7432277E-11 Eh
   *** GEOMETRY OPTIMIZATION CONVERGED AFTER 1 ITERATIONS ***

 final structure:
================
25
 xtb: 6.6.1 (8d0f1dd)
C            3.28229885796677        1.25862705144128        0.07250886116684
N            2.37941467116332        0.13867667700028        0.03824634891393
C            2.70820482898799       -1.14841747686400        0.04305570834538
N            1.59462967069517       -1.91041643411322        0.02351141784775
C            0.50899365445394       -1.06953851369172        0.00241307882519
C            1.00843536414917        0.22793029880096        0.01177720217018
C            0.14685781156341        1.38790844376785       -0.00758848933450
O            0.50690064087629        2.54318772714759        0.00876395707864
N           -1.20224332838342        1.01359567955316       -0.05101042154320
C           -2.18874068338255        2.08917654489509       -0.08603641031460
C           -1.73906969593988       -0.24346987493605       -0.07002052965658
O           -2.91365396833711       -0.46854905182531       -0.12534575948262
N           -0.81143524028827       -1.36792436968587       -0.01342755957096
C           -1.33256563332954       -2.60520241072731        0.01705184356912
H            3.85689519613376        1.25213381742445        0.99909013461290
H            3.97341846241834        1.21511372769042       -0.76886645044390
H            2.69987071978031        2.17797205650223        0.01837476817452
H            3.70994245636222       -1.53085891688453        0.06073131196221
H           -1.65477971094071        3.03538866780288       -0.05268988812976
H           -2.77851249926963        2.01981507103662       -0.99902963090812
H           -2.85860466222163        2.00200467406983        0.76808391514029
H           -0.69749960705352       -3.46463564373073        0.08358834242090
H           -2.41367156647776       -2.70361094526199        0.01536523348787
H           -4.20780180515466       -3.11082258717346        0.02989582911270
H            1.58314758033058       -2.91984567063228        0.01272880445302

          :  Hamiltonian                  GFN2-xTB          :
         :: total energy             -42.104637646024 Eh    ::
         :: gradient norm              0.003321547161 Eh/a0 ::
         :: HOMO-LUMO gap              0.038172059448 eV    ::
         :: SCC energy               -42.625975587031 Eh    ::
         :: -> dispersion             -0.022880265559 Eh    ::
         :: repulsion energy           0.521258966936 Eh    ::

    * Orbital Energies and Occupations

         #    Occupation            Energy/Eh            Energy/eV
      -------------------------------------------------------------
         1        2.0000           -0.9164474             -24.9378
       ...           ...                  ...                  ...
        25        2.0000           -0.6684476             -18.1894
        26        2.0000           -0.6679484             -18.1758
        27        2.0000           -0.6593798             -17.9426
        28        1.9999           -0.6352168             -17.2851
        29        1.9999           -0.6328372             -17.2204
        30        1.9998           -0.6279400             -17.0871
        31        1.9997           -0.6193303             -16.8528
        32        1.9987           -0.5986233             -16.2894
        33        1.9977           -0.5889105             -16.0251
        34        1.9970           -0.5848685             -15.9151
        35        1.9884           -0.5635435             -15.3348
        36        1.9877           -0.5625973             -15.3091
        37        0.9803           -0.4814686             -13.1014 (HOMO)
        38        0.9361           -0.4800658             -13.0633 (LUMO)
        39        0.1023           -0.4358517             -11.8601
        40        0.0106           -0.3991992             -10.8628
        41        0.0020           -0.3730319             -10.1507
        42        0.0000           -0.2881599              -7.8412
        43                         -0.2128204              -5.7911
        44                         -0.2004922              -5.4557
        45                         -0.1502037              -4.0873
        46                         -0.1342296              -3.6526
        47                         -0.0666810              -1.8145
        48                         -0.0398043              -1.0831
       ...                                ...                  ...
        67                          0.5553184              15.1110
      -------------------------------------------------------------
                  HL-Gap            0.0014028 Eh            0.0382 eV

     #   Z          covCN         q      C6AA      α(0)
     1   6 C        3.691    -0.097    22.538     6.793
     2   7 N        2.831     0.084    19.779     6.605
     3   6 C        3.050     0.054    26.750     8.482
     4   7 N        2.789    -0.057    22.348     7.021
     5   6 C        3.038     0.092    25.913     8.349
     6   6 C        3.113    -0.016    28.260     8.708
     7   6 C        2.763     0.266    22.505     7.769
     8   8 O        0.858    -0.367    21.028     6.148
     9   7 N        2.744    -0.079    22.777     7.088
    10   6 C        3.713    -0.064    21.862     6.681
    11   6 C        2.734     0.310    21.727     7.631
    12   8 O        0.859    -0.340    20.525     6.074
    13   7 N        2.735     0.008    21.115     6.825
    14   6 C        2.796    -0.059    29.456     8.891
    15   1 H        0.924     0.109     1.708     2.044
    16   1 H        0.925     0.108     1.716     2.049
    17   1 H        0.925     0.139     1.466     1.893
    18   1 H        0.926     0.127     1.556     1.951
    19   1 H        0.925     0.116     1.645     2.006
    20   1 H        0.925     0.098     1.801     2.098
    21   1 H        0.925     0.098     1.802     2.099
    22   1 H        0.926     0.086     1.921     2.167
    23   1 H        0.925     0.134     1.508     1.920
    24   1 H        0.000     0.021     6.783     4.762
    25   1 H        0.860     0.229     0.970     1.543

Wiberg/Mayer (AO) data.
largest (>0.10) Wiberg bond orders for each atom

     #   Z sym  total        # sym  WBO       # sym  WBO       # sym  WBO
 ---------------------------------------------------------------------------
     1   6 C    3.912 --     2 N    0.984    16 H    0.960    17 H    0.959
                            15 H    0.958
     2   7 N    3.670 --     3 C    1.384     6 C    1.164     1 C    0.984
     3   6 C    3.839 --     2 N    1.384     4 N    1.287    18 H    0.952
     4   7 N    3.552 --     3 C    1.287     5 C    1.165    25 H    0.918
     5   6 C    3.883 --     6 C    1.337     4 N    1.165    13 N    1.164
     6   6 C    3.857 --     5 C    1.337     2 N    1.164     7 C    1.077
     7   6 C    3.915 --     8 O    1.673     9 N    1.079     6 C    1.077
     8   8 O    1.986 --     7 C    1.673     9 N    0.138
     9   7 N    3.569 --    11 C    1.171     7 C    1.079    10 C    0.963
                            12 O    0.151     8 O    0.138
    10   6 C    3.912 --    19 H    0.968    21 H    0.966    20 H    0.966
                             9 N    0.963
    11   6 C    3.923 --    12 O    1.724     9 N    1.171    13 N    0.934
    12   8 O    2.052 --    11 C    1.724     9 N    0.151
    13   7 N    3.621 --    14 C    1.298     5 C    1.164    11 C    0.934
    14   6 C    3.295 --    13 N    1.298    22 H    0.969    23 H    0.916
    15   1 H    0.985 --     1 C    0.958
    16   1 H    0.985 --     1 C    0.960
    17   1 H    0.980 --     1 C    0.959
    18   1 H    0.983 --     3 C    0.952
    19   1 H    0.985 --    10 C    0.968
    20   1 H    0.987 --    10 C    0.966
    21   1 H    0.987 --    10 C    0.966
    22   1 H    0.990 --    14 C    0.969
    23   1 H    0.981 --    14 C    0.916
    24   1 H    0.049
    25   1 H    0.947 --     4 N    0.918
 ---------------------------------------------------------------------------

molecular dipole:
                 x           y           z       tot (Debye)
 q only:        2.689      -1.856       0.078
   full:        2.990      -2.430       0.091       9.795

           -------------------------------------------------
          | TOTAL ENERGY              -42.104637646024 Eh   |
          | GRADIENT NORM               0.003321547161 Eh/α |
          | HOMO-LUMO GAP               0.038172059448 eV   |
           -------------------------------------------------

 * finished run on 2024/06/05 at 19:59:13.113
