   * xtb version 6.6.1 (8d0f1dd) compiled by 'conda@1efc2f54142f' on 2023-08-01
          program call               : xtb struc.xyz --opt loose --input .xc1 --gfn2

   ID    Z sym.   atoms
    1    6 C      1, 3, 5-7, 10, 11, 14
    2    7 N      2, 4, 9, 13
    3    8 O      8, 12
    4    1 H      15-25
constraining bond 5 6 to    4.0000000 Å, actual value:    1.3842879 Å

          :  Hamiltonian                  GFN2-xTB          :
 * total energy  :   -30.0313379 Eh     change       -0.6650680E-10 Eh
 * total energy  :   -34.3291785 Eh     change       -0.4297841E+01 Eh
 * total energy  :   -37.9491095 Eh     change       -0.3619931E+01 Eh
 * total energy  :   -40.3585981 Eh     change       -0.2409489E+01 Eh
 * total energy  :   -41.4554735 Eh     change       -0.1096875E+01 Eh
 * total energy  :   -41.6635637 Eh     change       -0.2080902E+00 Eh
 * total energy  :   -41.6892152 Eh     change       -0.2565149E-01 Eh
 * total energy  :   -41.7067699 Eh     change       -0.1755472E-01 Eh
 * total energy  :   -41.7524476 Eh     change       -0.4567770E-01 Eh
 * total energy  :   -41.7691216 Eh     change       -0.1667397E-01 Eh
 * total energy  :   -41.9927671 Eh     change       -0.1920925E-03 Eh
 * total energy  :   -41.9929460 Eh     change       -0.1789511E-03 Eh
 * total energy  :   -41.9930706 Eh     change       -0.1246216E-03 Eh
 * total energy  :   -41.9931343 Eh     change       -0.6364097E-04 Eh
 * total energy  :   -41.9931984 Eh     change       -0.6413702E-04 Eh
 * total energy  :   -41.9932800 Eh     change       -0.8156111E-04 Eh
 * total energy  :   -41.9933554 Eh     change       -0.7542948E-04 Eh
 * total energy  :   -41.9934083 Eh     change       -0.5288956E-04 Eh
 * total energy  :   -41.9934464 Eh     change       -0.3815841E-04 Eh
   *** GEOMETRY OPTIMIZATION CONVERGED AFTER 51 ITERATIONS ***

 final structure:
================
25
 xtb: 6.6.1 (8d0f1dd)
C            3.59319562837425        1.10778862936765        0.41460730749019
N            2.25549693974662        0.55987423740560        0.24872186992243
C            2.12373035425280       -0.57707994849597       -0.42006933394549
N            1.12516452132945       -1.42039068556819       -0.91110837244542
C           -0.11310639212838       -1.95367375832243       -0.78806508329611
C            1.31549717193467        1.32133323330762        0.98188122508760
C            0.02913318375636        1.36724734125228        0.41689560696821
O            0.67904464226881        2.46654248969950        0.19164616370189
N           -1.09951245657198        0.86398163375442        0.06794128314649
C           -2.12737184679142        1.67938980175464       -0.57427656055863
C           -1.59090688905574       -0.41365586761497        0.59855953454257
O           -2.50929858448581       -0.38920252276127        1.36303482738715
N           -1.11008909362048       -1.58098431501075        0.03288241233147
C           -2.01626191065303       -2.70782457173567        0.32041492997639
H            3.92885076645958        0.95363482383547        1.44110338223507
H            4.30387626087784        0.66133620621882       -0.27542226587921
H            3.53977864623032        2.18239317815329        0.23710983973349
H            3.09160009357293       -0.96768049030853       -0.71595938442534
H           -1.72559287216433        2.67057642640201       -0.77192904455913
H           -2.42787710095379        1.20475879358403       -1.50787076113328
H           -2.99044137143018        1.75481202424915        0.08769819702950
H           -1.96924594836084       -2.94856073237102        1.38205298247561
H           -1.69912032647778       -3.56343610234463       -0.26806334401709
H           -3.04301030576025       -2.43852697648890        0.07388583988200
H            1.59689840375081       -2.01441430636405       -1.59449963375115

          :  Hamiltonian                  GFN2-xTB          :
         :: total energy             -41.993446449695 Eh    ::
         :: gradient norm              0.001994757220 Eh/a0 ::
         :: HOMO-LUMO gap              1.517970630774 eV    ::
         :: SCC energy               -42.479462533356 Eh    ::
         :: -> dispersion             -0.021995472433 Eh    ::
         :: repulsion energy           0.485528345534 Eh    ::

    * Orbital Energies and Occupations

         #    Occupation            Energy/Eh            Energy/eV
      -------------------------------------------------------------
         1        2.0000           -0.9159267             -24.9236
       ...           ...                  ...                  ...
        25        2.0000           -0.6682248             -18.1833
        26        1.9999           -0.6542025             -17.8018
        27        1.9999           -0.6507581             -17.7080
        28        1.9998           -0.6412352             -17.4489
        29        1.9998           -0.6388651             -17.3844
        30        1.9994           -0.6207662             -16.8919
        31        1.9992           -0.6184036             -16.8276
        32        1.9988           -0.6109370             -16.6244
        33        1.9986           -0.6081474             -16.5485
        34        1.9978           -0.6015403             -16.3687
        35        1.9948           -0.5877095             -15.9924
        36        1.9009           -0.5403201             -14.7029
        37        1.7408           -0.5237077             -14.2508 (HOMO)
        38        0.3308           -0.4679233             -12.7328 (LUMO)
        39        0.0314           -0.4280365             -11.6475
        40        0.0076           -0.4054272             -11.0322
        41        0.0006           -0.3645176              -9.9190
        42        0.0000           -0.2862737              -7.7899
        43                         -0.2219932              -6.0407
        44                         -0.2167997              -5.8994
        45                         -0.1431168              -3.8944
        46                         -0.1294800              -3.5233
        47                         -0.1163999              -3.1674
        48                         -0.0790339              -2.1506
       ...                                ...                  ...
        67                          0.5742726              15.6268
      -------------------------------------------------------------
                  HL-Gap            0.0557844 Eh            1.5180 eV

     #   Z          covCN         q      C6AA      α(0)
     1   6 C        3.729    -0.081    22.149     6.719
     2   7 N        2.735     0.045    20.465     6.719
     3   6 C        2.769     0.053    26.784     8.476
     4   7 N        2.680    -0.072    22.652     7.069
     5   6 C        1.863    -0.056    32.640     9.228
     6   6 C        2.746    -0.019    28.455     8.734
     7   6 C        2.786     0.261    22.603     7.788
     8   8 O        1.679    -0.236    17.924     5.716
     9   7 N        2.726    -0.048    22.170     6.993
    10   6 C        3.706    -0.059    21.791     6.673
    11   6 C        2.726     0.314    21.668     7.620
    12   8 O        0.859    -0.312    20.007     5.997
    13   7 N        2.730    -0.007    21.388     6.869
    14   6 C        3.751    -0.072    21.940     6.680
    15   1 H        0.924     0.114     1.661     2.016
    16   1 H        0.925     0.090     1.878     2.143
    17   1 H        0.924     0.119     1.622     1.991
    18   1 H        0.925     0.097     1.812     2.105
    19   1 H        0.925     0.106     1.732     2.058
    20   1 H        0.925     0.093     1.853     2.129
    21   1 H        0.924     0.113     1.670     2.021
    22   1 H        0.925     0.105     1.742     2.064
    23   1 H        0.925     0.110     1.693     2.035
    24   1 H        0.925     0.100     1.781     2.087
    25   1 H        0.860     0.242     0.915     1.498

Wiberg/Mayer (AO) data.
largest (>0.10) Wiberg bond orders for each atom

     #   Z sym  total        # sym  WBO       # sym  WBO       # sym  WBO
 ---------------------------------------------------------------------------
     1   6 C    3.921 --     2 N    0.975    16 H    0.974    17 H    0.958
                            15 H    0.955
     2   7 N    3.581 --     3 C    1.428     6 C    1.030     1 C    0.975
     3   6 C    3.776 --     2 N    1.428     4 N    1.166    18 H    0.945
     4   7 N    3.564 --     5 C    1.317     3 C    1.166    25 H    0.905
     5   6 C    2.813 --     4 N    1.317    13 N    1.295
     6   6 C    3.112 --     7 C    1.072     2 N    1.030     8 O    0.778
     7   6 C    3.865 --     9 N    1.466     8 O    1.225     6 C    1.072
     8   8 O    2.232 --     7 C    1.225     6 C    0.778     9 N    0.120
     9   7 N    3.587 --     7 C    1.466    10 C    0.945    11 C    0.891
                             8 O    0.120
    10   6 C    3.915 --    19 H    0.973    20 H    0.969    21 H    0.961
                             9 N    0.945
    11   6 C    3.889 --    12 O    1.772    13 N    1.122     9 N    0.891
    12   8 O    2.078 --    11 C    1.772    13 N    0.130
    13   7 N    3.595 --     5 C    1.295    11 C    1.122    14 C    0.946
                            12 O    0.130
    14   6 C    3.907 --    23 H    0.971    24 H    0.969    22 H    0.964
                            13 N    0.946
    15   1 H    0.978 --     1 C    0.955
    16   1 H    0.991 --     1 C    0.974
    17   1 H    0.980 --     1 C    0.958
    18   1 H    0.988 --     3 C    0.945
    19   1 H    0.988 --    10 C    0.973
    20   1 H    0.990 --    10 C    0.969
    21   1 H    0.985 --    10 C    0.961
    22   1 H    0.985 --    14 C    0.964
    23   1 H    0.987 --    14 C    0.971
    24   1 H    0.984 --    14 C    0.969
    25   1 H    0.934 --     4 N    0.905
 ---------------------------------------------------------------------------

molecular dipole:
                 x           y           z       tot (Debye)
 q only:        1.482      -1.108      -0.940
   full:        1.584      -0.766      -1.190       5.399

           -------------------------------------------------
          | TOTAL ENERGY              -41.993446449695 Eh   |
          | GRADIENT NORM               0.001994757220 Eh/α |
          | HOMO-LUMO GAP               1.517970630774 eV   |
           -------------------------------------------------

 * finished run on 2024/06/05 at 19:58:20.022
