   * xtb version 6.6.1 (8d0f1dd) compiled by 'conda@1efc2f54142f' on 2023-08-01
          program call               : xtb struc.xyz --opt loose --input .xc1 --gfn2

   ID    Z sym.   atoms
    1    7 N      1, 17
    2    6 C      2-6, 8, 9, 11-16, 18-23, 25, 26, 28-33
    3    8 O      7, 10, 24, 27
    4    1 H      34-72
constraining bond 16 42 to    6.7133300 Å, actual value:    3.7736471 Å

          :  Hamiltonian                  GFN2-xTB          :
 * total energy  :  -100.9471405 Eh     change       -0.4035485E-08 Eh
 * total energy  :  -101.7504282 Eh     change       -0.8032877E+00 Eh
 * total energy  :  -102.6588537 Eh     change       -0.9084255E+00 Eh
 * total energy  :  -103.6915911 Eh     change       -0.1032737E+01 Eh
 * total energy  :  -104.9455414 Eh     change       -0.1253950E+01 Eh
 * total energy  :  -100.1598193 Eh     change        0.4785722E+01 Eh
 * total energy  :  -105.2282491 Eh     change       -0.5068430E+01 Eh
 * total energy  :  -105.3016456 Eh     change       -0.7339654E-01 Eh
 * total energy  :  -105.3643475 Eh     change       -0.6270184E-01 Eh
 * total energy  :  -105.4017997 Eh     change       -0.3745217E-01 Eh
 * total energy  :  -105.6796321 Eh     change       -0.1133490E-03 Eh
 * total energy  :  -105.6797537 Eh     change       -0.1216231E-03 Eh
 * total energy  :  -105.6798724 Eh     change       -0.1187415E-03 Eh
 * total energy  :  -105.6799840 Eh     change       -0.1116047E-03 Eh
 * total energy  :  -105.6800874 Eh     change       -0.1033238E-03 Eh
 * total energy  :  -105.6801667 Eh     change       -0.7936380E-04 Eh
 * total energy  :  -105.6802043 Eh     change       -0.3756493E-04 Eh
 * total energy  :  -105.6802784 Eh     change       -0.7412964E-04 Eh
 * total energy  :  -105.6803200 Eh     change       -0.4157053E-04 Eh
   *** GEOMETRY OPTIMIZATION CONVERGED AFTER 63 ITERATIONS ***

 final structure:
================
72
 xtb: 6.6.1 (8d0f1dd)
N           -2.51367294999206        0.85879541421810        2.14039574204983
C           -2.41621463604377        2.05500589834098        1.55006384597404
C           -3.20665167386717        2.08570042005371        0.28704028780641
C           -3.73163790241180        0.67328927659841        0.25263833961927
C           -4.53423088562318        0.02791163504599       -0.66759697189697
C           -4.87487015392567       -1.30397761757331       -0.45005689351101
O           -5.64700741386873       -2.04475897253542       -1.26745185001277
C           -6.23354448645761       -1.43759936107354       -2.39676132443247
C           -4.40082322740211       -1.99181332199332        0.70876392850983
O           -4.79932757375741       -3.27398466359441        0.80407860381779
C           -4.43725561801113       -4.01977189294653        1.94396587218890
C           -3.60037272165814       -1.33676621334708        1.63251075006821
C           -3.28201714573642       -0.00604448671685        1.38773237127274
C           -2.33819301184614        2.42023035915059       -0.95378933238761
C           -1.41768635363029        1.28577584944245       -1.40186580799974
C           -0.31937989716776        0.96420404165666       -0.35365456828177
N            0.61291289262719       -0.02154027069749       -0.95261152770615
C            1.96731552321683        0.00904231701518       -0.44957196123042
C            2.97213544812313       -0.43530719452159       -1.52811182814164
C            4.37739928978778       -0.23241833603775       -1.04333746985752
C            5.00486404311477        0.99635644979444       -1.19176841162844
C            6.29036100816611        1.20185432761108       -0.71814903594439
C            6.98025386515488        0.17980917701393       -0.08007899180462
O            8.22903687926180        0.26627201895059        0.41711778121724
C            8.93716253080081        1.47720889024108        0.28792424079715
C            6.34747618875853       -1.08441544513814        0.07737728017751
O            7.08820433529455       -2.02291782845976        0.70101035215824
C            6.56569675395498       -3.32027794545649        0.85902232659308
C            5.05881413565364       -1.26377373755642       -0.40295051241896
C            0.02741534290769       -1.34014339589085       -1.04306412258588
C           -4.39816341626467        3.09880417020453        0.38208933054738
C           -5.25390394432821        2.81510540740988        1.61574636756107
C           -3.94123476040646        4.55358910637232        0.39250846100677
H           -4.88895328269027        0.55178883963781       -1.53935398762096
H           -6.87879485035797       -0.60128289241057       -2.11066127309789
H           -6.83549174729022       -2.21373191809068       -2.86497541808624
H           -5.47605723351497       -1.09111768162445       -3.10690318736485
H           -4.81208283337698       -3.55571125582549        2.86191787365060
H           -4.90480777833231       -4.99379220538665        1.81785220741829
H           -3.35097048855320       -4.14686680297592        2.01232710158060
H           -3.23908363734475       -1.83259820744324        2.51811735335349
H           -0.58207784990771        0.74383040648926        0.23725760425448
H           -3.01068572213173        2.65807731127183       -1.77872825816141
H           -1.74085192330166        3.30537767711557       -0.73521614699075
H           -2.01095633088604        0.38959332044798       -1.58253999308403
H           -0.94284892963508        1.57057753868631       -2.34060060172056
H           -1.86389078830409        2.86110815691483        1.98605982770025
H            0.27292156863575        1.89672257264708       -0.26522879706849
H            2.09030577283930       -0.62521000852202        0.44294848571480
H            2.21103150395070        1.03510740651730       -0.16630032780156
H            2.79219881209090        0.16100494099976       -2.42279133519692
H            2.81244234443892       -1.48389791980554       -1.77859224349716
H            4.49126130295922        1.80319277716114       -1.69176984253816
H            6.75262677963413        2.16570851737955       -0.85558032484139
H            8.42901288992998        2.29580480916356        0.80692213818179
H            9.08307949873434        1.74554705682573       -0.76272361142963
H            9.90511151827807        1.30086324208329        0.75315869542619
H            7.34769446641112       -3.89189771354753        1.35529870366051
H            5.66727405121153       -3.31820706786148        1.48461027229005
H            6.33780199206002       -3.78093794790706       -0.10711687015138
H            4.57173510520322       -2.21992219655140       -0.29164105392281
H           -0.61950440361917       -1.39751830178320       -1.92064975224150
H           -0.57178182632870       -1.59117158547413       -0.15475628054055
H            0.80848683908389       -2.08878085568791       -1.15227397697120
H           -5.01230498663970        2.93161176339665       -0.50824288345291
H           -4.70294367399319        3.03743101731602        2.52736548754746
H           -5.57412344408330        1.77601716652384        1.64488741865392
H           -6.14165859827756        3.44208026461321        1.59643563817774
H           -3.25882381420380        4.74597168687518        1.21609339831231
H           -3.45699147131480        4.83221104291379       -0.53845733021524
H           -4.80870161362880        5.19665040477887        0.51995228941088
H           -2.09494208506904        0.61706208797656        3.02599857195066

          :  Hamiltonian                  GFN2-xTB          :
         :: total energy            -105.680319992814 Eh    ::
         :: gradient norm              0.003435376960 Eh/a0 ::
         :: HOMO-LUMO gap              1.363947045626 eV    ::
         :: SCC energy              -100.837224617000 Eh    ::
         :: -> dispersion             -0.073787672866 Eh    ::
         :: repulsion energy           1.648298094895 Eh    ::

    * Orbital Energies and Occupations

         #    Occupation            Energy/Eh            Energy/eV
      -------------------------------------------------------------
         1        2.0000           -0.8137899             -22.1443
       ...           ...                  ...                  ...
        78        1.9990           -0.5333584             -14.5134
        79        1.9987           -0.5292089             -14.4005
        80        1.9984           -0.5262700             -14.3205
        81        1.9982           -0.5243534             -14.2684
        82        1.9979           -0.5218802             -14.2011
        83        1.9977           -0.5203129             -14.1584
        84        1.9972           -0.5175867             -14.0843
        85        1.9956           -0.5103458             -13.8872
        86        1.9906           -0.4982236             -13.5574
        87        1.9701           -0.4797399             -13.0544
        88        1.9252           -0.4648454             -12.6491
        89        1.8500           -0.4531913             -12.3320
        90        1.7754           -0.4461534             -12.1405 (HOMO)
        91        0.5002           -0.3960293             -10.7765 (LUMO)
        92        0.0069           -0.3237855              -8.8107
        93        0.0024           -0.3067381              -8.3468
        94        0.0019           -0.3031911              -8.2503
        95        0.0017           -0.3010103              -8.1909
        96        0.0000           -0.1942725              -5.2864
        97        0.0000           -0.1785518              -4.8586
        98                         -0.1118038              -3.0423
        99                         -0.1010116              -2.7487
       100                         -0.0701650              -1.9093
       101                         -0.0649530              -1.7675
       ...                                ...                  ...
       171                          1.9985038              54.3821
      -------------------------------------------------------------
                  HL-Gap            0.0501241 Eh            1.3639 eV

     #   Z          covCN         q      C6AA      α(0)
     1   7 N        2.741    -0.053    22.266     7.008
     2   6 C        2.968     0.003    27.966     8.674
     3   6 C        3.944     0.015    20.263     6.397
     4   6 C        3.064    -0.013    28.283     8.721
     5   6 C        2.911    -0.073    29.819     8.954
     6   6 C        2.866     0.128    25.197     8.228
     7   8 O        1.706    -0.222    17.684     5.678
     8   6 C        3.645     0.024    20.504     6.508
     9   6 C        2.869     0.132    25.107     8.214
    10   8 O        1.706    -0.225    17.727     5.685
    11   6 C        3.646     0.025    20.479     6.504
    12   6 C        2.907    -0.093    30.333     9.031
    13   6 C        3.032     0.039    27.104     8.540
    14   6 C        3.804    -0.066    21.757     6.640
    15   6 C        3.800    -0.075    21.933     6.668
    16   6 C        3.748    -0.039    21.343     6.589
    17   7 N        2.725    -0.143    24.103     7.292
    18   6 C        3.748     0.007    20.531     6.463
    19   6 C        3.809    -0.072    21.874     6.658
    20   6 C        2.968     0.008    27.838     8.654
    21   6 C        2.922    -0.046    29.145     8.853
    22   6 C        2.913    -0.067    29.659     8.930
    23   6 C        2.865     0.133    25.093     8.211
    24   8 O        1.706    -0.222    17.680     5.677
    25   6 C        3.645     0.025    20.480     6.504
    26   6 C        2.862     0.133    25.085     8.210
    27   8 O        1.706    -0.224    17.719     5.683
    28   6 C        3.645     0.027    20.449     6.500
    29   6 C        2.920    -0.077    29.914     8.969
    30   6 C        3.701    -0.043    21.505     6.631
    31   6 C        3.851    -0.009    20.710     6.473
    32   6 C        3.755    -0.113    22.715     6.796
    33   6 C        3.755    -0.117    22.803     6.809
    34   1 H        0.926     0.061     2.190     2.314
    35   1 H        0.924     0.055     2.258     2.350
    36   1 H        0.925     0.084     1.940     2.178
    37   1 H        0.924     0.053     2.284     2.364
    38   1 H        0.924     0.053     2.283     2.363
    39   1 H        0.925     0.084     1.942     2.179
    40   1 H        0.924     0.049     2.327     2.385
    41   1 H        0.926     0.054     2.269     2.355
    42   1 H        0.930     0.103     1.760     2.074
    43   1 H        0.924     0.060     2.201     2.320
    44   1 H        0.925     0.056     2.246     2.344
    45   1 H        0.925     0.047     2.356     2.400
    46   1 H        0.925     0.059     2.210     2.325
    47   1 H        0.927     0.065     2.136     2.285
    48   1 H        0.922     0.038     2.471     2.458
    49   1 H        0.923     0.027     2.632     2.537
    50   1 H        0.924     0.046     2.372     2.409
    51   1 H        0.925     0.063     2.165     2.301
    52   1 H        0.925     0.051     2.310     2.377
    53   1 H        0.926     0.050     2.314     2.379
    54   1 H        0.926     0.057     2.228     2.334
    55   1 H        0.924     0.054     2.271     2.356
    56   1 H        0.924     0.056     2.243     2.342
    57   1 H        0.925     0.081     1.965     2.192
    58   1 H        0.925     0.081     1.973     2.196
    59   1 H        0.924     0.050     2.324     2.384
    60   1 H        0.924     0.054     2.274     2.358
    61   1 H        0.926     0.050     2.322     2.383
    62   1 H        0.924     0.054     2.268     2.355
    63   1 H        0.923     0.026     2.642     2.542
    64   1 H        0.925     0.056     2.249     2.345
    65   1 H        0.924     0.049     2.334     2.389
    66   1 H        0.925     0.040     2.449     2.447
    67   1 H        0.925     0.038     2.469     2.457
    68   1 H        0.925     0.055     2.258     2.350
    69   1 H        0.925     0.043     2.413     2.429
    70   1 H        0.925     0.047     2.352     2.398
    71   1 H        0.925     0.059     2.215     2.327
    72   1 H        0.860     0.185     1.185     1.705

Wiberg/Mayer (AO) data.
largest (>0.10) Wiberg bond orders for each atom

     #   Z sym  total        # sym  WBO       # sym  WBO       # sym  WBO
 ---------------------------------------------------------------------------
     1   7 N    3.501 --     2 C    1.352    13 C    1.110    72 H    0.935
     2   6 C    3.526 --     1 N    1.352     3 C    1.041    47 H    0.967
     3   6 C    3.983 --     2 C    1.041     4 C    0.997    14 C    0.938
                            31 C    0.906
     4   6 C    3.923 --     5 C    1.411    13 C    1.302     3 C    0.997
     5   6 C    3.970 --     4 C    1.411     6 C    1.374    34 H    0.960
     6   6 C    3.879 --     5 C    1.374     9 C    1.214     7 O    1.111
     7   8 O    2.258 --     6 C    1.111     8 C    0.975
     8   6 C    3.929 --    36 H    0.977     7 O    0.975    35 H    0.974
                            37 H    0.973
     9   6 C    3.920 --    12 C    1.408     6 C    1.214    10 O    1.108
    10   8 O    2.269 --     9 C    1.108    11 C    0.976
    11   6 C    3.931 --    39 H    0.977    10 O    0.976    38 H    0.974
                            40 H    0.974
    12   6 C    3.932 --     9 C    1.408    13 C    1.327    41 H    0.962
    13   6 C    3.932 --    12 C    1.327     4 C    1.302     1 N    1.110
    14   6 C    3.958 --    15 C    1.009    44 H    0.972    43 H    0.969
                             3 C    0.938
    15   6 C    3.983 --    14 C    1.009    16 C    0.990    46 H    0.975
                            45 H    0.971
    16   6 C    3.961 --    15 C    0.990    17 N    0.979    42 H    0.972
                            48 H    0.970
    17   7 N    3.072 --    30 C    1.018    18 C    1.009    16 C    0.979
    18   6 C    3.968 --    17 N    1.009    19 C    0.973    50 H    0.970
                            49 H    0.959
    19   6 C    3.981 --    20 C    1.014    18 C    0.973    51 H    0.969
                            52 H    0.968
    20   6 C    3.933 --    21 C    1.395    29 C    1.385    19 C    1.014
    21   6 C    3.935 --    22 C    1.424    20 C    1.395    53 H    0.967
    22   6 C    3.954 --    21 C    1.424    23 C    1.377    54 H    0.963
    23   6 C    3.880 --    22 C    1.377    26 C    1.218    24 O    1.108
    24   8 O    2.244 --    23 C    1.108    25 C    0.977
    25   6 C    3.928 --    57 H    0.977    24 O    0.977    55 H    0.972
                            56 H    0.972
    26   6 C    3.886 --    29 C    1.390    23 C    1.218    27 O    1.103
    27   8 O    2.246 --    26 C    1.103    28 C    0.979
    28   6 C    3.931 --    27 O    0.979    58 H    0.977    59 H    0.973
                            60 H    0.973
    29   6 C    3.955 --    26 C    1.390    20 C    1.385    61 H    0.962
    30   6 C    3.974 --    17 N    1.018    64 H    0.978    62 H    0.974
                            63 H    0.970
    31   6 C    3.947 --    33 C    1.011    32 C    1.010    65 H    0.963
                             3 C    0.906
    32   6 C    3.990 --    31 C    1.010    66 H    0.984    67 H    0.983
                            68 H    0.983
    33   6 C    3.990 --    31 C    1.011    69 H    0.985    70 H    0.983
                            71 H    0.979
    34   1 H    0.995 --     5 C    0.960
    35   1 H    0.993 --     8 C    0.974
    36   1 H    0.992 --     8 C    0.977
    37   1 H    0.993 --     8 C    0.973
    38   1 H    0.995 --    11 C    0.974
    39   1 H    0.992 --    11 C    0.977
    40   1 H    0.995 --    11 C    0.974
    41   1 H    0.996 --    12 C    0.962
    42   1 H    0.983 --    16 C    0.972
    43   1 H    0.993 --    14 C    0.969
    44   1 H    0.996 --    14 C    0.972
    45   1 H    0.997 --    15 C    0.971
    46   1 H    0.994 --    15 C    0.975
    47   1 H    0.995 --     2 C    0.967
    48   1 H    0.998 --    16 C    0.970
    49   1 H    0.981 --    18 C    0.959
    50   1 H    0.997 --    18 C    0.970
    51   1 H    0.993 --    19 C    0.969
    52   1 H    0.996 --    19 C    0.968
    53   1 H    0.996 --    21 C    0.967
    54   1 H    0.995 --    22 C    0.963
    55   1 H    0.991 --    25 C    0.972
    56   1 H    0.990 --    25 C    0.972
    57   1 H    0.993 --    25 C    0.977
    58   1 H    0.993 --    28 C    0.977
    59   1 H    0.992 --    28 C    0.973
    60   1 H    0.992 --    28 C    0.973
    61   1 H    0.996 --    29 C    0.962
    62   1 H    0.989 --    30 C    0.974
    63   1 H    0.984 --    30 C    0.970
    64   1 H    0.997 --    30 C    0.978
    65   1 H    0.995 --    31 C    0.963
    66   1 H    0.998 --    32 C    0.984
    67   1 H    0.998 --    32 C    0.983
    68   1 H    0.996 --    32 C    0.983
    69   1 H    0.997 --    33 C    0.985
    70   1 H    0.997 --    33 C    0.983
    71   1 H    0.994 --    33 C    0.979
    72   1 H    0.965 --     1 N    0.935
 ---------------------------------------------------------------------------

molecular dipole:
                 x           y           z       tot (Debye)
 q only:       -0.806       0.620       0.657
   full:       -0.743       0.651       1.135       3.824

           -------------------------------------------------
          | TOTAL ENERGY             -105.680319992814 Eh   |
          | GRADIENT NORM               0.003435376960 Eh/α |
          | HOMO-LUMO GAP               1.363947045626 eV   |
           -------------------------------------------------

 * finished run on 2024/04/06 at 11:16:38.291
