   * xtb version 6.6.1 (8d0f1dd) compiled by 'conda@1efc2f54142f' on 2023-08-01
          program call               : xtb xtbopt.xyz --opt crude --input .xc2 --gfn2

   ID    Z sym.   atoms
    1    7 N      1, 17
    2    6 C      2-6, 8, 9, 11-16, 18-23, 25, 26, 28-33
    3    8 O      7, 10, 24, 27
    4    1 H      34-72
########################################################################
[WARNING] Please study the warnings concerning your input carefully
-1- readin_getIntValue: could not parse ''
########################################################################

          :  Hamiltonian                  GFN2-xTB          :
 * total energy  :   -99.1876686 Eh     change       -0.3396394E-11 Eh
 * total energy  :   -99.4549520 Eh     change       -0.2672833E+00 Eh
 * total energy  :   -99.4576231 Eh     change       -0.2671170E-02 Eh
 * total energy  :   -99.4584676 Eh     change       -0.8444504E-03 Eh
 * total energy  :   -99.4589390 Eh     change       -0.4714189E-03 Eh
 * total energy  :   -99.4591720 Eh     change       -0.2329777E-03 Eh
   *** GEOMETRY OPTIMIZATION CONVERGED AFTER 6 ITERATIONS ***

 final structure:
================
72
 xtb: 6.6.1 (8d0f1dd)
N           -2.56364911139673        0.87329164055879        2.17416403458210
C           -2.43211740935356        2.05671569934213        1.56442694507444
C           -3.20368137332339        2.08313580361938        0.29033517114248
C           -3.73625331191792        0.67333828279082        0.25841036115990
C           -4.52928547532527        0.02404237339849       -0.66752766846827
C           -4.88066905083728       -1.30386259487371       -0.44185323830437
O           -5.65188332806399       -2.04831461445706       -1.25651801246166
C           -6.22589322875430       -1.45121873805937       -2.39662512336408
C           -4.41885722863549       -1.98704028066125        0.72439808572222
O           -4.81148838951712       -3.27194644381780        0.81278637283048
C           -4.44490851221662       -4.02534803113144        1.94530919120244
C           -3.63489077293409       -1.32681203101846        1.65835894998217
C           -3.31581948737200        0.00296080707040        1.41068200406135
C           -2.33019237881499        2.42013758207445       -0.94609789789219
C           -1.42042032846447        1.28732878469557       -1.42132928280350
C           -0.27418912520591        0.98079918572353       -0.45085225132670
N            0.62484102541209       -0.01414563144217       -0.99579680862451
C            1.97590504843617        0.00597674545225       -0.47679235538239
C            2.98932666018942       -0.43235098575404       -1.54933511440969
C            4.39073834810117       -0.22968727301772       -1.05400047064936
C            5.01770403945518        1.00016367110071       -1.19587127419656
C            6.30130927633943        1.20531663002724       -0.71693532345579
C            6.98912412723047        0.18155478233924       -0.07944384840576
O            8.23694636818308        0.26651645716079        0.42060363990198
C            8.94751716346124        1.47576960977186        0.28912991421075
C            6.35546905250356       -1.08270831722211        0.07460930619009
O            7.09391109678295       -2.02148568649345        0.70043823568071
C            6.56799654386091       -3.31729308256029        0.86086605183190
C            5.06897523881646       -1.26189496362446       -0.41166125175445
C            0.03472405987586       -1.33106968826609       -1.06915208175586
C           -4.39374802200652        3.10055938053027        0.37754163396443
C           -5.25830721320550        2.81945406243033        1.60548094778245
C           -3.93232912682645        4.55403443682858        0.39290486503282
H           -4.86767862749348        0.54138233240643       -1.54977914865832
H           -6.86988017512329       -0.60924029305129       -2.12527606150048
H           -6.82773551604391       -2.22974867894870       -2.86110527702816
H           -5.46111232388636       -1.11572041505409       -3.10383312892581
H           -4.82565736652662       -3.57517311658459        2.86703630990573
H           -4.90314762881933       -5.00242416996847        1.80627556431397
H           -3.35878197700467       -4.14240430850126        2.01456944280087
H           -3.28441811512461       -1.81818227909295        2.55065145709729
H           -0.68802724675234        0.64093591078581        0.50929565351213
H           -3.00319639026472        2.67696553471847       -1.76504982931093
H           -1.72346243208813        3.29604115332533       -0.71713078100525
H           -2.01517798260760        0.38985616698580       -1.58722733548816
H           -0.98028623193641        1.57928428753569       -2.37640948156486
H           -1.86448720859676        2.85826497505300        1.99156090284911
H            0.29442893763969        1.90193830570473       -0.29139471884591
H            2.08303014961871       -0.63793591100944        0.41061010566923
H            2.22183296239923        1.02698958608964       -0.17815273941017
H            2.81590134809411        0.16805931619547       -2.44265162582052
H            2.83235050361008       -1.47988916288215       -1.80571817679571
H            4.50498753302799        1.80794121484893       -1.69515453931771
H            6.76344374386975        2.16987167301710       -0.84998000606690
H            8.44203284463531        2.29609718629054        0.80819092337516
H            9.09210010650383        1.74282953677450       -0.76215737724948
H            9.91593622698219        1.29782878195325        0.75286323496133
H            7.34819409568568       -3.88984001130966        1.35905398867550
H            5.66901157208097       -3.31135845860430        1.48575110167516
H            6.33954855556198       -3.77984725871147       -0.10438372936707
H            4.58105637285660       -2.21795953665678       -0.30406300560234
H           -0.65769815583861       -1.38377835017445       -1.90899001649831
H           -0.51804550808836       -1.58190191034473       -0.15095006983285
H            0.80658081391602       -2.07968177659698       -1.22250505182927
H           -5.00220527739081        2.93612838946020       -0.51720563635688
H           -4.70952087178741        3.03164210934952        2.52046376483036
H           -5.58835332438107        1.78368160837114        1.62794563598860
H           -6.13958009057046        3.45491511183978        1.58577088759497
H           -3.26180088163415        4.74530707625891        1.22631754802545
H           -3.43327613770302        4.83135086036773       -0.53047484270311
H           -4.79985098631612        5.19948416506367        0.50698664643453
H           -2.15644488788066        0.63651230499859        3.06686054718507

          :  Hamiltonian                  GFN2-xTB          :
         :: total energy             -99.459171980739 Eh    ::
         :: gradient norm              0.005715616892 Eh/a0 ::
         :: HOMO-LUMO gap              1.379779311095 eV    ::
         :: SCC energy              -100.813353685269 Eh    ::
         :: -> dispersion             -0.073757196073 Eh    ::
         :: repulsion energy           1.352908650139 Eh    ::

    * Orbital Energies and Occupations

         #    Occupation            Energy/Eh            Energy/eV
      -------------------------------------------------------------
         1        2.0000           -0.8138105             -22.1449
       ...           ...                  ...                  ...
        78        1.9989           -0.5323723             -14.4866
        79        1.9986           -0.5289468             -14.3934
        80        1.9984           -0.5259761             -14.3125
        81        1.9982           -0.5245497             -14.2737
        82        1.9979           -0.5219676             -14.2035
        83        1.9976           -0.5200964             -14.1525
        84        1.9972           -0.5175660             -14.0837
        85        1.9956           -0.5103483             -13.8873
        86        1.9904           -0.4980833             -13.5535
        87        1.9700           -0.4797798             -13.0555
        88        1.9238           -0.4646637             -12.6441
        89        1.8595           -0.4544324             -12.3657
        90        1.7777           -0.4464577             -12.1487 (HOMO)
        91        0.4908           -0.3957517             -10.7690 (LUMO)
        92        0.0068           -0.3237029              -8.8084
        93        0.0023           -0.3066740              -8.3450
        94        0.0019           -0.3032045              -8.2506
        95        0.0016           -0.3010207              -8.1912
        96        0.0000           -0.1942807              -5.2866
        97        0.0000           -0.1784000              -4.8545
        98                         -0.1032202              -2.8088
        99                         -0.0944859              -2.5711
       100                         -0.0697689              -1.8985
       101                         -0.0649357              -1.7670
       ...                                ...                  ...
       171                          0.5826743              15.8554
      -------------------------------------------------------------
                  HL-Gap            0.0507060 Eh            1.3798 eV

     #   Z          covCN         q      C6AA      α(0)
     1   7 N        2.740    -0.052    22.255     7.007
     2   6 C        2.969     0.007    27.864     8.658
     3   6 C        3.943     0.015    20.253     6.395
     4   6 C        3.063    -0.013    28.268     8.719
     5   6 C        2.911    -0.073    29.818     8.954
     6   6 C        2.866     0.128    25.195     8.228
     7   8 O        1.706    -0.221    17.676     5.676
     8   6 C        3.645     0.024    20.502     6.508
     9   6 C        2.869     0.132    25.106     8.214
    10   8 O        1.706    -0.224    17.723     5.684
    11   6 C        3.645     0.025    20.481     6.504
    12   6 C        2.906    -0.092    30.320     9.029
    13   6 C        3.032     0.040    27.071     8.534
    14   6 C        3.804    -0.065    21.745     6.639
    15   6 C        3.801    -0.072    21.874     6.659
    16   6 C        3.753     0.000    20.632     6.477
    17   7 N        2.727    -0.127    23.757     7.239
    18   6 C        3.752     0.004    20.563     6.467
    19   6 C        3.809    -0.072    21.870     6.657
    20   6 C        2.968     0.008    27.832     8.654
    21   6 C        2.922    -0.046    29.143     8.853
    22   6 C        2.913    -0.067    29.658     8.930
    23   6 C        2.865     0.133    25.093     8.211
    24   8 O        1.706    -0.222    17.677     5.677
    25   6 C        3.645     0.025    20.480     6.504
    26   6 C        2.862     0.133    25.083     8.209
    27   8 O        1.706    -0.224    17.715     5.683
    28   6 C        3.645     0.027    20.451     6.500
    29   6 C        2.920    -0.077    29.913     8.969
    30   6 C        3.705    -0.044    21.513     6.631
    31   6 C        3.852    -0.009    20.710     6.473
    32   6 C        3.755    -0.113    22.719     6.796
    33   6 C        3.755    -0.117    22.806     6.809
    34   1 H        0.926     0.061     2.190     2.314
    35   1 H        0.924     0.055     2.258     2.350
    36   1 H        0.925     0.084     1.940     2.178
    37   1 H        0.924     0.053     2.286     2.364
    38   1 H        0.924     0.053     2.281     2.362
    39   1 H        0.925     0.084     1.942     2.179
    40   1 H        0.924     0.050     2.324     2.384
    41   1 H        0.926     0.055     2.261     2.351
    42   1 H        0.923     0.018     2.763     2.600
    43   1 H        0.924     0.060     2.199     2.319
    44   1 H        0.925     0.056     2.248     2.345
    45   1 H        0.925     0.049     2.333     2.388
    46   1 H        0.924     0.060     2.193     2.316
    47   1 H        0.926     0.066     2.131     2.283
    48   1 H        0.924     0.045     2.384     2.415
    49   1 H        0.923     0.029     2.604     2.523
    50   1 H        0.924     0.046     2.369     2.407
    51   1 H        0.924     0.063     2.166     2.302
    52   1 H        0.925     0.051     2.306     2.374
    53   1 H        0.926     0.050     2.314     2.379
    54   1 H        0.926     0.058     2.227     2.334
    55   1 H        0.924     0.054     2.270     2.356
    56   1 H        0.924     0.056     2.243     2.342
    57   1 H        0.925     0.081     1.964     2.192
    58   1 H        0.925     0.081     1.972     2.196
    59   1 H        0.924     0.050     2.322     2.383
    60   1 H        0.924     0.054     2.273     2.358
    61   1 H        0.926     0.050     2.318     2.381
    62   1 H        0.925     0.054     2.267     2.354
    63   1 H        0.923     0.026     2.642     2.542
    64   1 H        0.925     0.057     2.229     2.335
    65   1 H        0.924     0.049     2.331     2.388
    66   1 H        0.925     0.040     2.450     2.448
    67   1 H        0.925     0.039     2.465     2.455
    68   1 H        0.925     0.055     2.253     2.347
    69   1 H        0.925     0.043     2.411     2.428
    70   1 H        0.925     0.048     2.351     2.398
    71   1 H        0.925     0.059     2.211     2.325
    72   1 H        0.860     0.186     1.181     1.702

Wiberg/Mayer (AO) data.
largest (>0.10) Wiberg bond orders for each atom

     #   Z sym  total        # sym  WBO       # sym  WBO       # sym  WBO
 ---------------------------------------------------------------------------
     1   7 N    3.504 --     2 C    1.352    13 C    1.109    72 H    0.935
     2   6 C    3.532 --     1 N    1.352     3 C    1.042    47 H    0.966
     3   6 C    3.983 --     2 C    1.042     4 C    0.997    14 C    0.939
                            31 C    0.903
     4   6 C    3.923 --     5 C    1.411    13 C    1.302     3 C    0.997
     5   6 C    3.970 --     4 C    1.411     6 C    1.374    34 H    0.960
     6   6 C    3.880 --     5 C    1.374     9 C    1.214     7 O    1.111
     7   8 O    2.258 --     6 C    1.111     8 C    0.975
     8   6 C    3.929 --    36 H    0.977     7 O    0.975    35 H    0.974
                            37 H    0.973
     9   6 C    3.920 --    12 C    1.408     6 C    1.214    10 O    1.108
    10   8 O    2.269 --     9 C    1.108    11 C    0.976
    11   6 C    3.931 --    39 H    0.977    10 O    0.976    40 H    0.974
                            38 H    0.974
    12   6 C    3.932 --     9 C    1.408    13 C    1.328    41 H    0.962
    13   6 C    3.931 --    12 C    1.328     4 C    1.302     1 N    1.109
    14   6 C    3.959 --    15 C    1.008    44 H    0.972    43 H    0.970
                             3 C    0.939
    15   6 C    3.985 --    14 C    1.008    16 C    0.998    46 H    0.971
                            45 H    0.970
    16   6 C    3.975 --    17 N    1.006    15 C    0.998    48 H    0.970
                            42 H    0.952
    17   7 N    3.101 --    30 C    1.017    16 C    1.006    18 C    1.005
    18   6 C    3.968 --    17 N    1.005    19 C    0.974    50 H    0.970
                            49 H    0.960
    19   6 C    3.981 --    20 C    1.014    18 C    0.974    51 H    0.969
                            52 H    0.968
    20   6 C    3.933 --    21 C    1.395    29 C    1.385    19 C    1.014
    21   6 C    3.935 --    22 C    1.424    20 C    1.395    53 H    0.967
    22   6 C    3.954 --    21 C    1.424    23 C    1.377    54 H    0.963
    23   6 C    3.879 --    22 C    1.377    26 C    1.217    24 O    1.108
    24   8 O    2.244 --    23 C    1.108    25 C    0.977
    25   6 C    3.928 --    57 H    0.977    24 O    0.977    55 H    0.972
                            56 H    0.972
    26   6 C    3.886 --    29 C    1.390    23 C    1.217    27 O    1.104
    27   8 O    2.246 --    26 C    1.104    28 C    0.979
    28   6 C    3.931 --    27 O    0.979    58 H    0.977    59 H    0.973
                            60 H    0.973
    29   6 C    3.955 --    26 C    1.390    20 C    1.385    61 H    0.962
    30   6 C    3.974 --    17 N    1.017    64 H    0.978    62 H    0.975
                            63 H    0.968
    31   6 C    3.946 --    33 C    1.011    32 C    1.010    65 H    0.963
                             3 C    0.903
    32   6 C    3.990 --    31 C    1.010    66 H    0.984    67 H    0.983
                            68 H    0.983
    33   6 C    3.989 --    31 C    1.011    69 H    0.985    70 H    0.983
                            71 H    0.979
    34   1 H    0.995 --     5 C    0.960
    35   1 H    0.993 --     8 C    0.974
    36   1 H    0.992 --     8 C    0.977
    37   1 H    0.993 --     8 C    0.973
    38   1 H    0.995 --    11 C    0.974
    39   1 H    0.992 --    11 C    0.977
    40   1 H    0.995 --    11 C    0.974
    41   1 H    0.996 --    12 C    0.962
    42   1 H    0.984 --    16 C    0.952
    43   1 H    0.994 --    14 C    0.970
    44   1 H    0.996 --    14 C    0.972
    45   1 H    0.997 --    15 C    0.970
    46   1 H    0.994 --    15 C    0.971
    47   1 H    0.995 --     2 C    0.966
    48   1 H    0.997 --    16 C    0.970
    49   1 H    0.983 --    18 C    0.960
    50   1 H    0.997 --    18 C    0.970
    51   1 H    0.993 --    19 C    0.969
    52   1 H    0.996 --    19 C    0.968
    53   1 H    0.996 --    21 C    0.967
    54   1 H    0.995 --    22 C    0.963
    55   1 H    0.991 --    25 C    0.972
    56   1 H    0.990 --    25 C    0.972
    57   1 H    0.993 --    25 C    0.977
    58   1 H    0.993 --    28 C    0.977
    59   1 H    0.992 --    28 C    0.973
    60   1 H    0.992 --    28 C    0.973
    61   1 H    0.996 --    29 C    0.962
    62   1 H    0.991 --    30 C    0.975
    63   1 H    0.985 --    30 C    0.968
    64   1 H    0.996 --    30 C    0.978
    65   1 H    0.995 --    31 C    0.963
    66   1 H    0.998 --    32 C    0.984
    67   1 H    0.998 --    32 C    0.983
    68   1 H    0.996 --    32 C    0.983
    69   1 H    0.997 --    33 C    0.985
    70   1 H    0.997 --    33 C    0.983
    71   1 H    0.994 --    33 C    0.979
    72   1 H    0.965 --     1 N    0.935
 ---------------------------------------------------------------------------

molecular dipole:
                 x           y           z       tot (Debye)
 q only:       -0.798       0.620       0.585
   full:       -0.751       0.672       1.091       3.776

           -------------------------------------------------
          | TOTAL ENERGY              -99.459171980739 Eh   |
          | GRADIENT NORM               0.005715616892 Eh/α |
          | HOMO-LUMO GAP               1.379779311095 eV   |
           -------------------------------------------------

 * finished run on 2024/04/06 at 11:16:39.554
