   * xtb version 6.6.1 (8d0f1dd) compiled by 'conda@1efc2f54142f' on 2023-08-01
          program call               : xtb xtbopt.xyz --opt crude --input .xc2 --gfn2

   ID    Z sym.   atoms
    1    6 C      1, 3, 5-7, 10, 11, 14
    2    7 N      2, 4, 9, 13
    3    8 O      8, 12
    4    1 H      15-25
########################################################################
[WARNING] Please study the warnings concerning your input carefully
-1- readin_getIntValue: could not parse ''
########################################################################

          :  Hamiltonian                  GFN2-xTB          :
 * total energy  :   -42.1198241 Eh     change       -0.1705303E-12 Eh
 * total energy  :   -42.1434301 Eh     change       -0.2360602E-01 Eh
 * total energy  :   -42.1581054 Eh     change       -0.1467529E-01 Eh
 * total energy  :   -42.1628200 Eh     change       -0.4714633E-02 Eh
 * total energy  :   -42.1642616 Eh     change       -0.1441537E-02 Eh
 * total energy  :   -42.1654957 Eh     change       -0.1234178E-02 Eh
 * total energy  :   -42.1664154 Eh     change       -0.9196266E-03 Eh
 * total energy  :   -42.1668835 Eh     change       -0.4681556E-03 Eh
 * total energy  :   -42.1672691 Eh     change       -0.3855963E-03 Eh
 * total energy  :   -42.1676036 Eh     change       -0.3344387E-03 Eh
 * total energy  :   -42.1677424 Eh     change       -0.1388453E-03 Eh
 * total energy  :   -42.1679389 Eh     change       -0.1965032E-03 Eh
   *** GEOMETRY OPTIMIZATION CONVERGED AFTER 12 ITERATIONS ***

 final structure:
================
25
 xtb: 6.6.1 (8d0f1dd)
C            3.18039289491150        1.22854694126643       -0.09928308170217
N            2.29229196099597        0.09733469610822       -0.06297573260339
C            2.63939936947282       -1.18762141102982       -0.10225426494274
N            1.53186081419175       -1.96485148823052       -0.04321231924176
C            0.44315199843148       -1.13848564502553        0.03124905548621
C            0.92254916374487        0.16106157467142        0.02992290244290
C            0.03256556421307        1.30371018043388        0.11562055140406
O            0.36157413573015        2.46511904657320        0.11358862497870
N           -1.30513693896942        0.86615316407220        0.22275849762606
C           -2.34463511176768        1.92442124175632        0.27029414228394
C           -1.75810817134952       -0.38969682657643        0.20765311214316
O           -2.96750272664267        2.06353881534020       -0.94843419227902
N           -0.88448355615964       -1.40821732248067        0.10630832424537
C           -1.37345985075491       -2.77077083056778        0.07455288455009
H            3.70994618182140        1.32659446421040        0.84994322500009
H            3.90986301508157        1.10747580456748       -0.89907640698959
H            2.59254104077756        2.13090395830391       -0.26662442653905
H            3.64255274250371       -1.55862982819335       -0.17079791579599
H           -1.83261153378804        2.86684786327831        0.48752836120024
H           -3.59657812466068        1.34492768479053       -1.10000938426934
H           -3.03256963419754        1.65910752795476        1.08495095307812
H           -1.02749095768081       -3.32582577740514        0.94738032410593
H           -1.04130389455429       -3.27215224126935       -0.83470873030751
H           -2.46004895805242       -2.73686072416791        0.08553814562558
H            1.52567209079978       -2.97439232678408       -0.06874103159861

          :  Hamiltonian                  GFN2-xTB          :
         :: total energy             -42.167938915290 Eh    ::
         :: gradient norm              0.006691180981 Eh/a0 ::
         :: HOMO-LUMO gap              2.200154154954 eV    ::
         :: SCC energy               -42.671663747755 Eh    ::
         :: -> dispersion             -0.022284582902 Eh    ::
         :: repulsion energy           0.503612688590 Eh    ::

    * Orbital Energies and Occupations

         #    Occupation            Energy/Eh            Energy/eV
      -------------------------------------------------------------
         1        2.0000           -0.9092113             -24.7409
       ...           ...                  ...                  ...
        25        2.0000           -0.6721631             -18.2905
        26        2.0000           -0.6541580             -17.8005
        27        2.0000           -0.6499008             -17.6847
        28        1.9999           -0.6317705             -17.1914
        29        1.9999           -0.6281441             -17.0927
        30        1.9999           -0.6254289             -17.0188
        31        1.9997           -0.6154536             -16.7473
        32        1.9995           -0.6046067             -16.4522
        33        1.9973           -0.5786062             -15.7447
        34        1.9946           -0.5677075             -15.4481
        35        1.9901           -0.5581363             -15.1877
        36        1.9867           -0.5534149             -15.0592
        37        1.8529           -0.5142561             -13.9936 (HOMO)
        38        0.1418           -0.4334019             -11.7935 (LUMO)
        39        0.0306           -0.4082209             -11.1083
        40        0.0072           -0.3851089             -10.4793
        41        0.0000           -0.2860097              -7.7827
        42                         -0.1975487              -5.3756
        43                         -0.1890870              -5.1453
        44                         -0.1352723              -3.6809
        45                         -0.1305829              -3.5533
        46                         -0.0699698              -1.9040
        47                         -0.0435460              -1.1849
        48                         -0.0308235              -0.8388
       ...                                ...                  ...
        67                          0.5394754              14.6799
      -------------------------------------------------------------
                  HL-Gap            0.0808542 Eh            2.2002 eV

     #   Z          covCN         q      C6AA      α(0)
     1   6 C        3.691    -0.091    22.429     6.777
     2   7 N        2.829     0.074    19.949     6.634
     3   6 C        3.050     0.051    26.812     8.492
     4   7 N        2.790    -0.065    22.493     7.044
     5   6 C        3.052     0.105    25.626     8.302
     6   6 C        3.119    -0.007    28.031     8.672
     7   6 C        2.763     0.267    22.487     7.766
     8   8 O        0.857    -0.363    20.964     6.139
     9   7 N        2.748    -0.043    22.078     6.979
    10   6 C        3.631     0.129    18.859     6.252
    11   6 C        1.898    -0.083    33.392     9.333
    12   8 O        1.657    -0.389    20.643     6.133
    13   7 N        2.743     0.028    20.757     6.767
    14   6 C        3.704    -0.078    22.153     6.729
    15   1 H        0.924     0.107     1.720     2.051
    16   1 H        0.925     0.103     1.757     2.073
    17   1 H        0.925     0.135     1.499     1.915
    18   1 H        0.926     0.121     1.603     1.980
    19   1 H        0.924     0.110     1.695     2.036
    20   1 H        0.805     0.319     0.668     1.283
    21   1 H        0.923     0.067     2.115     2.274
    22   1 H        0.924     0.081     1.965     2.192
    23   1 H        0.925     0.079     1.984     2.203
    24   1 H        0.925     0.116     1.645     2.006
    25   1 H        0.860     0.226     0.981     1.552

Wiberg/Mayer (AO) data.
largest (>0.10) Wiberg bond orders for each atom

     #   Z sym  total        # sym  WBO       # sym  WBO       # sym  WBO
 ---------------------------------------------------------------------------
     1   6 C    3.917 --     2 N    0.986    16 H    0.965    17 H    0.961
                            15 H    0.956
     2   7 N    3.662 --     3 C    1.377     6 C    1.161     1 C    0.986
     3   6 C    3.826 --     2 N    1.377     4 N    1.271    18 H    0.954
     4   7 N    3.572 --     3 C    1.271     5 C    1.183    25 H    0.921
     5   6 C    3.935 --     6 C    1.370     4 N    1.183    13 N    1.177
     6   6 C    3.919 --     5 C    1.370     2 N    1.161     7 C    1.074
     7   6 C    3.928 --     8 O    1.705     6 C    1.074     9 N    1.052
     8   8 O    2.033 --     7 C    1.705     9 N    0.129
     9   7 N    3.616 --    11 C    1.377     7 C    1.052    10 C    0.919
                             8 O    0.129
    10   6 C    3.916 --    12 O    1.051    21 H    0.957    19 H    0.953
                             9 N    0.919
    11   6 C    2.861 --     9 N    1.377    13 N    1.282
    12   8 O    2.016 --    10 C    1.051    20 H    0.882
    13   7 N    3.634 --    11 C    1.282     5 C    1.177    14 C    0.982
    14   6 C    3.938 --    13 N    0.982    24 H    0.972    23 H    0.972
                            22 H    0.970
    15   1 H    0.984 --     1 C    0.956
    16   1 H    0.986 --     1 C    0.965
    17   1 H    0.981 --     1 C    0.961
    18   1 H    0.984 --     3 C    0.954
    19   1 H    0.986 --    10 C    0.953
    20   1 H    0.898 --    12 O    0.882
    21   1 H    0.990 --    10 C    0.957
    22   1 H    0.991 --    14 C    0.970
    23   1 H    0.991 --    14 C    0.972
    24   1 H    0.986 --    14 C    0.972
    25   1 H    0.948 --     4 N    0.921
 ---------------------------------------------------------------------------

molecular dipole:
                 x           y           z       tot (Debye)
 q only:        1.712      -2.647       0.174
   full:        2.248      -3.245       0.237      10.052

           -------------------------------------------------
          | TOTAL ENERGY              -42.167938915290 Eh   |
          | GRADIENT NORM               0.006691180981 Eh/α |
          | HOMO-LUMO GAP               2.200154154954 eV   |
           -------------------------------------------------

 * finished run on 2024/06/05 at 20:00:13.361
