   * xtb version 6.6.1 (8d0f1dd) compiled by 'conda@1efc2f54142f' on 2023-08-01
          program call               : xtb struc.xyz --opt loose --input .xc1 --gfn2

   ID    Z sym.   atoms
    1    6 C      1, 3, 5-7, 10, 11, 14
    2    7 N      2, 4, 9, 13
    3    8 O      8, 12
    4    1 H      15-25
constraining bond 9 20 to    4.0600000 Å, actual value:    2.0954220 Å

          :  Hamiltonian                  GFN2-xTB          :
 * total energy  :   -35.3686703 Eh     change       -0.2401919E-09 Eh
 * total energy  :   -38.3973264 Eh     change       -0.3028656E+01 Eh
 * total energy  :   -40.5948895 Eh     change       -0.2197563E+01 Eh
 * total energy  :   -41.6275590 Eh     change       -0.1032670E+01 Eh
 * total energy  :   -41.8976750 Eh     change       -0.2701160E+00 Eh
 * total energy  :   -41.9290903 Eh     change       -0.3141527E-01 Eh
 * total energy  :   -41.9430351 Eh     change       -0.1394478E-01 Eh
 * total energy  :   -41.9817673 Eh     change       -0.3873224E-01 Eh
 * total energy  :   -41.9993023 Eh     change       -0.1753498E-01 Eh
 * total energy  :   -42.0069320 Eh     change       -0.7629739E-02 Eh
 * total energy  :   -42.1540551 Eh     change       -0.1335609E-02 Eh
 * total energy  :   -42.1509215 Eh     change        0.3133591E-02 Eh
 * total energy  :   -42.1544037 Eh     change       -0.3482207E-02 Eh
 * total energy  :   -42.1541463 Eh     change        0.2574286E-03 Eh
 * total energy  :   -42.1546023 Eh     change       -0.4560229E-03 Eh
 * total energy  :   -42.1545808 Eh     change        0.2149349E-04 Eh
 * total energy  :   -42.1547051 Eh     change       -0.1242964E-03 Eh
 * total energy  :   -42.1547578 Eh     change       -0.5268077E-04 Eh
 * total energy  :   -42.1547961 Eh     change       -0.3832901E-04 Eh
   *** GEOMETRY OPTIMIZATION CONVERGED AFTER 40 ITERATIONS ***

 final structure:
================
25
 xtb: 6.6.1 (8d0f1dd)
C            3.31809195345669        1.04132742796261        0.03132410379359
N            2.40380029428176       -0.06752654944789        0.00657353749526
C            2.71085993326801       -1.36328615670291       -0.02786761944745
N            1.57647075037982       -2.10422694065075       -0.01265923552983
C            0.51135807227637       -1.24662421053919        0.03498575315734
C            1.03755496879605        0.04202971933502        0.04609426420759
C            0.14045425484590        1.20569210310968        0.06206110579196
O            0.53772747237651        2.35802248641828        0.02404153717751
N           -1.15397440316255        0.84778741944495        0.11222194597530
C           -3.14077401639564        3.20803617808207       -0.19506082021968
C           -1.69964794307447       -0.35869611784132        0.12212247491826
O           -2.88409647514678       -0.58386426594721        0.16917250326504
N           -0.79902402940068       -1.50865896534383        0.06434282335659
C           -1.34742118818356       -2.84264925777616        0.04224316609313
H            3.81149571098547        1.10411319722489        1.00334712551507
H            4.07725941910323        0.92680352335220       -0.74159963346488
H            2.75359244434445        1.96021652003458       -0.13420058777312
H            3.70289066912859       -1.76701837052764       -0.06315500035930
H           -2.07627191300309        3.35106557240894       -0.22569091860486
H           -3.79136641612902        3.79207946994590       -0.81754448491007
H           -3.55274717303529        2.45438186795720        0.45108393652365
H           -1.03111395740267       -3.40706127021768        0.92160766199369
H           -1.04881585351637       -3.36784206440510       -0.86646479057499
H           -2.43381551442229       -2.74285584852633        0.05686314717992
H            1.53794445372963       -3.11300692574996       -0.03267037765948

          :  Hamiltonian                  GFN2-xTB          :
         :: total energy             -42.154796116812 Eh    ::
         :: gradient norm              0.003516008616 Eh/a0 ::
         :: HOMO-LUMO gap              1.544872146045 eV    ::
         :: SCC energy               -42.680528433686 Eh    ::
         :: -> dispersion             -0.021465298940 Eh    ::
         :: repulsion energy           0.525704267976 Eh    ::

    * Orbital Energies and Occupations

         #    Occupation            Energy/Eh            Energy/eV
      -------------------------------------------------------------
         1        2.0000           -0.9090608             -24.7368
       ...           ...                  ...                  ...
        25        1.9980           -0.6591516             -17.9364
        26        1.9973           -0.6522347             -17.7482
        27        1.9941           -0.6336200             -17.2417
        28        1.9911           -0.6235135             -16.9667
        29        1.9894           -0.6195438             -16.8586
        30        1.9881           -0.6166235             -16.7792
        31        1.9806           -0.6050548             -16.4644
        32        1.9787           -0.6027784             -16.4024
        33        1.9410           -0.5780875             -15.7306
        34        1.8718           -0.5588137             -15.2061
        35        1.8701           -0.5584722             -15.1968
        36        1.8183           -0.5498279             -14.9616
        37        1.7169           -0.5379375             -14.6380 (HOMO)
        38        0.7142           -0.4811645             -13.0932 (LUMO)
        39        0.1207           -0.4299186             -11.6987
        40        0.0264           -0.3926396             -10.6843
        41        0.0079           -0.3639313              -9.9031
        42        0.0001           -0.2676692              -7.2836
        43        0.0000           -0.1972336              -5.3670
        44        0.0000           -0.1789411              -4.8692
        45        0.0000           -0.1420089              -3.8643
        46                         -0.0832405              -2.2651
        47                         -0.0586506              -1.5960
        48                         -0.0390693              -1.0631
       ...                                ...                  ...
        67                          0.5490806              14.9412
      -------------------------------------------------------------
                  HL-Gap            0.0567730 Eh            1.5449 eV

     #   Z          covCN         q      C6AA      α(0)
     1   6 C        3.691    -0.091    22.430     6.777
     2   7 N        2.827     0.080    19.852     6.617
     3   6 C        3.048     0.050    26.825     8.495
     4   7 N        2.790    -0.066    22.510     7.047
     5   6 C        3.028     0.121    25.320     8.254
     6   6 C        3.120    -0.014    28.188     8.695
     7   6 C        2.763     0.294    22.018     7.684
     8   8 O        0.858    -0.343    20.566     6.080
     9   7 N        1.844    -0.244    27.221     7.732
    10   6 C        2.779    -0.080    29.989     8.970
    11   6 C        2.710     0.335    21.299     7.554
    12   8 O        0.860    -0.331    20.353     6.049
    13   7 N        2.736    -0.063    22.470     7.040
    14   6 C        3.693    -0.067    21.969     6.707
    15   1 H        0.924     0.112     1.682     2.028
    16   1 H        0.925     0.107     1.720     2.051
    17   1 H        0.924     0.139     1.465     1.893
    18   1 H        0.926     0.123     1.586     1.969
    19   1 H        0.926     0.139     1.469     1.895
    20   1 H        0.926     0.131     1.529     1.933
    21   1 H        0.926     0.135     1.495     1.912
    22   1 H        0.924     0.087     1.907     2.160
    23   1 H        0.924     0.086     1.919     2.167
    24   1 H        0.924     0.131     1.527     1.933
    25   1 H        0.860     0.228     0.974     1.546

Wiberg/Mayer (AO) data.
largest (>0.10) Wiberg bond orders for each atom

     #   Z sym  total        # sym  WBO       # sym  WBO       # sym  WBO
 ---------------------------------------------------------------------------
     1   6 C    3.899 --     2 N    0.988    16 H    0.960    17 H    0.954
                            15 H    0.950
     2   7 N    3.655 --     3 C    1.365     6 C    1.170     1 C    0.988
     3   6 C    3.787 --     2 N    1.365     4 N    1.265    18 H    0.953
     4   7 N    3.557 --     3 C    1.265     5 C    1.175    25 H    0.920
     5   6 C    3.922 --     6 C    1.325    13 N    1.252     4 N    1.175
     6   6 C    3.780 --     5 C    1.325     2 N    1.170     7 C    1.013
     7   6 C    3.923 --     8 O    1.609     9 N    1.224     6 C    1.013
     8   8 O    1.869 --     7 C    1.609     9 N    0.115
     9   7 N    2.824 --    11 C    1.280     7 C    1.224     8 O    0.115
                            12 O    0.106
    10   6 C    2.905 --    20 H    0.969    21 H    0.967    19 H    0.964
    11   6 C    3.933 --    12 O    1.650     9 N    1.280    13 N    0.926
    12   8 O    1.925 --    11 C    1.650     9 N    0.106
    13   7 N    3.436 --     5 C    1.252    14 C    0.988    11 C    0.926
    14   6 C    3.902 --    13 N    0.988    23 H    0.959    22 H    0.958
                            24 H    0.955
    15   1 H    0.978 --     1 C    0.950
    16   1 H    0.981 --     1 C    0.960
    17   1 H    0.976 --     1 C    0.954
    18   1 H    0.983 --     3 C    0.953
    19   1 H    0.968 --    10 C    0.964
    20   1 H    0.970 --    10 C    0.969
    21   1 H    0.969 --    10 C    0.967
    22   1 H    0.975 --    14 C    0.958
    23   1 H    0.976 --    14 C    0.959
    24   1 H    0.976 --    14 C    0.955
    25   1 H    0.947 --     4 N    0.920
 ---------------------------------------------------------------------------

molecular dipole:
                 x           y           z       tot (Debye)
 q only:        2.227      -1.559      -0.167
   full:        2.662      -2.237      -0.183       8.850

           -------------------------------------------------
          | TOTAL ENERGY              -42.154796116812 Eh   |
          | GRADIENT NORM               0.003516008616 Eh/α |
          | HOMO-LUMO GAP               1.544872146045 eV   |
           -------------------------------------------------

 * finished run on 2024/06/05 at 19:58:52.037
