   * xtb version 6.6.1 (8d0f1dd) compiled by 'conda@1efc2f54142f' on 2023-08-01
          program call               : xtb struc.xyz --opt loose --input .xc1 --gfn2

   ID    Z sym.   atoms
    1    6 C      1, 3, 5-7, 10, 11, 14
    2    7 N      2, 4, 9, 13
    3    8 O      8, 12
    4    1 H      15-25
constraining bond 6 14 to    6.0000000 Å, actual value:    3.7374765 Å

          :  Hamiltonian                  GFN2-xTB          :
 * total energy  :   -33.1076974 Eh     change       -0.6650680E-10 Eh
 * total energy  :   -36.9286626 Eh     change       -0.3820965E+01 Eh
 * total energy  :   -39.6479627 Eh     change       -0.2719300E+01 Eh
 * total energy  :   -41.1625585 Eh     change       -0.1514596E+01 Eh
 * total energy  :   -41.6684196 Eh     change       -0.5058611E+00 Eh
 * total energy  :   -41.7354656 Eh     change       -0.6704596E-01 Eh
 * total energy  :   -41.7659649 Eh     change       -0.3049930E-01 Eh
 * total energy  :   -41.8161226 Eh     change       -0.5015768E-01 Eh
 * total energy  :   -41.8395993 Eh     change       -0.2347677E-01 Eh
 * total energy  :   -41.8567698 Eh     change       -0.1717045E-01 Eh
 * total energy  :   -42.1343853 Eh     change       -0.5249469E-03 Eh
 * total energy  :   -42.1349373 Eh     change       -0.5519232E-03 Eh
 * total energy  :   -42.1353509 Eh     change       -0.4136410E-03 Eh
 * total energy  :   -42.1355176 Eh     change       -0.1666572E-03 Eh
 * total energy  :   -42.1352911 Eh     change        0.2264659E-03 Eh
 * total energy  :   -42.1357411 Eh     change       -0.4500254E-03 Eh
 * total energy  :   -42.1358156 Eh     change       -0.7448213E-04 Eh
 * total energy  :   -42.1358679 Eh     change       -0.5233928E-04 Eh
 * total energy  :   -42.1358855 Eh     change       -0.1754510E-04 Eh
   *** GEOMETRY OPTIMIZATION CONVERGED AFTER 43 ITERATIONS ***

 final structure:
================
25
 xtb: 6.6.1 (8d0f1dd)
C            3.42975081240470        1.61794248838882        0.02092597159726
N            2.61364598580292        0.43161225441030        0.00665542145742
C            3.03391761009577       -0.82608587551615        0.00226638879024
N            1.98660419751769       -1.66829261808504       -0.00130593413572
C            0.83480477431217       -0.92250763621259        0.00168805421369
C            1.24675241837951        0.41654983003732        0.00684925538006
C            0.26286170831214        1.47695269144169       -0.00229121529047
O            0.50887104611930        2.66656296530968       -0.01168313961947
N           -1.02313853929852        0.96576402151879       -0.00255960729275
C           -2.12571587737272        1.90482172620841       -0.00714694667754
C           -1.38319769832500       -0.40425061170467        0.00046477194522
O           -2.56085813513803       -0.68972293379193        0.00260475890250
N           -0.40452089542984       -1.34349457900158       -0.00119117648901
C           -3.25990224879205       -3.54530870434694       -0.00910128855733
H            3.95532480188658        1.70451896090810        0.97259614272214
H            4.16283187640721        1.58400502849138       -0.78457873687511
H            2.78219623616496        2.48522099627555       -0.10623415741549
H            4.06378776143576       -1.12892946360387        0.00063025045632
H           -1.71694232113452        2.91342813023604       -0.00074803255025
H           -2.74108118125568        1.74984997316457       -0.89472647406275
H           -2.75332398470163        1.74258075698164        0.87046116732757
H           -3.05559360851996       -4.05218347432042        0.91252344954449
H           -3.06076912425589       -4.03476612840445       -0.94176284718541
H           -3.66053428443170       -2.54811661301153        0.00155858033811
H            2.02466018391778       -2.67791264377304       -0.00472303862352

          :  Hamiltonian                  GFN2-xTB          :
         :: total energy             -42.135885490438 Eh    ::
         :: gradient norm              0.002566987310 Eh/a0 ::
         :: HOMO-LUMO gap              1.156635902382 eV    ::
         :: SCC energy               -42.663987281949 Eh    ::
         :: -> dispersion             -0.020999799397 Eh    ::
         :: repulsion energy           0.528057610517 Eh    ::

    * Orbital Energies and Occupations

         #    Occupation            Energy/Eh            Energy/eV
      -------------------------------------------------------------
         1        2.0000           -0.9031302             -24.5754
       ...           ...                  ...                  ...
        25        1.9998           -0.6566160             -17.8674
        26        1.9993           -0.6348450             -17.2750
        27        1.9993           -0.6336491             -17.2425
        28        1.9983           -0.6199341             -16.8693
        29        1.9980           -0.6174393             -16.8014
        30        1.9974           -0.6138615             -16.7040
        31        1.9970           -0.6111709             -16.6308
        32        1.9938           -0.5997837             -16.3209
        33        1.9653           -0.5723430             -15.5742
        34        1.9075           -0.5563292             -15.1385
        35        1.8971           -0.5545592             -15.0903
        36        1.8457           -0.5477097             -14.9039
        37        1.7475           -0.5390478             -14.6682 (HOMO)
        38        0.6416           -0.4965422             -13.5116 (LUMO)
        39        0.0118           -0.4272768             -11.6268
        40        0.0010           -0.3875415             -10.5455
        41        0.0001           -0.3553068              -9.6684
        42        0.0000           -0.2679943              -7.2925
        43                         -0.1848987              -5.0314
        44                         -0.1647556              -4.4832
        45                         -0.1226259              -3.3368
        46                         -0.0730615              -1.9881
        47                         -0.0268914              -0.7318
        48                         -0.0227992              -0.6204
       ...                                ...                  ...
        67                          0.5406166              14.7109
      -------------------------------------------------------------
                  HL-Gap            0.0425056 Eh            1.1566 eV

     #   Z          covCN         q      C6AA      α(0)
     1   6 C        3.692    -0.093    22.461     6.782
     2   7 N        2.827     0.087    19.737     6.598
     3   6 C        3.063     0.064    26.498     8.441
     4   7 N        2.796    -0.055    22.309     7.015
     5   6 C        3.068     0.149    24.703     8.150
     6   6 C        3.134    -0.022    28.321     8.711
     7   6 C        2.767     0.276    22.327     7.738
     8   8 O        0.858    -0.365    20.985     6.142
     9   7 N        2.748    -0.083    22.861     7.101
    10   6 C        3.704    -0.055    21.725     6.664
    11   6 C        2.759     0.337    21.275     7.553
    12   8 O        0.860    -0.359    20.876     6.126
    13   7 N        1.832    -0.266    27.750     7.806
    14   6 C        2.779    -0.071    29.741     8.932
    15   1 H        0.924     0.109     1.703     2.041
    16   1 H        0.925     0.106     1.729     2.056
    17   1 H        0.925     0.136     1.490     1.909
    18   1 H        0.926     0.126     1.569     1.959
    19   1 H        0.925     0.113     1.670     2.021
    20   1 H        0.924     0.104     1.747     2.067
    21   1 H        0.924     0.104     1.745     2.066
    22   1 H        0.926     0.129     1.540     1.941
    23   1 H        0.926     0.129     1.540     1.940
    24   1 H        0.926     0.161     1.320     1.797
    25   1 H        0.860     0.236     0.939     1.518

Wiberg/Mayer (AO) data.
largest (>0.10) Wiberg bond orders for each atom

     #   Z sym  total        # sym  WBO       # sym  WBO       # sym  WBO
 ---------------------------------------------------------------------------
     1   6 C    3.911 --     2 N    0.983    16 H    0.962    17 H    0.960
                            15 H    0.956
     2   7 N    3.711 --     3 C    1.395     6 C    1.181     1 C    0.983
     3   6 C    3.878 --     2 N    1.395     4 N    1.314    18 H    0.951
     4   7 N    3.595 --     3 C    1.314     5 C    1.153    25 H    0.917
     5   6 C    3.948 --    13 N    1.375     6 C    1.263     4 N    1.153
     6   6 C    3.812 --     5 C    1.263     2 N    1.181     7 C    1.077
     7   6 C    3.954 --     8 O    1.641     9 N    1.139     6 C    1.077
     8   8 O    1.945 --     7 C    1.641     9 N    0.139
     9   7 N    3.478 --     7 C    1.139    11 C    1.041    10 C    0.987
                             8 O    0.139
    10   6 C    3.888 --     9 N    0.987    19 H    0.961    21 H    0.949
                            20 H    0.949
    11   6 C    3.943 --    12 O    1.633    13 N    1.182     9 N    1.041
    12   8 O    1.916 --    11 C    1.633
    13   7 N    2.836 --     5 C    1.375    11 C    1.182
    14   6 C    2.940 --    22 H    0.980    23 H    0.980    24 H    0.961
    15   1 H    0.985 --     1 C    0.956
    16   1 H    0.986 --     1 C    0.962
    17   1 H    0.980 --     1 C    0.960
    18   1 H    0.983 --     3 C    0.951
    19   1 H    0.979 --    10 C    0.961
    20   1 H    0.968 --    10 C    0.949
    21   1 H    0.968 --    10 C    0.949
    22   1 H    0.982 --    14 C    0.980
    23   1 H    0.982 --    14 C    0.980
    24   1 H    0.971 --    14 C    0.961
    25   1 H    0.943 --     4 N    0.917
 ---------------------------------------------------------------------------

molecular dipole:
                 x           y           z       tot (Debye)
 q only:        2.016      -2.068       0.009
   full:        2.466      -2.220       0.014       8.433

           -------------------------------------------------
          | TOTAL ENERGY              -42.135885490438 Eh   |
          | GRADIENT NORM               0.002566987310 Eh/α |
          | HOMO-LUMO GAP               1.156635902382 eV   |
           -------------------------------------------------

 * finished run on 2024/06/05 at 19:57:58.127
