   * xtb version 6.6.1 (8d0f1dd) compiled by 'conda@1efc2f54142f' on 2023-08-01
          program call               : xtb struc.xyz --opt loose --input .xc1 --gfn2

   ID    Z sym.   atoms
    1    7 N      1, 17
    2    6 C      2-6, 8, 9, 11-16, 18-23, 25, 26, 28-33
    3    8 O      7, 10, 24, 27
    4    1 H      34-72
constraining bond 13 66 to    5.7133300 Å, actual value:    3.5954529 Å

          :  Hamiltonian                  GFN2-xTB          :
 * total energy  :  -100.2050141 Eh     change       -0.4035485E-08 Eh
 * total energy  :  -100.7746382 Eh     change       -0.5696241E+00 Eh
 * total energy  :  -101.4520974 Eh     change       -0.6774592E+00 Eh
 * total energy  :  -102.2649699 Eh     change       -0.8128725E+00 Eh
 * total energy  :  -103.2302081 Eh     change       -0.9652382E+00 Eh
 * total energy  :   -98.3522683 Eh     change        0.4877940E+01 Eh
 * total energy  :  -103.3207731 Eh     change       -0.4968505E+01 Eh
 * total energy  :  -103.3919253 Eh     change       -0.7115224E-01 Eh
 * total energy  :  -103.4881678 Eh     change       -0.9624245E-01 Eh
 * total energy  :  -103.5269952 Eh     change       -0.3882740E-01 Eh
 * total energy  :  -103.6349570 Eh     change       -0.2961986E-03 Eh
 * total energy  :  -103.6352649 Eh     change       -0.3079163E-03 Eh
 * total energy  :  -103.6355736 Eh     change       -0.3086479E-03 Eh
 * total energy  :  -103.6357807 Eh     change       -0.2071683E-03 Eh
 * total energy  :  -103.6359222 Eh     change       -0.1414284E-03 Eh
 * total energy  :  -103.6360207 Eh     change       -0.9852106E-04 Eh
 * total energy  :  -103.6360897 Eh     change       -0.6897874E-04 Eh
 * total energy  :  -103.6361395 Eh     change       -0.4983014E-04 Eh
 * total energy  :  -103.6361706 Eh     change       -0.3105297E-04 Eh
   *** GEOMETRY OPTIMIZATION CONVERGED AFTER 52 ITERATIONS ***

 final structure:
================
72
 xtb: 6.6.1 (8d0f1dd)
N           -2.66161081041344        2.87416914983143        2.36846475415694
C           -2.04183847262352        2.28249784229692        1.33728865857542
C           -3.00506325611087        1.97469344252945        0.24070425797524
C           -3.51337244832102        0.54149013720203        0.34280521449374
C           -4.38474908574480        0.04057449822292       -0.58138826946740
C           -4.86387869112867       -1.27365260098662       -0.53841882870568
O           -5.72049880375276       -1.82426203271839       -1.42202223589285
C           -6.25067003716236       -1.03772127246810       -2.46009927422331
C           -4.41849594169728       -2.15118065905843        0.51188880888746
O           -4.91476678950749       -3.40704801962327        0.42277639274829
C           -4.58917192749506       -4.33683032316429        1.42753730715788
C           -3.57811821125162       -1.69320188598211        1.46895370714753
C           -3.07133311129727       -0.26866911890622        1.54456847938200
C           -2.40766437117279        2.23988253933172       -1.15897186248782
C           -1.45773577469196        1.14011353743696       -1.65955063910750
C           -0.17285016002139        1.08572937646416       -0.92873165054953
N            0.45115760848677       -0.03480779029172       -0.53464941524340
C            1.83841116519734        0.01977834142599       -0.13814315405101
C            2.78767402108822       -0.30754276023884       -1.30895577257217
C            4.21712276346801       -0.11104460364446       -0.89102570965079
C            4.85630648398179        1.09761808096482       -1.10115315850907
C            6.16978666296207        1.28601607829552       -0.69594607360560
C            6.86623644333505        0.26773345544152       -0.06478792410476
O            8.14316472541450        0.33967334995879        0.36985528410509
C            8.86734156938166        1.52879018669722        0.16003852960444
C            6.21755048429469       -0.97486291429521        0.15962162381893
O            6.97026137812154       -1.91323978373960        0.77801605826554
C            6.42094981775130       -3.18737999982518        1.00762833502542
C            4.90689085031892       -1.14143163185246       -0.25388363146390
C           -0.09218661279691       -1.34557160064313       -0.79549120354562
C           -4.18384603209304        2.94550539424214        0.60424149231020
C           -4.07345254965257        3.04059081374659        2.13538207265453
C           -4.05797548794628        4.33728641383791       -0.00914033195382
H           -4.70952821561088        0.67721600094367       -1.38994698716332
H           -6.81404356226044       -0.18365408520322       -2.07107801416987
H           -6.92527645970392       -1.69302115267294       -3.00765649165997
H           -5.46751309001624       -0.68108192388148       -3.13716712633879
H           -4.91377644559352       -3.99151644379584        2.41368398962608
H           -5.12639493643010       -5.24689093256429        1.16899392940654
H           -3.51445815441567       -4.54344330132151        1.44923980143729
H           -3.25063964589731       -2.33167657349726        2.27308549037796
H           -1.95517508361396       -0.33437670031251        1.48222228936063
H           -3.22424062766525        2.32245467846031       -1.87498415758064
H           -1.87566402967844        3.19056547398718       -1.14508522427465
H           -1.97002245051535        0.18030450142096       -1.63680676102818
H           -1.24132939220353        1.36965150307486       -2.71232535095353
H           -0.99039162343090        2.08169723912398        1.34255461276471
H            0.35966753434288        2.00908387659148       -0.76942526781298
H            2.00661100345549       -0.69074696227266        0.67571756567197
H            2.06691843432878        1.02195685823176        0.23022685800830
H            2.54957579514236        0.35483040701888       -2.14320279902783
H            2.62848574482159       -1.33832894435331       -1.62818259751139
H            4.33848072961518        1.90412223723244       -1.59821811525920
H            6.64399569184047        2.23524746287001       -0.88410126638195
H            8.40603542358470        2.37670135025531        0.67627901412343
H            8.96240082277769        1.75806897102194       -0.90586153660909
H            9.85527963330663        1.34680548812798        0.57882147087232
H            7.20871670057849       -3.76259824583871        1.49040141137848
H            5.55202782650152       -3.13758502263489        1.67242063656922
H            6.13747300901018       -3.67830517331245        0.07109071866599
H            4.40751829472712       -2.08502240980606       -0.09805318821387
H           -0.02837516719693       -1.60459215843248       -1.85604638785177
H           -1.13718584005722       -1.39769078046962       -0.49090448792826
H            0.46958120878371       -2.08152346630408       -0.22414372866747
H           -5.13782712818540        2.50938173176101        0.30822931284476
H           -3.26510521198650        0.03750398395837        2.15605646361213
H           -4.64427001076217        2.24515027744997        2.63069625612097
H           -4.41882715646808        4.00151630903377        2.51863156400136
H           -3.09991692903792        4.78751952567144        0.23824514364217
H           -4.16510567612743        4.30740837809047       -1.08853172746100
H           -4.84609110143247        4.97510142586518        0.38217050361017
H           -2.21866971644452        3.12021047849225        3.23680718522651

          :  Hamiltonian                  GFN2-xTB          :
         :: total energy            -103.636170559169 Eh    ::
         :: gradient norm              0.002580978552 Eh/a0 ::
         :: HOMO-LUMO gap              0.256601552741 eV    ::
         :: SCC energy              -100.748620060364 Eh    ::
         :: -> dispersion             -0.073948692150 Eh    ::
         :: repulsion energy           1.579628888916 Eh    ::

    * Orbital Energies and Occupations

         #    Occupation            Energy/Eh            Energy/eV
      -------------------------------------------------------------
         1        2.0000           -0.8036187             -21.8676
       ...           ...                  ...                  ...
        78        1.9997           -0.5304232             -14.4335
        79        1.9997           -0.5295825             -14.4107
        80        1.9996           -0.5247175             -14.2783
        81        1.9996           -0.5244147             -14.2701
        82        1.9993           -0.5156051             -14.0303
        83        1.9991           -0.5124261             -13.9438
        84        1.9991           -0.5120119             -13.9326
        85        1.9984           -0.5035887             -13.7033
        86        1.9983           -0.5022153             -13.6660
        87        1.9878           -0.4709211             -12.8144
        88        1.9853           -0.4679069             -12.7324
        89        1.9138           -0.4393248             -11.9546
        90        0.9060           -0.3872560             -10.5378 (HOMO)
        91        0.6268           -0.3778260             -10.2812 (LUMO)
        92        0.5716           -0.3757410             -10.2244
        93        0.0086           -0.3041200              -8.2755
        94        0.0048           -0.2948506              -8.0233
        95        0.0040           -0.2918846              -7.9426
        96        0.0000           -0.2132496              -5.8028
        97        0.0000           -0.1691846              -4.6037
        98                         -0.1155818              -3.1451
        99                         -0.1076328              -2.9288
       100                         -0.0786608              -2.1405
       101                         -0.0645486              -1.7565
       ...                                ...                  ...
       171                          1.6991312              46.2357
      -------------------------------------------------------------
                  HL-Gap            0.0094299 Eh            0.2566 eV

     #   Z          covCN         q      C6AA      α(0)
     1   7 N        2.710    -0.089    22.979     7.119
     2   6 C        2.898    -0.011    28.299     8.722
     3   6 C        3.929     0.013    20.300     6.403
     4   6 C        2.958    -0.028    28.692     8.786
     5   6 C        2.901    -0.077    29.913     8.968
     6   6 C        2.860     0.115    25.455     8.270
     7   8 O        1.706    -0.221    17.660     5.674
     8   6 C        3.644     0.028    20.442     6.499
     9   6 C        2.848     0.128    25.188     8.225
    10   8 O        1.706    -0.245    18.058     5.737
    11   6 C        3.646     0.029    20.421     6.494
    12   6 C        2.899    -0.104    30.610     9.071
    13   6 C        3.808    -0.098    22.366     6.732
    14   6 C        3.805    -0.069    21.815     6.649
    15   6 C        3.802    -0.068    21.795     6.647
    16   6 C        2.841    -0.020    28.503     8.749
    17   7 N        2.728    -0.010    21.444     6.878
    18   6 C        3.756    -0.014    20.878     6.515
    19   6 C        3.807    -0.070    21.827     6.651
    20   6 C        2.969    -0.004    28.124     8.699
    21   6 C        2.922    -0.052    29.292     8.875
    22   6 C        2.915    -0.070    29.747     8.944
    23   6 C        2.865     0.129    25.167     8.223
    24   8 O        1.706    -0.234    17.871     5.708
    25   6 C        3.645     0.029    20.423     6.495
    26   6 C        2.863     0.129    25.169     8.223
    27   8 O        1.706    -0.235    17.903     5.713
    28   6 C        3.645     0.031    20.392     6.490
    29   6 C        2.920    -0.081    30.037     8.988
    30   6 C        3.699    -0.065    21.926     6.697
    31   6 C        3.892    -0.023    20.925     6.503
    32   6 C        3.794    -0.009    20.753     6.487
    33   6 C        3.754    -0.117    22.805     6.809
    34   1 H        0.926     0.047     2.352     2.398
    35   1 H        0.924     0.051     2.304     2.374
    36   1 H        0.925     0.080     1.979     2.200
    37   1 H        0.924     0.048     2.343     2.394
    38   1 H        0.924     0.048     2.348     2.396
    39   1 H        0.925     0.077     2.012     2.218
    40   1 H        0.924     0.043     2.405     2.425
    41   1 H        0.926     0.044     2.400     2.423
    42   1 H        0.920     0.046     2.369     2.407
    43   1 H        0.925     0.056     2.243     2.342
    44   1 H        0.925     0.055     2.256     2.349
    45   1 H        0.925     0.063     2.168     2.302
    46   1 H        0.923     0.070     2.082     2.257
    47   1 H        0.926     0.051     2.308     2.376
    48   1 H        0.926     0.053     2.277     2.360
    49   1 H        0.924     0.060     2.201     2.320
    50   1 H        0.924     0.061     2.183     2.310
    51   1 H        0.924     0.050     2.317     2.380
    52   1 H        0.924     0.052     2.300     2.372
    53   1 H        0.926     0.039     2.460     2.453
    54   1 H        0.926     0.052     2.294     2.369
    55   1 H        0.924     0.048     2.341     2.393
    56   1 H        0.924     0.051     2.313     2.378
    57   1 H        0.925     0.077     2.012     2.218
    58   1 H        0.925     0.077     2.015     2.220
    59   1 H        0.924     0.043     2.405     2.425
    60   1 H        0.924     0.048     2.348     2.396
    61   1 H        0.926     0.042     2.423     2.434
    62   1 H        0.924     0.069     2.097     2.264
    63   1 H        0.925     0.074     2.038     2.232
    64   1 H        0.925     0.073     2.058     2.243
    65   1 H        0.925     0.054     2.269     2.356
    66   1 H        0.931     0.122     1.595     1.975
    67   1 H        0.924     0.059     2.216     2.328
    68   1 H        0.924     0.068     2.103     2.268
    69   1 H        0.925     0.047     2.362     2.403
    70   1 H        0.925     0.053     2.286     2.364
    71   1 H        0.925     0.055     2.264     2.353
    72   1 H        0.860     0.177     1.233     1.739

Wiberg/Mayer (AO) data.
largest (>0.10) Wiberg bond orders for each atom

     #   Z sym  total        # sym  WBO       # sym  WBO       # sym  WBO
 ---------------------------------------------------------------------------
     1   7 N    3.323 --     2 C    1.332    32 C    0.999    72 H    0.941
     2   6 C    3.403 --     1 N    1.332     3 C    1.024    47 H    0.963
     3   6 C    3.987 --     2 C    1.024     4 C    0.965    14 C    0.965
                            31 C    0.935
     4   6 C    3.653 --     5 C    1.553    13 C    1.016     3 C    0.965
     5   6 C    3.973 --     4 C    1.553     6 C    1.296    34 H    0.955
     6   6 C    3.641 --     5 C    1.296     9 C    1.135     7 O    1.106
     7   8 O    2.216 --     6 C    1.106     8 C    0.980
     8   6 C    3.935 --     7 O    0.980    36 H    0.977    35 H    0.973
                            37 H    0.973
     9   6 C    3.933 --    12 C    1.595     6 C    1.135    10 O    1.080
    10   8 O    2.251 --     9 C    1.080    11 C    0.981    12 C    0.105
    11   6 C    3.938 --    10 O    0.981    39 H    0.978    40 H    0.975
                            38 H    0.975
    12   6 C    3.772 --     9 C    1.595    13 C    1.020    41 H    0.965
                            10 O    0.105
    13   6 C    3.969 --    12 C    1.020     4 C    1.016    66 H    0.944
                            42 H    0.919
    14   6 C    3.958 --    15 C    0.987    44 H    0.973    43 H    0.969
                             3 C    0.965
    15   6 C    3.988 --    16 C    1.058    14 C    0.987    45 H    0.960
                            46 H    0.931
    16   6 C    3.454 --    17 N    1.336    15 C    1.058    48 H    0.961
    17   7 N    3.396 --    16 C    1.336    30 C    1.003    18 C    0.991
    18   6 C    3.959 --    17 N    0.991    50 H    0.969    49 H    0.966
                            19 C    0.966
    19   6 C    3.975 --    20 C    1.008    51 H    0.973    52 H    0.972
                            18 C    0.966
    20   6 C    3.959 --    21 C    1.422    29 C    1.373    19 C    1.008
    21   6 C    3.963 --    20 C    1.422    22 C    1.409    53 H    0.969
    22   6 C    3.968 --    21 C    1.409    23 C    1.395    54 H    0.964
    23   6 C    3.910 --    22 C    1.395    26 C    1.232    24 O    1.095
    24   8 O    2.253 --    23 C    1.095    25 C    0.979
    25   6 C    3.935 --    24 O    0.979    57 H    0.978    55 H    0.974
                            56 H    0.974
    26   6 C    3.914 --    29 C    1.405    23 C    1.232    27 O    1.089
    27   8 O    2.252 --    26 C    1.089    28 C    0.982
    28   6 C    3.938 --    27 O    0.982    58 H    0.978    59 H    0.975
                            60 H    0.975
    29   6 C    3.966 --    26 C    1.405    20 C    1.373    61 H    0.963
    30   6 C    3.963 --    17 N    1.003    64 H    0.978    63 H    0.967
                            62 H    0.966
    31   6 C    3.966 --    33 C    1.012    32 C    0.989    65 H    0.968
                             3 C    0.935
    32   6 C    3.963 --     1 N    0.999    31 C    0.989    68 H    0.966
                            67 H    0.957
    33   6 C    3.990 --    31 C    1.012    69 H    0.985    70 H    0.982
                            71 H    0.980
    34   1 H    0.997 --     5 C    0.955
    35   1 H    0.991 --     8 C    0.973
    36   1 H    0.993 --     8 C    0.977
    37   1 H    0.991 --     8 C    0.973
    38   1 H    0.997 --    11 C    0.975
    39   1 H    0.994 --    11 C    0.978
    40   1 H    0.997 --    11 C    0.975
    41   1 H    0.997 --    12 C    0.965
    42   1 H    0.955 --    13 C    0.919
    43   1 H    0.995 --    14 C    0.969
    44   1 H    0.996 --    14 C    0.973
    45   1 H    0.994 --    15 C    0.960
    46   1 H    0.963 --    15 C    0.931
    47   1 H    0.997 --     2 C    0.963
    48   1 H    0.997 --    16 C    0.961
    49   1 H    0.992 --    18 C    0.966
    50   1 H    0.995 --    18 C    0.969
    51   1 H    0.997 --    19 C    0.973
    52   1 H    0.996 --    19 C    0.972
    53   1 H    0.998 --    21 C    0.969
    54   1 H    0.996 --    22 C    0.964
    55   1 H    0.995 --    25 C    0.974
    56   1 H    0.994 --    25 C    0.974
    57   1 H    0.994 --    25 C    0.978
    58   1 H    0.994 --    28 C    0.978
    59   1 H    0.996 --    28 C    0.975
    60   1 H    0.995 --    28 C    0.975
    61   1 H    0.997 --    29 C    0.963
    62   1 H    0.982 --    30 C    0.966
    63   1 H    0.989 --    30 C    0.967
    64   1 H    0.994 --    30 C    0.978
    65   1 H    0.997 --    31 C    0.968
    66   1 H    0.969 --    13 C    0.944
    67   1 H    0.983 --    32 C    0.957
    68   1 H    0.990 --    32 C    0.966
    69   1 H    0.998 --    33 C    0.985
    70   1 H    0.997 --    33 C    0.982
    71   1 H    0.996 --    33 C    0.980
    72   1 H    0.968 --     1 N    0.941
 ---------------------------------------------------------------------------

molecular dipole:
                 x           y           z       tot (Debye)
 q only:       -1.561       1.548       0.589
   full:       -1.517       1.729       0.733       6.136

           -------------------------------------------------
          | TOTAL ENERGY             -103.636170559169 Eh   |
          | GRADIENT NORM               0.002580978552 Eh/α |
          | HOMO-LUMO GAP               0.256601552741 eV   |
           -------------------------------------------------

 * finished run on 2024/04/06 at 11:16:35.003
