   * xtb version 6.6.1 (8d0f1dd) compiled by 'conda@1efc2f54142f' on 2023-08-01
          program call               : xtb xtbopt.xyz --opt crude --input .xc2 --gfn2

   ID    Z sym.   atoms
    1    7 N      1, 17
    2    6 C      2-6, 8, 9, 11-16, 18-23, 25, 26, 28-33
    3    8 O      7, 10, 24, 27
    4    1 H      34-72
########################################################################
[WARNING] Please study the warnings concerning your input carefully
-1- readin_getIntValue: could not parse ''
########################################################################

          :  Hamiltonian                  GFN2-xTB          :
 * total energy  :   -99.1677849 Eh     change       -0.1153921E-10 Eh
 * total energy  :   -99.3816471 Eh     change       -0.2138622E+00 Eh
 * total energy  :   -99.3836154 Eh     change       -0.1968259E-02 Eh
 * total energy  :   -99.3846316 Eh     change       -0.1016217E-02 Eh
 * total energy  :   -99.3848794 Eh     change       -0.2478146E-03 Eh
 * total energy  :   -99.3849986 Eh     change       -0.1192436E-03 Eh
   *** GEOMETRY OPTIMIZATION CONVERGED AFTER 6 ITERATIONS ***

 final structure:
================
72
 xtb: 6.6.1 (8d0f1dd)
N           -2.65760006044401        2.87658018014559        2.36314583043424
C           -2.03871265397319        2.28249015559045        1.33369568330768
C           -3.00109513575488        1.97117457473620        0.23877884762004
C           -3.50461488635592        0.53528502290272        0.34004398153614
C           -4.39133396170782        0.04225278982937       -0.57651600784398
C           -4.86381117540467       -1.27442475530613       -0.54158715574580
O           -5.72308350434102       -1.82241162118644       -1.42558936664488
C           -6.25461349362463       -1.03350385612502       -2.46132543061532
C           -4.41102246490495       -2.15905520357561        0.49910235292954
O           -4.92039780135930       -3.40985078529175        0.41748079214027
C           -4.59034622401168       -4.34005712589006        1.42062152838581
C           -3.54384396722927       -1.71281372026709        1.43928692784365
C           -3.04096753678643       -0.30759640474290        1.48534707124090
C           -2.40426881799318        2.23744207115619       -1.16149278693433
C           -1.45798220940647        1.13684491549278       -1.66651019545962
C           -0.17151932459430        1.08187792005774       -0.93911852541950
N            0.44964943269176       -0.03822555055868       -0.54053577092595
C            1.83595336071250        0.01718157541286       -0.14051917510320
C            2.78767821696206       -0.30682027886497       -1.30984875822343
C            4.21616109972841       -0.10948247757553       -0.88902448405912
C            4.85421132629624        1.10046730957252       -1.09513510005396
C            6.16750490184844        1.28857154212704       -0.68931765052066
C            6.86479992177541        0.26880990164830       -0.06145151315971
O            8.14223926337048        0.33974428791931        0.37140220742891
C            8.86709718622248        1.52832670262014        0.16069042564410
C            6.21642993643540       -0.97438370984049        0.16080962910019
O            6.96904032800279       -1.91377994815675        0.77751368519243
C            6.41939962970693       -3.18819032627382        1.00501923680621
C            4.90600907319166       -1.14069101939763       -0.25351753865630
C           -0.09372867194602       -1.34872033444849       -0.80202540090286
C           -4.18064531279423        2.94267115968194        0.59795599134042
C           -4.06947428676896        3.04695542673749        2.12810217184453
C           -4.05935826475873        4.33166353874245       -0.02088136470584
H           -4.72973531574657        0.68621510190359       -1.37316809608879
H           -6.81794233427206       -0.18043019771434       -2.07024417401012
H           -6.92992883197555       -1.68767218567000       -3.00956429541501
H           -5.47208356427598       -0.67563547512007       -3.13873904776177
H           -4.91239781181037       -3.99399574648926        2.40777111972309
H           -5.12767428748468       -5.25076804594544        1.16429161747647
H           -3.51548758819187       -4.54581864614582        1.43960957254823
H           -3.20131295273075       -2.35718695794311        2.23227920123880
H           -1.93996922674450       -0.31251633692221        1.52179968772989
H           -3.22106680261598        2.32448231475052       -1.87666328221675
H           -1.86930641907364        3.18656037872394       -1.14440022426974
H           -1.97163088786529        0.17773990770066       -1.64203094002695
H           -1.24496179436413        1.36645737114997       -2.72006216131073
H           -0.98920390748928        2.07124951502224        1.34417274359262
H            0.36109549476808        2.00529785004520       -0.78014470186628
H            2.00316207161836       -0.69429782897077        0.67267418820590
H            2.06215585556031        1.01913183960508        0.22986460237018
H            2.55040986728153        0.35682460743486       -2.14334707174458
H            2.63035076693892       -1.33713929583662       -1.63131753590069
H            4.33581856570154        1.90807954478848       -1.58978370989154
H            6.64104634458821        2.23869186421188       -0.87460346007721
H            8.40834168200096        2.37619057198780        0.67918809654185
H            8.95910745286642        1.75857294236073       -0.90525517742704
H            9.85607458505296        1.34476189507181        0.57623966692072
H            7.20734152469779       -3.76471781042822        1.48586077885699
H            5.55111574552667       -3.13932706078778        1.67069487138859
H            6.13482005352036       -3.67705702933204        0.06775931581385
H            4.40696218691491       -2.08479556004079       -0.09977345550338
H           -0.03032201590021       -1.60656967220247       -1.86292016686390
H           -1.13843571490234       -1.40095060338319       -0.49638712311306
H            0.46853569713387       -2.08518741525763       -0.23183878346381
H           -5.13474983047843        2.50308940613444        0.30723938568618
H           -3.35203708600342        0.15174695149645        2.43603201700460
H           -4.64280864789941        2.25505864454269        2.62589547683956
H           -4.41253158806719        4.01054555439653        2.50732342549146
H           -3.11106631046355        4.79315656985335        0.24357962209050
H           -4.14395965851657        4.29812622035016       -1.10239798885867
H           -4.86284078448802        4.96237604428489        0.35263447634327
H           -2.21612285859289        3.11551833800091        3.23439623472839

          :  Hamiltonian                  GFN2-xTB          :
         :: total energy             -99.384998641723 Eh    ::
         :: gradient norm              0.003246396462 Eh/a0 ::
         :: HOMO-LUMO gap              0.262871689870 eV    ::
         :: SCC energy              -100.724238913611 Eh    ::
         :: -> dispersion             -0.073988536871 Eh    ::
         :: repulsion energy           1.338033879099 Eh    ::

    * Orbital Energies and Occupations

         #    Occupation            Energy/Eh            Energy/eV
      -------------------------------------------------------------
         1        2.0000           -0.8033997             -21.8616
       ...           ...                  ...                  ...
        78        1.9997           -0.5305012             -14.4357
        79        1.9997           -0.5297259             -14.4146
        80        1.9996           -0.5246004             -14.2751
        81        1.9996           -0.5241232             -14.2621
        82        1.9993           -0.5158133             -14.0360
        83        1.9991           -0.5127703             -13.9532
        84        1.9991           -0.5122703             -13.9396
        85        1.9984           -0.5037587             -13.7080
        86        1.9982           -0.5015956             -13.6491
        87        1.9878           -0.4711024             -12.8193
        88        1.9845           -0.4673234             -12.7165
        89        1.9133           -0.4394829             -11.9589
        90        0.9110           -0.3876556             -10.5486 (HOMO)
        91        0.6250           -0.3779952             -10.2858 (LUMO)
        92        0.5702           -0.3759262             -10.2295
        93        0.0083           -0.3037272              -8.2648
        94        0.0048           -0.2950088              -8.0276
        95        0.0040           -0.2920576              -7.9473
        96        0.0000           -0.2145399              -5.8379
        97        0.0000           -0.1693387              -4.6079
        98                         -0.1156607              -3.1473
        99                         -0.1081503              -2.9429
       100                         -0.0776409              -2.1127
       101                         -0.0607889              -1.6542
       ...                                ...                  ...
       171                          0.5956496              16.2084
      -------------------------------------------------------------
                  HL-Gap            0.0096604 Eh            0.2629 eV

     #   Z          covCN         q      C6AA      α(0)
     1   7 N        2.710    -0.089    22.972     7.118
     2   6 C        2.898    -0.009    28.251     8.715
     3   6 C        3.929     0.013    20.302     6.403
     4   6 C        2.958    -0.023    28.574     8.768
     5   6 C        2.903    -0.076    29.901     8.966
     6   6 C        2.860     0.116    25.450     8.269
     7   8 O        1.705    -0.221    17.669     5.675
     8   6 C        3.644     0.028    20.442     6.499
     9   6 C        2.850     0.129    25.174     8.223
    10   8 O        1.706    -0.244    18.042     5.735
    11   6 C        3.646     0.029    20.421     6.494
    12   6 C        2.901    -0.099    30.480     9.052
    13   6 C        3.810    -0.058    21.618     6.618
    14   6 C        3.805    -0.069    21.813     6.649
    15   6 C        3.802    -0.067    21.790     6.646
    16   6 C        2.842    -0.020    28.491     8.748
    17   7 N        2.728    -0.009    21.439     6.877
    18   6 C        3.756    -0.014    20.875     6.514
    19   6 C        3.808    -0.070    21.825     6.650
    20   6 C        2.969    -0.004    28.124     8.699
    21   6 C        2.922    -0.052    29.291     8.875
    22   6 C        2.915    -0.070    29.747     8.944
    23   6 C        2.865     0.129    25.166     8.223
    24   8 O        1.706    -0.233    17.869     5.707
    25   6 C        3.645     0.029    20.424     6.495
    26   6 C        2.863     0.129    25.168     8.223
    27   8 O        1.706    -0.235    17.901     5.712
    28   6 C        3.645     0.031    20.392     6.490
    29   6 C        2.920    -0.081    30.037     8.987
    30   6 C        3.699    -0.065    21.920     6.696
    31   6 C        3.891    -0.023    20.925     6.503
    32   6 C        3.794    -0.009    20.738     6.485
    33   6 C        3.754    -0.117    22.806     6.810
    34   1 H        0.926     0.048     2.344     2.394
    35   1 H        0.924     0.051     2.305     2.374
    36   1 H        0.925     0.080     1.978     2.199
    37   1 H        0.924     0.048     2.345     2.395
    38   1 H        0.924     0.048     2.346     2.395
    39   1 H        0.925     0.077     2.009     2.217
    40   1 H        0.924     0.043     2.403     2.424
    41   1 H        0.926     0.045     2.383     2.414
    42   1 H        0.923     0.050     2.315     2.379
    43   1 H        0.925     0.057     2.239     2.340
    44   1 H        0.925     0.055     2.253     2.347
    45   1 H        0.925     0.062     2.170     2.304
    46   1 H        0.923     0.070     2.081     2.256
    47   1 H        0.926     0.051     2.307     2.375
    48   1 H        0.926     0.054     2.276     2.359
    49   1 H        0.924     0.060     2.201     2.320
    50   1 H        0.924     0.061     2.184     2.311
    51   1 H        0.924     0.050     2.317     2.380
    52   1 H        0.924     0.052     2.300     2.371
    53   1 H        0.926     0.039     2.460     2.453
    54   1 H        0.926     0.052     2.294     2.368
    55   1 H        0.924     0.048     2.340     2.392
    56   1 H        0.924     0.051     2.312     2.378
    57   1 H        0.925     0.077     2.011     2.218
    58   1 H        0.925     0.077     2.015     2.220
    59   1 H        0.924     0.043     2.404     2.425
    60   1 H        0.924     0.048     2.348     2.396
    61   1 H        0.926     0.042     2.423     2.434
    62   1 H        0.924     0.069     2.098     2.265
    63   1 H        0.925     0.075     2.033     2.230
    64   1 H        0.925     0.072     2.059     2.244
    65   1 H        0.925     0.054     2.265     2.354
    66   1 H        0.923     0.056     2.244     2.343
    67   1 H        0.924     0.058     2.221     2.330
    68   1 H        0.924     0.069     2.097     2.265
    69   1 H        0.925     0.047     2.360     2.402
    70   1 H        0.925     0.053     2.283     2.363
    71   1 H        0.925     0.055     2.261     2.352
    72   1 H        0.860     0.177     1.229     1.736

Wiberg/Mayer (AO) data.
largest (>0.10) Wiberg bond orders for each atom

     #   Z sym  total        # sym  WBO       # sym  WBO       # sym  WBO
 ---------------------------------------------------------------------------
     1   7 N    3.324 --     2 C    1.334    32 C    0.998    72 H    0.941
     2   6 C    3.405 --     1 N    1.334     3 C    1.025    47 H    0.963
     3   6 C    3.987 --     2 C    1.025    14 C    0.964     4 C    0.964
                            31 C    0.936
     4   6 C    3.655 --     5 C    1.545    13 C    1.030     3 C    0.964
     5   6 C    3.972 --     4 C    1.545     6 C    1.300    34 H    0.956
     6   6 C    3.646 --     5 C    1.300     9 C    1.137     7 O    1.105
     7   8 O    2.215 --     6 C    1.105     8 C    0.980
     8   6 C    3.935 --     7 O    0.980    36 H    0.977    35 H    0.973
                            37 H    0.973
     9   6 C    3.934 --    12 C    1.588     6 C    1.137    10 O    1.081
    10   8 O    2.252 --     9 C    1.081    11 C    0.981    12 C    0.105
    11   6 C    3.938 --    10 O    0.981    39 H    0.978    40 H    0.975
                            38 H    0.975
    12   6 C    3.776 --     9 C    1.588    13 C    1.035    41 H    0.965
                            10 O    0.105
    13   6 C    3.986 --    12 C    1.035     4 C    1.030    42 H    0.931
                            66 H    0.925
    14   6 C    3.957 --    15 C    0.987    44 H    0.973    43 H    0.969
                             3 C    0.964
    15   6 C    3.989 --    16 C    1.058    14 C    0.987    45 H    0.960
                            46 H    0.931
    16   6 C    3.456 --    17 N    1.337    15 C    1.058    48 H    0.961
    17   7 N    3.397 --    16 C    1.337    30 C    1.002    18 C    0.991
    18   6 C    3.959 --    17 N    0.991    50 H    0.969    49 H    0.966
                            19 C    0.966
    19   6 C    3.975 --    20 C    1.008    51 H    0.973    52 H    0.972
                            18 C    0.966
    20   6 C    3.959 --    21 C    1.422    29 C    1.373    19 C    1.008
    21   6 C    3.963 --    20 C    1.422    22 C    1.409    53 H    0.969
    22   6 C    3.968 --    21 C    1.409    23 C    1.394    54 H    0.964
    23   6 C    3.910 --    22 C    1.394    26 C    1.232    24 O    1.095
    24   8 O    2.253 --    23 C    1.095    25 C    0.979
    25   6 C    3.935 --    24 O    0.979    57 H    0.978    55 H    0.974
                            56 H    0.974
    26   6 C    3.914 --    29 C    1.405    23 C    1.232    27 O    1.090
    27   8 O    2.252 --    26 C    1.090    28 C    0.982
    28   6 C    3.938 --    27 O    0.982    58 H    0.978    59 H    0.975
                            60 H    0.975
    29   6 C    3.966 --    26 C    1.405    20 C    1.373    61 H    0.963
    30   6 C    3.963 --    17 N    1.002    64 H    0.978    63 H    0.967
                            62 H    0.966
    31   6 C    3.967 --    33 C    1.012    32 C    0.989    65 H    0.968
                             3 C    0.936
    32   6 C    3.962 --     1 N    0.998    31 C    0.989    68 H    0.966
                            67 H    0.956
    33   6 C    3.990 --    31 C    1.012    69 H    0.985    70 H    0.982
                            71 H    0.980
    34   1 H    0.997 --     5 C    0.956
    35   1 H    0.991 --     8 C    0.973
    36   1 H    0.993 --     8 C    0.977
    37   1 H    0.991 --     8 C    0.973
    38   1 H    0.997 --    11 C    0.975
    39   1 H    0.994 --    11 C    0.978
    40   1 H    0.997 --    11 C    0.975
    41   1 H    0.997 --    12 C    0.965
    42   1 H    0.962 --    13 C    0.931
    43   1 H    0.995 --    14 C    0.969
    44   1 H    0.996 --    14 C    0.973
    45   1 H    0.994 --    15 C    0.960
    46   1 H    0.963 --    15 C    0.931
    47   1 H    0.997 --     2 C    0.963
    48   1 H    0.997 --    16 C    0.961
    49   1 H    0.992 --    18 C    0.966
    50   1 H    0.995 --    18 C    0.969
    51   1 H    0.997 --    19 C    0.973
    52   1 H    0.996 --    19 C    0.972
    53   1 H    0.998 --    21 C    0.969
    54   1 H    0.996 --    22 C    0.964
    55   1 H    0.995 --    25 C    0.974
    56   1 H    0.994 --    25 C    0.974
    57   1 H    0.994 --    25 C    0.978
    58   1 H    0.994 --    28 C    0.978
    59   1 H    0.996 --    28 C    0.975
    60   1 H    0.995 --    28 C    0.975
    61   1 H    0.997 --    29 C    0.963
    62   1 H    0.982 --    30 C    0.966
    63   1 H    0.989 --    30 C    0.967
    64   1 H    0.994 --    30 C    0.978
    65   1 H    0.997 --    31 C    0.968
    66   1 H    0.954 --    13 C    0.925
    67   1 H    0.983 --    32 C    0.956
    68   1 H    0.990 --    32 C    0.966
    69   1 H    0.998 --    33 C    0.985
    70   1 H    0.997 --    33 C    0.982
    71   1 H    0.996 --    33 C    0.980
    72   1 H    0.968 --     1 N    0.941
 ---------------------------------------------------------------------------

molecular dipole:
                 x           y           z       tot (Debye)
 q only:       -1.532       1.540       0.517
   full:       -1.482       1.732       0.711       6.069

           -------------------------------------------------
          | TOTAL ENERGY              -99.384998641723 Eh   |
          | GRADIENT NORM               0.003246396462 Eh/α |
          | HOMO-LUMO GAP               0.262871689870 eV   |
           -------------------------------------------------

 * finished run on 2024/04/06 at 11:16:36.317
