   * xtb version 6.6.1 (8d0f1dd) compiled by 'conda@1efc2f54142f' on 2023-08-01
          program call               : xtb xtbopt.xyz --opt crude --input .xc2 --gfn2

   ID    Z sym.   atoms
    1    6 C      1, 3, 5-7, 10, 11, 14
    2    7 N      2, 4, 9, 13
    3    8 O      8, 12
    4    1 H      15-25

          :  Hamiltonian                  GFN2-xTB          :
 * total energy  :   -42.0693742 Eh     change       -0.1847411E-12 Eh
 * total energy  :   -42.1595228 Eh     change       -0.9014863E-01 Eh
 * total energy  :   -42.2360302 Eh     change       -0.7650738E-01 Eh
 * total energy  :   -42.2443577 Eh     change       -0.8327489E-02 Eh
 * total energy  :   -42.2430200 Eh     change        0.1337693E-02 Eh
 * total energy  :   -42.2399919 Eh     change        0.3028120E-02 Eh
 * total energy  :   -42.2465308 Eh     change       -0.6538953E-02 Eh
 * total energy  :   -42.2351089 Eh     change        0.1142195E-01 Eh
 * total energy  :   -42.2470704 Eh     change       -0.1196153E-01 Eh
 * total energy  :   -42.2411029 Eh     change        0.5967521E-02 Eh
 * total energy  :   -42.2478017 Eh     change       -0.6698807E-02 Eh
 * total energy  :   -42.2478076 Eh     change       -0.5928591E-05 Eh
   *** GEOMETRY OPTIMIZATION CONVERGED AFTER 12 ITERATIONS ***

 final structure:
================
25
 xtb: 6.6.1 (8d0f1dd)
C            3.22133124510195        1.13702634867729        0.02311921954893
N            2.27261538744729        0.05518523829330        0.00203082671969
C            2.54353771556932       -1.24189374168511       -0.00619513927142
N            1.39137627250819       -1.95157324864967       -0.00813127319653
C            0.35340722018100       -1.06682112024426       -0.00058110028107
C            0.90788450861769        0.20252004529431        0.00676408525385
C            0.07947897966042        1.39653715155479       -0.00198090880757
O            0.48531207798280        2.53348299034067       -0.01686028404152
N           -1.27199503523423        1.06548790465687       -0.00296710081885
C           -2.23139915809140        2.16274302616639       -0.01299710585896
C           -1.84752765705734       -0.19283987822836        0.00210012763299
O           -3.03350590541874       -0.35941251909352        0.00494472652653
N           -0.96745122262376       -1.29945166163802       -0.00101931141854
C           -1.52161726751373       -2.63905296807064       -0.00669577609305
H            3.71958441680976        1.18347838633586        0.99247396151935
H            3.97335959950362        0.99643615538418       -0.75202160781652
H            2.68846020735139        2.07299089040693       -0.14305665727717
H            3.52527024380863       -1.67298916918976       -0.01186782171782
H           -1.67951646103261        3.09862574659991       -0.01770797325158
H           -2.89584271690726        2.08238861145856       -0.87233787103618
H           -2.84457837010370        2.11815621987911        0.89458322300599
H           -1.20817602497807       -3.18637836072630        0.88251052067398
H           -1.21854730081766       -3.17472570287679       -0.90661628997060
H           -2.60676553693530       -2.54203739344029        0.00021800411346
H            1.32573629627160       -2.95964440960561       -0.01653685623743

          :  Hamiltonian                  GFN2-xTB          :
         :: total energy             -42.247807607961 Eh    ::
         :: gradient norm              0.008747233622 Eh/a0 ::
         :: HOMO-LUMO gap              3.304877591343 eV    ::
         :: SCC energy               -42.776061137865 Eh    ::
         :: -> dispersion             -0.022653993941 Eh    ::
         :: repulsion energy           0.528139771366 Eh    ::

    * Orbital Energies and Occupations

         #    Occupation            Energy/Eh            Energy/eV
      -------------------------------------------------------------
         1        2.0000           -0.9181745             -24.9848
       ...           ...                  ...                  ...
        25        2.0000           -0.6689431             -18.2029
        26        2.0000           -0.6656010             -18.1119
        27        1.9999           -0.6573125             -17.8864
        28        1.9998           -0.6363652             -17.3164
        29        1.9997           -0.6312069             -17.1760
        30        1.9996           -0.6257252             -17.0268
        31        1.9996           -0.6228347             -16.9482
        32        1.9994           -0.6190523             -16.8453
        33        1.9978           -0.5971799             -16.2501
        34        1.9928           -0.5786268             -15.7452
        35        1.9807           -0.5629899             -15.3197
        36        1.9760           -0.5595092             -15.2250
        37        1.9743           -0.5584100             -15.1951 (HOMO)
        38        0.0691           -0.4369579             -11.8902 (LUMO)
        39        0.0101           -0.4060223             -11.0484
        40        0.0013           -0.3730085             -10.1501
        41        0.0000           -0.2888231              -7.8593
        42                         -0.2059718              -5.6048
        43                         -0.2003083              -5.4507
        44                         -0.1462945              -3.9809
        45                         -0.1323261              -3.6008
        46                         -0.0823941              -2.2421
        47                         -0.0493511              -1.3429
        48                         -0.0361672              -0.9842
       ...                                ...                  ...
        67                          0.5584485              15.1962
      -------------------------------------------------------------
                  HL-Gap            0.1214520 Eh            3.3049 eV

     #   Z          covCN         q      C6AA      α(0)
     1   6 C        3.692    -0.096    22.528     6.792
     2   7 N        2.835     0.089    19.701     6.592
     3   6 C        3.061     0.052    26.782     8.487
     4   7 N        2.798    -0.058    22.368     7.024
     5   6 C        3.045     0.116    25.407     8.267
     6   6 C        3.128    -0.024    28.405     8.726
     7   6 C        2.764     0.274    22.368     7.745
     8   8 O        0.858    -0.363    20.964     6.139
     9   7 N        2.746    -0.083    22.861     7.101
    10   6 C        3.710    -0.062    21.835     6.678
    11   6 C        2.729     0.318    21.595     7.608
    12   8 O        0.860    -0.353    20.772     6.111
    13   7 N        2.738    -0.058    22.360     7.023
    14   6 C        3.696    -0.072    22.063     6.719
    15   1 H        0.924     0.111     1.687     2.031
    16   1 H        0.925     0.107     1.721     2.051
    17   1 H        0.925     0.139     1.469     1.896
    18   1 H        0.926     0.127     1.554     1.950
    19   1 H        0.925     0.114     1.667     2.019
    20   1 H        0.925     0.101     1.775     2.084
    21   1 H        0.924     0.098     1.807     2.102
    22   1 H        0.925     0.083     1.953     2.185
    23   1 H        0.924     0.083     1.952     2.185
    24   1 H        0.925     0.129     1.544     1.943
    25   1 H        0.860     0.232     0.958     1.533

Wiberg/Mayer (AO) data.
largest (>0.10) Wiberg bond orders for each atom

     #   Z sym  total        # sym  WBO       # sym  WBO       # sym  WBO
 ---------------------------------------------------------------------------
     1   6 C    3.912 --     2 N    0.984    16 H    0.963    17 H    0.960
                            15 H    0.955
     2   7 N    3.697 --     3 C    1.404     6 C    1.168     1 C    0.984
     3   6 C    3.869 --     2 N    1.404     4 N    1.272    18 H    0.952
     4   7 N    3.593 --     3 C    1.272     5 C    1.191    25 H    0.918
     5   6 C    3.952 --     6 C    1.353    13 N    1.221     4 N    1.191
     6   6 C    3.914 --     5 C    1.353     2 N    1.168     7 C    1.059
     7   6 C    3.952 --     8 O    1.691     9 N    1.110     6 C    1.059
     8   8 O    2.040 --     7 C    1.691     9 N    0.151
     9   7 N    3.557 --    11 C    1.121     7 C    1.110    10 C    0.969
                             8 O    0.151    12 O    0.135
    10   6 C    3.910 --     9 N    0.969    19 H    0.968    20 H    0.964
                            21 H    0.962
    11   6 C    3.957 --    12 O    1.714     9 N    1.121    13 N    1.031
    12   8 O    2.064 --    11 C    1.714     9 N    0.135    13 N    0.122
    13   7 N    3.553 --     5 C    1.221    11 C    1.031    14 C    0.974
                            12 O    0.122
    14   6 C    3.923 --    13 N    0.974    22 H    0.971    23 H    0.970
                            24 H    0.963
    15   1 H    0.985 --     1 C    0.955
    16   1 H    0.986 --     1 C    0.963
    17   1 H    0.980 --     1 C    0.960
    18   1 H    0.983 --     3 C    0.952
    19   1 H    0.985 --    10 C    0.968
    20   1 H    0.984 --    10 C    0.964
    21   1 H    0.984 --    10 C    0.962
    22   1 H    0.990 --    14 C    0.971
    23   1 H    0.990 --    14 C    0.970
    24   1 H    0.983 --    14 C    0.963
    25   1 H    0.946 --     4 N    0.918
 ---------------------------------------------------------------------------

molecular dipole:
                 x           y           z       tot (Debye)
 q only:        2.597      -2.021       0.007
   full:        2.887      -2.547       0.017       9.785

           -------------------------------------------------
          | TOTAL ENERGY              -42.247807607961 Eh   |
          | GRADIENT NORM               0.008747233622 Eh/α |
          | HOMO-LUMO GAP               3.304877591343 eV   |
           -------------------------------------------------

 * finished run on 2024/06/05 at 19:58:28.816
