   * xtb version 6.6.1 (8d0f1dd) compiled by 'conda@1efc2f54142f' on 2023-08-01
          program call               : xtb struc.xyz --opt loose --input .xc1 --gfn2

   ID    Z sym.   atoms
    1    6 C      1, 3, 5-7, 10, 11, 14
    2    7 N      2, 4, 9, 13
    3    8 O      8, 12
    4    1 H      15-25
constraining bond 8 10 to    5.7600000 Å, actual value:    2.7438924 Å

          :  Hamiltonian                  GFN2-xTB          :
 * total energy  :   -26.0172344 Eh     change       -0.2401990E-09 Eh
 * total energy  :   -31.5092532 Eh     change       -0.5492019E+01 Eh
 * total energy  :   -36.0732543 Eh     change       -0.4564001E+01 Eh
 * total energy  :   -39.1931952 Eh     change       -0.3119941E+01 Eh
 * total energy  :   -40.9864037 Eh     change       -0.1793209E+01 Eh
 * total energy  :   -41.6417222 Eh     change       -0.6553185E+00 Eh
 * total energy  :   -41.7219625 Eh     change       -0.8024032E-01 Eh
 * total energy  :   -41.7331314 Eh     change       -0.1116882E-01 Eh
 * total energy  :   -41.7521834 Eh     change       -0.1905200E-01 Eh
 * total energy  :   -41.7676447 Eh     change       -0.1546135E-01 Eh
 * total energy  :   -42.1646400 Eh     change       -0.1243772E-02 Eh
 * total energy  :   -42.1656181 Eh     change       -0.9780705E-03 Eh
 * total energy  :   -42.1659319 Eh     change       -0.3137512E-03 Eh
 * total energy  :   -42.1664043 Eh     change       -0.4724519E-03 Eh
 * total energy  :   -42.1665862 Eh     change       -0.1818940E-03 Eh
 * total energy  :   -42.1668038 Eh     change       -0.2175992E-03 Eh
 * total energy  :   -42.1669395 Eh     change       -0.1356641E-03 Eh
 * total energy  :   -42.1669963 Eh     change       -0.5684985E-04 Eh
 * total energy  :   -42.1670390 Eh     change       -0.4270439E-04 Eh
   *** GEOMETRY OPTIMIZATION CONVERGED AFTER 54 ITERATIONS ***

 final structure:
================
25
 xtb: 6.6.1 (8d0f1dd)
C            3.91824139844149        0.45291668835661        0.16045791411210
N            2.77004306278008       -0.22790305320841        0.05180134962125
C            2.67142402804135       -1.57779427987029       -0.02933336910879
N            1.35440062069367       -1.95044662442087       -0.08425196492642
C            0.60201224926659       -0.82880299761356       -0.04788918169404
C            1.46460225450627        0.27490359704850        0.00892079703008
C            0.90356857256032        1.57325462151573       -0.04615123304751
O            1.71438590746786        2.65635733251555       -0.12816052167882
N           -0.46141473564838        1.65205956178707       -0.02650773538315
C           -3.84379112092116        1.22963018753818        0.10904808034284
C           -1.26911424974045        0.61382748982000       -0.00885424593627
O           -2.58906273609703        0.48052640539477        0.01393557442219
N           -0.74736954842039       -0.70866082611349       -0.05549702540884
C           -1.54454204918179       -1.91902468735921       -0.06680070990161
H            3.92977381935073        1.47815975270645        0.46520466425614
H            4.83235618083562       -0.10568880513857        0.15631957558652
H            2.59014164551947        2.41328871249939       -0.44943305049267
H            3.49732949714261       -2.25363201149372       -0.02420373677654
H           -3.67290127943676        2.30547337161751        0.09579898140982
H           -4.43337969250637        0.92217289745456       -0.75306302887424
H           -4.31265793623204        0.91957625477469        1.03944657216230
H           -1.28224117738750       -2.54054815391357        0.79099548817665
H           -1.36886292233774       -2.47245143113648       -0.99109890046515
H           -2.59717524919410       -1.66571861509713       -0.00631411911692
H            1.03466497459711       -2.90323684606454       -0.14319855640921

          :  Hamiltonian                  GFN2-xTB          :
         :: total energy             -42.167039032082 Eh    ::
         :: gradient norm              0.002859175612 Eh/a0 ::
         :: HOMO-LUMO gap              1.532121681129 eV    ::
         :: SCC energy               -42.663002950156 Eh    ::
         :: -> dispersion             -0.022115751158 Eh    ::
         :: repulsion energy           0.495437691376 Eh    ::

    * Orbital Energies and Occupations

         #    Occupation            Energy/Eh            Energy/eV
      -------------------------------------------------------------
         1        2.0000           -0.8809616             -23.9722
       ...           ...                  ...                  ...
        25        1.9997           -0.6648752             -18.0922
        26        1.9996           -0.6551327             -17.8271
        27        1.9995           -0.6498020             -17.6820
        28        1.9992           -0.6374377             -17.3456
        29        1.9988           -0.6290648             -17.1177
        30        1.9985           -0.6237581             -16.9733
        31        1.9973           -0.6093802             -16.5821
        32        1.9958           -0.5990978             -16.3023
        33        1.9945           -0.5923025             -16.1174
        34        1.9892           -0.5765008             -15.6874
        35        1.9715           -0.5531638             -15.0524
        36        1.9561           -0.5426997             -14.7676
        37        1.5101           -0.4792694             -13.0416 (HOMO)
        38        0.4471           -0.4229649             -11.5095 (LUMO)
        39        0.1030           -0.3833366             -10.4311
        40        0.0394           -0.3597048              -9.7881
        41        0.0013           -0.2788394              -7.5876
        42        0.0002           -0.2381956              -6.4816
        43        0.0000           -0.1649459              -4.4884
        44        0.0000           -0.1563514              -4.2545
        45        0.0000           -0.1387897              -3.7767
        46        0.0000           -0.1238238              -3.3694
        47        0.0000           -0.0537084              -1.4615
        48                         -0.0325239              -0.8850
       ...                                ...                  ...
        67                          0.4859391              13.2231
      -------------------------------------------------------------
                  HL-Gap            0.0563044 Eh            1.5321 eV

     #   Z          covCN         q      C6AA      α(0)
     1   6 C        2.789    -0.116    30.914     9.108
     2   7 N        2.801     0.095    19.602     6.576
     3   6 C        3.034     0.005    27.876     8.660
     4   7 N        2.765    -0.073    22.656     7.069
     5   6 C        3.039     0.105    25.645     8.306
     6   6 C        3.075    -0.032    28.715     8.786
     7   6 C        2.779     0.220    23.360     7.916
     8   8 O        1.659    -0.329    19.524     5.965
     9   7 N        1.833    -0.242    27.164     7.724
    10   6 C        3.617     0.012    20.844     6.586
    11   6 C        2.725     0.285    22.165     7.707
    12   8 O        1.704    -0.226    17.755     5.689
    13   7 N        2.742    -0.050    22.205     6.999
    14   6 C        3.698    -0.073    22.074     6.720
    15   1 H        0.927     0.082     1.957     2.188
    16   1 H        0.926     0.083     1.944     2.180
    17   1 H        0.805     0.342     0.606     1.223
    18   1 H        0.927     0.103     1.757     2.073
    19   1 H        0.925     0.097     1.808     2.103
    20   1 H        0.925     0.108     1.715     2.048
    21   1 H        0.925     0.106     1.729     2.056
    22   1 H        0.924     0.083     1.946     2.181
    23   1 H        0.924     0.084     1.934     2.175
    24   1 H        0.925     0.114     1.664     2.017
    25   1 H        0.860     0.214     1.035     1.594

Wiberg/Mayer (AO) data.
largest (>0.10) Wiberg bond orders for each atom

     #   Z sym  total        # sym  WBO       # sym  WBO       # sym  WBO
 ---------------------------------------------------------------------------
     1   6 C    3.424 --     2 N    1.280    16 H    0.970    15 H    0.960
                             3 C    0.110
     2   7 N    3.696 --     1 C    1.280     3 C    1.234     6 C    1.081
     3   6 C    3.615 --     2 N    1.234     4 N    1.186    18 H    0.960
                             1 C    0.110
     4   7 N    3.509 --     5 C    1.219     3 C    1.186    25 H    0.925
     5   6 C    3.833 --     6 C    1.269     4 N    1.219    13 N    1.180
     6   6 C    3.852 --     5 C    1.269     7 C    1.230     2 N    1.081
     7   6 C    3.709 --     9 N    1.252     6 C    1.230     8 O    1.140
     8   8 O    2.140 --     7 C    1.140    17 H    0.847
     9   7 N    2.994 --    11 C    1.427     7 C    1.252    12 O    0.100
    10   6 C    3.861 --    19 H    0.977    20 H    0.966    21 H    0.966
                            12 O    0.907
    11   6 C    3.788 --     9 N    1.427    12 O    1.183    13 N    1.052
    12   8 O    2.301 --    11 C    1.183    10 C    0.907     9 N    0.100
    13   7 N    3.459 --     5 C    1.180    11 C    1.052    14 C    0.981
    14   6 C    3.932 --    13 N    0.981    22 H    0.968    24 H    0.967
                            23 H    0.967
    15   1 H    0.991 --     1 C    0.960
    16   1 H    0.990 --     1 C    0.970
    17   1 H    0.880 --     8 O    0.847
    18   1 H    0.988 --     3 C    0.960
    19   1 H    0.988 --    10 C    0.977
    20   1 H    0.982 --    10 C    0.966
    21   1 H    0.982 --    10 C    0.966
    22   1 H    0.985 --    14 C    0.968
    23   1 H    0.985 --    14 C    0.967
    24   1 H    0.986 --    14 C    0.967
    25   1 H    0.953 --     4 N    0.925
 ---------------------------------------------------------------------------

molecular dipole:
                 x           y           z       tot (Debye)
 q only:        0.371      -1.530      -0.165
   full:        0.639      -2.023      -0.174       5.410

           -------------------------------------------------
          | TOTAL ENERGY              -42.167039032082 Eh   |
          | GRADIENT NORM               0.002859175612 Eh/α |
          | HOMO-LUMO GAP               1.532121681129 eV   |
           -------------------------------------------------

 * finished run on 2024/06/05 at 19:58:51.032
