   * xtb version 6.6.1 (8d0f1dd) compiled by 'conda@1efc2f54142f' on 2023-08-01
          program call               : xtb xtbopt.xyz --opt crude --input .xc2 --gfn2

   ID    Z sym.   atoms
    1    6 C      1, 3, 5-7, 10, 11, 14
    2    7 N      2, 4, 9, 13
    3    8 O      8, 12
    4    1 H      15-25
########################################################################
[WARNING] Please study the warnings concerning your input carefully
-1- readin_getIntValue: could not parse ''
########################################################################

          :  Hamiltonian                  GFN2-xTB          :
 * total energy  :   -42.1675388 Eh     change       -0.3339551E-12 Eh
 * total energy  :   -42.1768149 Eh     change       -0.9276162E-02 Eh
 * total energy  :   -42.1844053 Eh     change       -0.7590429E-02 Eh
 * total energy  :   -42.1895358 Eh     change       -0.5130486E-02 Eh
 * total energy  :   -42.1936646 Eh     change       -0.4128772E-02 Eh
 * total energy  :   -42.1966022 Eh     change       -0.2937562E-02 Eh
 * total energy  :   -42.1979910 Eh     change       -0.1388793E-02 Eh
 * total energy  :   -42.1983728 Eh     change       -0.3817924E-03 Eh
   *** GEOMETRY OPTIMIZATION CONVERGED AFTER 8 ITERATIONS ***

 final structure:
================
25
 xtb: 6.6.1 (8d0f1dd)
C            3.77348439494353        0.58571896791491        0.11940508934609
N            2.68785101620335       -0.18955434780273        0.03803295770265
C            2.69601024722866       -1.54534190789848       -0.01487274026039
N            1.41157842572083       -2.02262870457173       -0.05702166438248
C            0.57150356044997       -0.96663879999254       -0.03763754201222
C            1.34720246881770        0.20988133921360        0.00653963171004
C            0.66551306403650        1.44506696989358       -0.01981034074595
O            1.18741233794682        2.65885580880476       -0.06566791626631
N           -0.67685959546770        1.40443130132823       -0.00728168397741
C           -3.39207924620348        1.52687006206559        0.08693024716852
C           -1.36758402975404        0.30311989367026       -0.01264651683215
O           -2.68162701720293        0.29574342088555       -0.00276291357392
N           -0.79117141669520       -0.95970271388961       -0.04947749606249
C           -1.55574346115237       -2.18769604455229       -0.08766998141547
H            3.69207900360613        1.64146279588900        0.26458586807030
H            4.73517930747578        0.11530613194652        0.13953404102731
H            2.14276471444704        2.67326227458709       -0.19858325683288
H            3.57295251300880       -2.15388287340296       -0.00929073526986
H           -2.72055650037459        2.38094890253127        0.02886805895182
H           -4.10276830005562        1.55031836193891       -0.73604193257405
H           -3.92820094216154        1.53729848164914        1.03616894502606
H           -1.29953013348775       -2.81806273800187        0.76562906254239
H           -1.35918330351822       -2.72863234391106       -1.01535843595930
H           -2.61245195256339       -1.93998789039597       -0.04020473660106
H            1.16465635885072       -2.99791780630650       -0.10019439088531

          :  Hamiltonian                  GFN2-xTB          :
         :: total energy             -42.198372756127 Eh    ::
         :: gradient norm              0.007113215383 Eh/a0 ::
         :: HOMO-LUMO gap              1.648803991371 eV    ::
         :: SCC energy               -42.710789442158 Eh    ::
         :: -> dispersion             -0.022391916747 Eh    ::
         :: repulsion energy           0.512369611271 Eh    ::

    * Orbital Energies and Occupations

         #    Occupation            Energy/Eh            Energy/eV
      -------------------------------------------------------------
         1        2.0000           -0.8862365             -24.1157
       ...           ...                  ...                  ...
        25        1.9998           -0.6673939             -18.1607
        26        1.9996           -0.6526541             -17.7596
        27        1.9996           -0.6519879             -17.7415
        28        1.9994           -0.6436125             -17.5136
        29        1.9988           -0.6285079             -17.1026
        30        1.9988           -0.6278431             -17.0845
        31        1.9977           -0.6120999             -16.6561
        32        1.9957           -0.5972796             -16.2528
        33        1.9951           -0.5939795             -16.1630
        34        1.9900           -0.5770383             -15.7020
        35        1.9744           -0.5546265             -15.0922
        36        1.9664           -0.5480461             -14.9131
        37        1.5314           -0.4794974             -13.0478 (HOMO)
        38        0.4062           -0.4189050             -11.3990 (LUMO)
        39        0.1095           -0.3837120             -10.4413
        40        0.0372           -0.3571483              -9.7185
        41        0.0011           -0.2726424              -7.4190
        42        0.0000           -0.1889536              -5.1417
        43        0.0000           -0.1585459              -4.3143
        44        0.0000           -0.1372449              -3.7346
        45        0.0000           -0.1166611              -3.1745
        46        0.0000           -0.1050173              -2.8577
        47                         -0.0395376              -1.0759
        48                         -0.0322209              -0.8768
       ...                                ...                  ...
        67                          0.4997821              13.5998
      -------------------------------------------------------------
                  HL-Gap            0.0605924 Eh            1.6488 eV

     #   Z          covCN         q      C6AA      α(0)
     1   6 C        2.789    -0.110    30.768     9.086
     2   7 N        2.798     0.097    19.568     6.570
     3   6 C        3.030     0.003    27.927     8.668
     4   7 N        2.761    -0.071    22.624     7.064
     5   6 C        3.048     0.101    25.711     8.316
     6   6 C        3.072    -0.036    28.806     8.800
     7   6 C        2.797     0.225    23.261     7.901
     8   8 O        1.662    -0.311    19.206     5.916
     9   7 N        1.841    -0.263    27.675     7.796
    10   6 C        3.648     0.001    20.895     6.568
    11   6 C        2.787     0.282    22.230     7.723
    12   8 O        1.706    -0.200    17.336     5.622
    13   7 N        2.737    -0.046    22.135     6.988
    14   6 C        3.693    -0.072    22.058     6.720
    15   1 H        0.927     0.070     2.086     2.258
    16   1 H        0.926     0.084     1.935     2.175
    17   1 H        0.805     0.340     0.611     1.228
    18   1 H        0.927     0.103     1.759     2.074
    19   1 H        0.925     0.102     1.767     2.079
    20   1 H        0.925     0.101     1.778     2.085
    21   1 H        0.924     0.098     1.807     2.102
    22   1 H        0.924     0.086     1.922     2.168
    23   1 H        0.924     0.087     1.912     2.162
    24   1 H        0.925     0.114     1.659     2.014
    25   1 H        0.860     0.215     1.035     1.593

Wiberg/Mayer (AO) data.
largest (>0.10) Wiberg bond orders for each atom

     #   Z sym  total        # sym  WBO       # sym  WBO       # sym  WBO
 ---------------------------------------------------------------------------
     1   6 C    3.446 --     2 N    1.291    16 H    0.970    15 H    0.965
                             3 C    0.117
     2   7 N    3.697 --     1 C    1.291     3 C    1.230     6 C    1.079
     3   6 C    3.616 --     2 N    1.230     4 N    1.183    18 H    0.960
                             1 C    0.117
     4   7 N    3.509 --     5 C    1.226     3 C    1.183    25 H    0.926
     5   6 C    3.818 --     6 C    1.262     4 N    1.226    13 N    1.158
     6   6 C    3.852 --     5 C    1.262     7 C    1.226     2 N    1.079
     7   6 C    3.733 --     9 N    1.259     6 C    1.226     8 O    1.164
     8   8 O    2.181 --     7 C    1.164    17 H    0.851
     9   7 N    2.996 --    11 C    1.417     7 C    1.259
    10   6 C    3.871 --    19 H    0.969    20 H    0.967    21 H    0.965
                            12 O    0.932
    11   6 C    3.816 --     9 N    1.417    12 O    1.180    13 N    1.101
    12   8 O    2.311 --    11 C    1.180    10 C    0.932
    13   7 N    3.473 --     5 C    1.158    11 C    1.101    14 C    0.979
    14   6 C    3.930 --    13 N    0.979    24 H    0.969    22 H    0.968
                            23 H    0.967
    15   1 H    0.994 --     1 C    0.965
    16   1 H    0.991 --     1 C    0.970
    17   1 H    0.883 --     8 O    0.851
    18   1 H    0.988 --     3 C    0.960
    19   1 H    0.986 --    10 C    0.969
    20   1 H    0.983 --    10 C    0.967
    21   1 H    0.982 --    10 C    0.965
    22   1 H    0.986 --    14 C    0.968
    23   1 H    0.985 --    14 C    0.967
    24   1 H    0.986 --    14 C    0.969
    25   1 H    0.953 --     4 N    0.926
 ---------------------------------------------------------------------------

molecular dipole:
                 x           y           z       tot (Debye)
 q only:        0.792      -1.269      -0.081
   full:        1.208      -1.806      -0.087       5.527

           -------------------------------------------------
          | TOTAL ENERGY              -42.198372756127 Eh   |
          | GRADIENT NORM               0.007113215383 Eh/α |
          | HOMO-LUMO GAP               1.648803991371 eV   |
           -------------------------------------------------

 * finished run on 2024/06/05 at 19:58:51.384
