   * xtb version 6.6.1 (8d0f1dd) compiled by 'conda@1efc2f54142f' on 2023-08-01
          program call               : xtb struc.xyz --opt loose --input .xc1 --gfn2

   ID    Z sym.   atoms
    1    7 N      1, 17
    2    6 C      2-6, 8, 9, 11-16, 18-23, 25, 26, 28-33
    3    8 O      7, 10, 24, 27
    4    1 H      34-72
constraining bond 5 14 to    6.0000000 Å, actual value:    3.0100536 Å

          :  Hamiltonian                  GFN2-xTB          :
 * total energy  :   -97.8079046 Eh     change       -0.4035485E-08 Eh
 * total energy  :   -98.2088525 Eh     change       -0.4009479E+00 Eh
 * total energy  :   -98.4694774 Eh     change       -0.2606250E+00 Eh
 * total energy  :   -98.6451194 Eh     change       -0.1756420E+00 Eh
 * total energy  :   -98.7713380 Eh     change       -0.1262186E+00 Eh
 * total energy  :   -98.8687478 Eh     change       -0.9740985E-01 Eh
 * total energy  :   -98.9528821 Eh     change       -0.8413431E-01 Eh
 * total energy  :   -99.0241559 Eh     change       -0.7127379E-01 Eh
 * total energy  :   -99.0879429 Eh     change       -0.6378696E-01 Eh
 * total energy  :   -99.1431382 Eh     change       -0.5519527E-01 Eh
 * total energy  :   -99.3151480 Eh     change       -0.1424591E-03 Eh
 * total energy  :   -99.3152816 Eh     change       -0.1335228E-03 Eh
 * total energy  :   -99.3153676 Eh     change       -0.8606153E-04 Eh
 * total energy  :   -99.3154378 Eh     change       -0.7012794E-04 Eh
 * total energy  :   -99.3155103 Eh     change       -0.7256536E-04 Eh
 * total energy  :   -99.3155819 Eh     change       -0.7160455E-04 Eh
 * total energy  :   -99.3156433 Eh     change       -0.6138354E-04 Eh
 * total energy  :   -99.3157075 Eh     change       -0.6414616E-04 Eh
 * total energy  :   -99.3157483 Eh     change       -0.4083223E-04 Eh
   *** GEOMETRY OPTIMIZATION CONVERGED AFTER 55 ITERATIONS ***

 final structure:
================
72
 xtb: 6.6.1 (8d0f1dd)
N           -1.79400252828655        2.97755552890365        1.51513198045434
C           -2.18822207689033        1.75453260771585        1.43535196329832
C           -3.48848990504119        1.38430851508840        1.03055505773580
C           -3.82338152682370       -0.00077505351953        0.86058862847898
C           -4.83098558515766       -0.39660931093589       -0.04630615497109
C           -5.18965567131731       -1.71784385199477       -0.20990245215871
O           -6.12286265813775       -2.17429424219273       -1.07082933902220
C           -6.85294640593310       -1.25684640936039       -1.85136580377360
C           -4.55191321401042       -2.72531565699614        0.57012506101054
O           -4.99364558115982       -3.97792407333757        0.36893206317008
C           -4.48269646489130       -5.02677614497836        1.15920102933997
C           -3.55090730361426       -2.34400167009300        1.45664006469297
C           -3.18539591141277       -1.01978440412785        1.59040088806388
C           -1.01347807991208        3.63031629895864       -2.32254996521251
C           -0.93717639515228        2.24210681437686       -1.84509234018212
C            0.30706390934607        1.90172447941905       -1.13553819970104
N            0.61143692966197        0.68529985320494       -0.70743225576750
C            1.92593622079274        0.40789164398115       -0.17685287048461
C            2.86851792867355       -0.15500745962956       -1.26180458641958
C            4.30068484775493       -0.07173000856622       -0.81151811971932
C            5.02358868843401        1.09442338575561       -1.01055183909949
C            6.34114244613108        1.19499782262630       -0.59367549639259
C            6.96529503175634        0.12744264811952        0.03609303049611
O            8.23757741583213        0.10931467536580        0.47315333382944
C            9.04572651830622        1.24885679218974        0.28642600712911
C            6.23038755344139       -1.07175399171780        0.25050473031413
O            6.91368938289921       -2.05700938076881        0.86528717813924
C            6.28828677814718       -3.29799352062378        1.08822066932809
C            4.91187217261247       -1.14748218939209       -0.17278802592791
C           -0.26981171575439       -0.42901242081388       -0.94859759283214
C           -4.53294082495839        2.44822196782207        0.81957757670450
C           -4.69075612676872        3.28397759368416        2.09514018668298
C           -4.20007094468336        3.36188547796876       -0.36305450382206
H           -5.30921965234863        0.35537888028284       -0.65146412827171
H           -7.42048781150259       -0.56098797066689       -1.22698440340420
H           -7.54263770237755       -1.86019437507024       -2.43808731764045
H           -6.20030548143864       -0.69464961833288       -2.52700973565961
H           -4.64139405903087       -4.83869287811813        2.22481075479339
H           -5.03910540301932       -5.91356982450989        0.86242547281306
H           -3.41673185398511       -5.18784070425037        0.97050901639295
H           -3.05872094510137       -3.08433294562059        2.06712737078913
H           -2.43916175004346       -0.76880083634794        2.32752182493306
H           -1.90068105987447        3.96883751317763       -2.81718724209443
H           -0.22157902278920        4.32842917657640       -2.14556395210637
H           -1.79791615902995        2.04261512977205       -1.18010190422450
H           -1.09067728005966        1.54492381809325       -2.68583232486463
H           -1.49355954603761        0.92765155625023        1.63820120076131
H            1.02302929418850        2.68296097219303       -0.93686523718611
H            1.84036415480135       -0.30466661515693        0.64676610111190
H            2.35232759314142        1.33400229795647        0.21338954416635
H            2.74192616589662        0.44156192051458       -2.16756636549986
H            2.60028347805898       -1.18750456178360       -1.48750279424948
H            4.56579900689403        1.93500948161575       -1.50986975727026
H            6.87891559183927        2.11165285441820       -0.77179303974489
H            8.64296071901783        2.11666250482902        0.81757661005692
H            9.15979366158489        1.48983494616873       -0.77467496920703
H           10.01683158453923        0.98957804092347        0.70357916229897
H            7.03720359941882       -3.91837001206731        1.57680747253477
H            5.41841984614297       -3.19761486845956        1.74511638197106
H            5.98591459687121       -3.76904012308066        0.14768150930520
H            4.34958828200409       -2.05548907478120       -0.02103941571767
H           -0.30048963028966       -0.68688088835091       -2.01091296009282
H           -1.28508854520706       -0.19084948732623       -0.62540863323193
H            0.07737284003105       -1.29591447558180       -0.39203364411538
H           -5.49473901123419        1.96237197108695        0.63139255651843
H           -3.76494208178255        3.81171569951952        2.30539190958412
H           -4.93559399778157        2.64494648718723        2.94084307499312
H           -5.49078232587525        4.00779574606731        1.96335930611976
H           -3.24503466776207        3.84952060801418       -0.18923996404691
H           -4.15740633965415        2.79680446232612       -1.29340038179360
H           -4.96631241344235        4.12677465092541       -0.46286165066071
H           -0.84351498163325        3.12781374796255        1.83069549119354

          :  Hamiltonian                  GFN2-xTB          :
         :: total energy             -99.315748291574 Eh    ::
         :: gradient norm              0.001387012891 Eh/a0 ::
         :: HOMO-LUMO gap              0.059106629238 eV    ::
         :: SCC energy              -100.706342958849 Eh    ::
         :: -> dispersion             -0.069958390821 Eh    ::
         :: repulsion energy           1.389530418684 Eh    ::

    * Orbital Energies and Occupations

         #    Occupation            Energy/Eh            Energy/eV
      -------------------------------------------------------------
         1        2.0000           -0.8107432             -22.0614
       ...           ...                  ...                  ...
        78        1.9982           -0.5292834             -14.4025
        79        1.9981           -0.5284571             -14.3801
        80        1.9976           -0.5244227             -14.2703
        81        1.9969           -0.5204368             -14.1618
        82        1.9960           -0.5164647             -14.0537
        83        1.9940           -0.5097897             -13.8721
        84        1.9928           -0.5070248             -13.7968
        85        1.9829           -0.4932035             -13.4208
        86        1.9779           -0.4891352             -13.3100
        87        1.9101           -0.4663329             -12.6896
        88        1.8530           -0.4580676             -12.4647
        89        1.8377           -0.4563778             -12.4187
        90        1.1086           -0.4213995             -11.4669 (HOMO)
        91        1.0404           -0.4192274             -11.4078 (LUMO)
        92        0.3136           -0.3913122             -10.6481
        93        0.0043           -0.3206133              -8.7243
        94        0.0026           -0.3128758              -8.5138
        95        0.0025           -0.3120512              -8.4913
        96        0.0023           -0.3108893              -8.4597
        97        0.0001           -0.2606258              -7.0920
        98        0.0000           -0.1881895              -5.1209
        99        0.0000           -0.1809875              -4.9249
       100                         -0.1346094              -3.6629
       101                         -0.0639407              -1.7399
       ...                                ...                  ...
       171                          0.5831517              15.8684
      -------------------------------------------------------------
                  HL-Gap            0.0021721 Eh            0.0591 eV

     #   Z          covCN         q      C6AA      α(0)
     1   7 N        1.779    -0.313    28.919     7.964
     2   6 C        2.823     0.072    26.382     8.416
     3   6 C        2.963    -0.013    28.347     8.733
     4   6 C        2.968    -0.000    28.028     8.684
     5   6 C        2.920    -0.081    30.016     8.984
     6   6 C        2.859     0.132    25.105     8.213
     7   8 O        1.706    -0.231    17.824     5.700
     8   6 C        3.644     0.027    20.455     6.501
     9   6 C        2.864     0.134    25.072     8.208
    10   8 O        1.706    -0.218    17.625     5.668
    11   6 C        3.645     0.025    20.484     6.505
    12   6 C        2.910    -0.069    29.726     8.940
    13   6 C        2.921    -0.049    29.213     8.863
    14   6 C        2.837    -0.111    30.807     9.096
    15   6 C        3.804    -0.055    21.567     6.611
    16   6 C        2.851     0.007    27.868     8.652
    17   7 N        2.730     0.018    20.946     6.797
    18   6 C        3.755    -0.019    20.964     6.529
    19   6 C        3.807    -0.071    21.848     6.654
    20   6 C        2.968     0.000    28.025     8.683
    21   6 C        2.922    -0.049    29.216     8.864
    22   6 C        2.913    -0.067    29.674     8.933
    23   6 C        2.865     0.134    25.070     8.207
    24   8 O        1.706    -0.221    17.663     5.674
    25   6 C        3.645     0.025    20.495     6.506
    26   6 C        2.863     0.133    25.079     8.209
    27   8 O        1.706    -0.224    17.708     5.682
    28   6 C        3.645     0.027    20.461     6.502
    29   6 C        2.919    -0.079    29.966     8.977
    30   6 C        3.702    -0.071    22.025     6.711
    31   6 C        3.854    -0.006    20.644     6.462
    32   6 C        3.757    -0.112    22.692     6.792
    33   6 C        3.755    -0.112    22.690     6.792
    34   1 H        0.926     0.055     2.259     2.350
    35   1 H        0.924     0.055     2.262     2.352
    36   1 H        0.925     0.081     1.966     2.193
    37   1 H        0.924     0.048     2.342     2.393
    38   1 H        0.924     0.057     2.229     2.335
    39   1 H        0.925     0.083     1.949     2.183
    40   1 H        0.924     0.052     2.296     2.370
    41   1 H        0.926     0.053     2.287     2.365
    42   1 H        0.926     0.045     2.381     2.413
    43   1 H        0.926     0.064     2.154     2.295
    44   1 H        0.926     0.060     2.204     2.322
    45   1 H        0.922     0.113     1.674     2.023
    46   1 H        0.923     0.094     1.838     2.120
    47   1 H        0.923    -0.005     3.138     2.770
    48   1 H        0.926     0.081     1.971     2.195
    49   1 H        0.924     0.069     2.101     2.267
    50   1 H        0.924     0.072     2.059     2.244
    51   1 H        0.924     0.056     2.244     2.343
    52   1 H        0.924     0.055     2.257     2.349
    53   1 H        0.926     0.045     2.379     2.412
    54   1 H        0.926     0.059     2.210     2.325
    55   1 H        0.924     0.055     2.258     2.350
    56   1 H        0.924     0.056     2.243     2.342
    57   1 H        0.925     0.083     1.950     2.184
    58   1 H        0.925     0.082     1.956     2.187
    59   1 H        0.924     0.050     2.326     2.385
    60   1 H        0.924     0.053     2.285     2.364
    61   1 H        0.926     0.048     2.340     2.392
    62   1 H        0.924     0.077     2.014     2.219
    63   1 H        0.924     0.080     1.979     2.200
    64   1 H        0.925     0.080     1.974     2.197
    65   1 H        0.924     0.042     2.427     2.436
    66   1 H        0.925     0.071     2.072     2.251
    67   1 H        0.925     0.039     2.459     2.452
    68   1 H        0.925     0.050     2.315     2.380
    69   1 H        0.925     0.064     2.151     2.294
    70   1 H        0.925     0.025     2.655     2.548
    71   1 H        0.925     0.052     2.294     2.368
    72   1 H        0.860     0.135     1.506     1.923

Wiberg/Mayer (AO) data.
largest (>0.10) Wiberg bond orders for each atom

     #   Z sym  total        # sym  WBO       # sym  WBO       # sym  WBO
 ---------------------------------------------------------------------------
     1   7 N    2.706 --     2 C    1.653    72 H    0.952
     2   6 C    3.926 --     1 N    1.653     3 C    1.275    47 H    0.927
     3   6 C    3.612 --     2 C    1.275     4 C    1.202    31 C    1.010
     4   6 C    3.960 --    13 C    1.306     5 C    1.288     3 C    1.202
     5   6 C    3.907 --     6 C    1.435     4 C    1.288    34 H    0.957
     6   6 C    3.904 --     5 C    1.435     9 C    1.201     7 O    1.099
     7   8 O    2.251 --     6 C    1.099     8 C    0.978
     8   6 C    3.931 --     7 O    0.978    36 H    0.977    37 H    0.973
                            35 H    0.973
     9   6 C    3.836 --    12 C    1.357     6 C    1.201    10 O    1.117
    10   8 O    2.249 --     9 C    1.117    11 C    0.975
    11   6 C    3.929 --    39 H    0.977    10 O    0.975    40 H    0.973
                            38 H    0.973
    12   6 C    3.961 --    13 C    1.459     9 C    1.357    41 H    0.963
    13   6 C    3.873 --    12 C    1.459     4 C    1.306    42 H    0.963
    14   6 C    3.118 --    15 C    1.095    43 H    0.982    44 H    0.981
    15   6 C    3.983 --    14 C    1.095    16 C    1.071    46 H    0.897
                            45 H    0.872
    16   6 C    3.599 --    17 N    1.418    15 C    1.071    48 H    0.957
    17   7 N    3.487 --    16 C    1.418    30 C    1.002    18 C    0.987
    18   6 C    3.953 --    17 N    0.987    50 H    0.967    49 H    0.966
                            19 C    0.965
    19   6 C    3.977 --    20 C    1.008    52 H    0.974    51 H    0.970
                            18 C    0.965
    20   6 C    3.943 --    21 C    1.405    29 C    1.383    19 C    1.008
    21   6 C    3.948 --    22 C    1.420    20 C    1.405    53 H    0.968
    22   6 C    3.959 --    21 C    1.420    23 C    1.381    54 H    0.963
    23   6 C    3.893 --    22 C    1.381    26 C    1.219    24 O    1.112
    24   8 O    2.255 --    23 C    1.112    25 C    0.976
    25   6 C    3.927 --    57 H    0.977    24 O    0.976    55 H    0.972
                            56 H    0.972
    26   6 C    3.897 --    29 C    1.392    23 C    1.219    27 O    1.105
    27   8 O    2.255 --    26 C    1.105    28 C    0.978
    28   6 C    3.931 --    27 O    0.978    58 H    0.977    59 H    0.973
                            60 H    0.973
    29   6 C    3.958 --    26 C    1.392    20 C    1.383    61 H    0.962
    30   6 C    3.958 --    17 N    1.002    64 H    0.978    63 H    0.964
                            62 H    0.961
    31   6 C    3.973 --     3 C    1.010    33 C    0.984    32 C    0.980
                            65 H    0.957
    32   6 C    3.952 --    67 H    0.985    31 C    0.980    68 H    0.980
                            66 H    0.970
    33   6 C    3.962 --    70 H    0.985    31 C    0.984    71 H    0.980
                            69 H    0.976
    34   1 H    0.995 --     5 C    0.957
    35   1 H    0.993 --     8 C    0.973
    36   1 H    0.993 --     8 C    0.977
    37   1 H    0.993 --     8 C    0.973
    38   1 H    0.991 --    11 C    0.973
    39   1 H    0.992 --    11 C    0.977
    40   1 H    0.991 --    11 C    0.973
    41   1 H    0.995 --    12 C    0.963
    42   1 H    0.997 --    13 C    0.963
    43   1 H    0.995 --    14 C    0.982
    44   1 H    0.996 --    14 C    0.981
    45   1 H    0.940 --    15 C    0.872
    46   1 H    0.949 --    15 C    0.897
    47   1 H    0.971 --     2 C    0.927
    48   1 H    0.993 --    16 C    0.957
    49   1 H    0.992 --    18 C    0.966
    50   1 H    0.993 --    18 C    0.967
    51   1 H    0.995 --    19 C    0.970
    52   1 H    0.996 --    19 C    0.974
    53   1 H    0.997 --    21 C    0.968
    54   1 H    0.995 --    22 C    0.963
    55   1 H    0.991 --    25 C    0.972
    56   1 H    0.991 --    25 C    0.972
    57   1 H    0.992 --    25 C    0.977
    58   1 H    0.993 --    28 C    0.977
    59   1 H    0.993 --    28 C    0.973
    60   1 H    0.992 --    28 C    0.973
    61   1 H    0.996 --    29 C    0.962
    62   1 H    0.984 --    30 C    0.961
    63   1 H    0.988 --    30 C    0.964
    64   1 H    0.993 --    30 C    0.978
    65   1 H    0.990 --    31 C    0.957
    66   1 H    0.989 --    32 C    0.970
    67   1 H    0.996 --    32 C    0.985
    68   1 H    0.992 --    32 C    0.980
    69   1 H    0.993 --    33 C    0.976
    70   1 H    0.998 --    33 C    0.985
    71   1 H    0.993 --    33 C    0.980
    72   1 H    0.972 --     1 N    0.952
 ---------------------------------------------------------------------------

molecular dipole:
                 x           y           z       tot (Debye)
 q only:        0.744      -0.223      -1.035
   full:        0.838      -0.485      -0.861       3.292

           -------------------------------------------------
          | TOTAL ENERGY              -99.315748291574 Eh   |
          | GRADIENT NORM               0.001387012891 Eh/α |
          | HOMO-LUMO GAP               0.059106629238 eV   |
           -------------------------------------------------

 * finished run on 2024/04/06 at 11:12:33.493
