   * xtb version 6.6.1 (8d0f1dd) compiled by 'conda@1efc2f54142f' on 2023-08-01
          program call               : xtb struc.xyz --opt loose --input .xc1 --gfn2

   ID    Z sym.   atoms
    1    7 N      1, 17
    2    6 C      2-6, 8, 9, 11-16, 18-23, 25, 26, 28-33
    3    8 O      7, 10, 24, 27
    4    1 H      34-72
constraining bond 22 23 to    4.0000000 Å, actual value:    1.3846494 Å

          :  Hamiltonian                  GFN2-xTB          :
 * total energy  :   -98.1828165 Eh     change       -0.4035485E-08 Eh
 * total energy  :   -98.3661641 Eh     change       -0.1833476E+00 Eh
 * total energy  :   -98.5629345 Eh     change       -0.1967705E+00 Eh
 * total energy  :   -98.7532585 Eh     change       -0.1903239E+00 Eh
 * total energy  :   -98.9365316 Eh     change       -0.1832732E+00 Eh
 * total energy  :   -99.0421153 Eh     change       -0.1055836E+00 Eh
 * total energy  :   -99.0730700 Eh     change       -0.3095468E-01 Eh
 * total energy  :   -99.0955714 Eh     change       -0.2250145E-01 Eh
 * total energy  :   -99.1118552 Eh     change       -0.1628380E-01 Eh
 * total energy  :   -99.1244598 Eh     change       -0.1260460E-01 Eh
 * total energy  :   -99.2907342 Eh     change       -0.9295032E-03 Eh
 * total energy  :   -99.2911930 Eh     change       -0.4587228E-03 Eh
 * total energy  :   -99.2914684 Eh     change       -0.2754277E-03 Eh
 * total energy  :   -99.2915978 Eh     change       -0.1294537E-03 Eh
 * total energy  :   -99.2917089 Eh     change       -0.1110233E-03 Eh
 * total energy  :   -99.2917865 Eh     change       -0.7760318E-04 Eh
 * total energy  :   -99.2918595 Eh     change       -0.7301858E-04 Eh
 * total energy  :   -99.2919096 Eh     change       -0.5015824E-04 Eh
 * total energy  :   -99.2919459 Eh     change       -0.3624769E-04 Eh
   *** GEOMETRY OPTIMIZATION CONVERGED AFTER 89 ITERATIONS ***

 final structure:
================
72
 xtb: 6.6.1 (8d0f1dd)
N           -2.13923395856929        2.99416154461055        2.26209785371027
C           -1.99864362598655        2.24468863797272        1.27290761541808
C           -3.06318060432481        1.97320550489735        0.24601573515916
C           -3.49923334314370        0.51922085678165        0.33943801210917
C           -4.31817895487904       -0.02445874897043       -0.65262357978841
C           -4.74890282676961       -1.33918142169996       -0.59567920023488
O           -5.54461441714023       -1.93887096512057       -1.50664268725843
C           -6.08681289255534       -1.17369362467859       -2.55695447797805
C           -4.34293910197056       -2.16227647038927        0.48877187968317
O           -4.79581554160708       -3.43268351249902        0.45528997187932
C           -4.49989289545078       -4.29213239967329        1.53096357944277
C           -3.53782092763282       -1.61451172549014        1.47418450330981
C           -3.12440932513685       -0.28974999832245        1.40037095376705
C           -2.39950878286254        2.24325721408805       -1.13006501403908
C           -1.41938647868061        1.15073330770307       -1.59497238116799
C           -0.14729899085996        1.12214137750244       -0.83915595023219
N            0.44868389458135        0.02730749720139       -0.37443043609648
C            1.81668629801805        0.08719017568675        0.08079292129142
C            2.79696944690442       -0.36331694443128       -1.02076122463328
C            4.22348741539015       -0.02057987798376       -0.65227639909008
C            4.44653155637429        1.37020473129741       -0.66622100462418
C            4.30502243349521        2.56879605921220       -0.73479544105292
C            7.31706762623435        0.04500982599695       -0.18365242295894
O            8.61748228766468       -0.04714112534297        0.09532715811553
C            9.41084213414169        1.08948619651219       -0.16303698952468
C            6.48213930902536       -1.03108472177609       -0.02668727183769
O            7.11110931775608       -2.16197601991850        0.40972660030739
C            6.40182986886800       -3.35558210520875        0.62361682995978
C            5.08573993632851       -1.02632628525030       -0.33826425548506
C           -0.17193937567004       -1.27376340076261       -0.44209946065733
C           -4.32446333055353        2.87194970878970        0.41026049383206
C           -5.05753835493660        2.57301475945574        1.71576240964904
C           -4.01473925480492        4.36376476816127        0.32300099563488
H           -4.63367273110423        0.59574927281602       -1.47510015788113
H           -6.67947342078764       -0.33559840546930       -2.17808843054532
H           -6.73494616405281       -1.85257602202544       -3.10764450595012
H           -5.30656459756383       -0.79819649201096       -3.22728760048168
H           -4.88611726594857       -3.89955283868940        2.47621527121706
H           -4.99848562848978       -5.23137336472008        1.29990628602938
H           -3.42274253991785       -4.46694819893947        1.62071061928975
H           -3.23213191859405       -2.20837879017492        2.32015529520193
H           -2.52184461286411        0.10880587115326        2.20175319373589
H           -3.18092734041009        2.33579097918627       -1.88370873724072
H           -1.87253466037108        3.19709168251715       -1.08368065193630
H           -1.91669972930456        0.18274771151894       -1.57898563642745
H           -1.16971579958768        1.38136199927974       -2.63912746010474
H           -1.05119891952495        1.73016016954810        1.01874367885540
H            0.42536193090300        2.03647657004744       -0.78869862806154
H            1.93245893263040       -0.54807064546209        0.96298648817008
H            2.05919037122980        1.11507048164718        0.35995105087790
H            2.53372598878758        0.16293072588289       -1.94267165632239
H            2.69592401186082       -1.43478038422208       -1.19476539385158
H            6.92013153356629        0.98742601346581       -0.54422132490426
H            4.37004896213481        3.61613546818005       -0.77395559415313
H            9.03896004395810        1.96464334233970        0.37877770252677
H            9.43545418279213        1.31439059310394       -1.23326725178969
H           10.41423673335738        0.84859273982189        0.17915239421316
H            7.13241430950702       -4.04867359682727        1.03696085734685
H            5.58504417817477       -3.22593870400025        1.34198594510333
H            6.01165235210013       -3.77166694720254       -0.31221584688586
H            4.63931409129296       -2.01212086840794       -0.34669691574516
H           -0.22947127197433       -1.63425333522086       -1.47194104199525
H           -1.18066982842431       -1.23658987000643       -0.02496748478995
H            0.41563403081136       -1.97978516335648        0.13964172366294
H           -4.99564432496358        2.61666771625184       -0.41793106056890
H           -4.42815267928546        2.82728597421542        2.56236218247710
H           -5.33146511506409        1.52284926277151        1.78133813103270
H           -5.96579719731597        3.16755268686172        1.76760625799630
H           -3.33264700017714        4.65385163722746        1.11611475349561
H           -3.58459370192410        4.63431949702140       -0.63767427511224
H           -4.93657741041519        4.92642409786609        0.44499089381815
H           -1.34000073922573        3.12551583812896        2.87433245561861

          :  Hamiltonian                  GFN2-xTB          :
         :: total energy             -99.291945892548 Eh    ::
         :: gradient norm              0.002527805068 Eh/a0 ::
         :: HOMO-LUMO gap              1.346342927658 eV    ::
         :: SCC energy              -100.713649410343 Eh    ::
         :: -> dispersion             -0.074048837404 Eh    ::
         :: repulsion energy           1.420144353547 Eh    ::

    * Orbital Energies and Occupations

         #    Occupation            Energy/Eh            Energy/eV
      -------------------------------------------------------------
         1        2.0000           -0.8120788             -22.0978
       ...           ...                  ...                  ...
        78        1.9990           -0.5323152             -14.4850
        79        1.9984           -0.5254547             -14.2983
        80        1.9984           -0.5249705             -14.2852
        81        1.9977           -0.5194172             -14.1341
        82        1.9964           -0.5120919             -13.9347
        83        1.9962           -0.5115105             -13.9189
        84        1.9956           -0.5089649             -13.8496
        85        1.9948           -0.5063807             -13.7793
        86        1.9917           -0.4989902             -13.5782
        87        1.9827           -0.4873030             -13.2602
        88        1.9415           -0.4676581             -12.7256
        89        1.8848           -0.4564735             -12.4213
        90        1.7179           -0.4408211             -11.9954 (HOMO)
        91        0.4223           -0.3913439             -10.6490 (LUMO)
        92        0.0667           -0.3589153              -9.7666
        93        0.0151           -0.3349772              -9.1152
        94        0.0039           -0.3134231              -8.5287
        95        0.0032           -0.3101694              -8.4401
        96        0.0002           -0.2682754              -7.3001
        97        0.0001           -0.2578661              -7.0169
        98        0.0000           -0.1963500              -5.3430
        99        0.0000           -0.1875579              -5.1037
       100                         -0.1328637              -3.6154
       101                         -0.0759538              -2.0668
       ...                                ...                  ...
       171                          1.2617842              34.3349
      -------------------------------------------------------------
                  HL-Gap            0.0494772 Eh            1.3463 eV

     #   Z          covCN         q      C6AA      α(0)
     1   7 N        1.774    -0.270    27.827     7.811
     2   6 C        2.827     0.101    25.749     8.315
     3   6 C        3.908     0.006    20.415     6.422
     4   6 C        2.974     0.002    27.981     8.677
     5   6 C        2.920    -0.080    30.012     8.984
     6   6 C        2.862     0.128    25.185     8.226
     7   8 O        1.706    -0.232    17.852     5.705
     8   6 C        3.644     0.028    20.436     6.498
     9   6 C        2.864     0.127    25.208     8.230
    10   8 O        1.706    -0.231    17.831     5.701
    11   6 C        3.645     0.028    20.444     6.498
    12   6 C        2.914    -0.075    29.878     8.963
    13   6 C        2.921    -0.054    29.329     8.881
    14   6 C        3.812    -0.064    21.722     6.634
    15   6 C        3.802    -0.069    21.813     6.649
    16   6 C        2.843     0.004    27.919     8.659
    17   7 N        2.729     0.006    21.148     6.830
    18   6 C        3.755    -0.017    20.940     6.525
    19   6 C        3.819    -0.067    21.765     6.639
    20   6 C        2.942     0.017    27.622     8.620
    21   6 C        1.978    -0.026    31.752     9.100
    22   6 C        1.910    -0.098    33.808     9.390
    23   6 C        2.804     0.083    26.129     8.374
    24   8 O        1.705    -0.188    17.142     5.590
    25   6 C        3.658     0.018    20.552     6.506
    26   6 C        2.830     0.119    25.365     8.253
    27   8 O        1.707    -0.240    17.972     5.724
    28   6 C        3.636     0.031    20.420     6.501
    29   6 C        2.900    -0.064    29.601     8.921
    30   6 C        3.699    -0.070    22.004     6.709
    31   6 C        3.853    -0.007    20.670     6.466
    32   6 C        3.756    -0.118    22.821     6.811
    33   6 C        3.755    -0.118    22.825     6.812
    34   1 H        0.926     0.051     2.304     2.374
    35   1 H        0.924     0.053     2.281     2.362
    36   1 H        0.925     0.080     1.977     2.199
    37   1 H        0.924     0.046     2.369     2.407
    38   1 H        0.924     0.054     2.266     2.354
    39   1 H        0.925     0.080     1.978     2.199
    40   1 H        0.924     0.047     2.363     2.404
    41   1 H        0.926     0.051     2.305     2.374
    42   1 H        0.926     0.039     2.465     2.455
    43   1 H        0.925     0.059     2.206     2.323
    44   1 H        0.924     0.053     2.286     2.365
    45   1 H        0.925     0.065     2.138     2.286
    46   1 H        0.923     0.078     2.005     2.214
    47   1 H        0.922     0.006     2.960     2.691
    48   1 H        0.926     0.068     2.111     2.272
    49   1 H        0.924     0.066     2.134     2.285
    50   1 H        0.924     0.071     2.070     2.250
    51   1 H        0.924     0.057     2.230     2.335
    52   1 H        0.925     0.053     2.285     2.364
    53   1 H        0.925     0.054     2.265     2.354
    54   1 H        0.928     0.090     1.882     2.145
    55   1 H        0.924     0.060     2.196     2.318
    56   1 H        0.924     0.063     2.163     2.300
    57   1 H        0.925     0.088     1.896     2.153
    58   1 H        0.925     0.080     1.977     2.199
    59   1 H        0.924     0.045     2.382     2.414
    60   1 H        0.924     0.048     2.347     2.396
    61   1 H        0.925     0.056     2.243     2.342
    62   1 H        0.924     0.074     2.044     2.236
    63   1 H        0.924     0.080     1.979     2.200
    64   1 H        0.925     0.077     2.007     2.215
    65   1 H        0.924     0.036     2.499     2.472
    66   1 H        0.925     0.068     2.105     2.269
    67   1 H        0.925     0.035     2.516     2.480
    68   1 H        0.925     0.050     2.315     2.379
    69   1 H        0.925     0.061     2.189     2.314
    70   1 H        0.925     0.034     2.532     2.488
    71   1 H        0.925     0.054     2.277     2.360
    72   1 H        0.860     0.156     1.362     1.828

Wiberg/Mayer (AO) data.
largest (>0.10) Wiberg bond orders for each atom

     #   Z sym  total        # sym  WBO       # sym  WBO       # sym  WBO
 ---------------------------------------------------------------------------
     1   7 N    3.038 --     2 C    1.956    72 H    0.942
     2   6 C    3.928 --     1 N    1.956     3 C    0.995    47 H    0.901
     3   6 C    3.976 --     2 C    0.995     4 C    0.970    14 C    0.957
                            31 C    0.943
     4   6 C    3.952 --    13 C    1.416     5 C    1.367     3 C    0.970
     5   6 C    3.964 --     6 C    1.403     4 C    1.367    34 H    0.958
     6   6 C    3.908 --     5 C    1.403     9 C    1.225     7 O    1.096
     7   8 O    2.253 --     6 C    1.096     8 C    0.979
     8   6 C    3.933 --     7 O    0.979    36 H    0.977    35 H    0.974
                            37 H    0.974
     9   6 C    3.905 --    12 C    1.394     6 C    1.225    10 O    1.098
    10   8 O    2.252 --     9 C    1.098    11 C    0.978
    11   6 C    3.933 --    10 O    0.978    39 H    0.977    40 H    0.974
                            38 H    0.974
    12   6 C    3.964 --    13 C    1.401     9 C    1.394    41 H    0.964
    13   6 C    3.957 --     4 C    1.416    12 C    1.401    42 H    0.963
    14   6 C    3.972 --    15 C    0.981    44 H    0.973    43 H    0.969
                             3 C    0.957
    15   6 C    3.987 --    16 C    1.059    14 C    0.981    45 H    0.961
                            46 H    0.928
    16   6 C    3.575 --    17 N    1.388    15 C    1.059    48 H    0.958
    17   7 N    3.467 --    16 C    1.388    30 C    0.999    18 C    0.990
    18   6 C    3.951 --    17 N    0.990    19 C    0.967    49 H    0.966
                            50 H    0.964
    19   6 C    3.976 --    20 C    0.987    52 H    0.972    18 C    0.967
                            51 H    0.966
    20   6 C    3.880 --    29 C    1.599    21 C    1.149    19 C    0.987
    21   6 C    3.963 --    22 C    2.758    20 C    1.149
    22   6 C    3.902 --    21 C    2.758    54 H    0.969
    23   6 C    3.791 --    26 C    1.470    24 O    1.158    53 H    0.954
    24   8 O    2.282 --    23 C    1.158    25 C    0.972
    25   6 C    3.922 --    57 H    0.977    55 H    0.973    24 O    0.972
                            56 H    0.972
    26   6 C    3.851 --    23 C    1.470    29 C    1.179    27 O    1.067
    27   8 O    2.200 --    26 C    1.067    28 C    0.985
    28   6 C    3.936 --    27 O    0.985    58 H    0.975    59 H    0.973
                            60 H    0.971
    29   6 C    3.939 --    20 C    1.599    26 C    1.179    61 H    0.953
    30   6 C    3.958 --    17 N    0.999    64 H    0.978    62 H    0.966
                            63 H    0.961
    31   6 C    3.974 --    33 C    1.009    32 C    1.008    65 H    0.960
                             3 C    0.943
    32   6 C    3.980 --    31 C    1.008    67 H    0.982    68 H    0.982
                            66 H    0.975
    33   6 C    3.984 --    31 C    1.009    70 H    0.983    71 H    0.981
                            69 H    0.977
    34   1 H    0.996 --     5 C    0.958
    35   1 H    0.994 --     8 C    0.974
    36   1 H    0.993 --     8 C    0.977
    37   1 H    0.994 --     8 C    0.974
    38   1 H    0.993 --    11 C    0.974
    39   1 H    0.993 --    11 C    0.977
    40   1 H    0.994 --    11 C    0.974
    41   1 H    0.996 --    12 C    0.964
    42   1 H    0.998 --    13 C    0.963
    43   1 H    0.995 --    14 C    0.969
    44   1 H    0.996 --    14 C    0.973
    45   1 H    0.995 --    15 C    0.961
    46   1 H    0.970 --    15 C    0.928
    47   1 H    0.987 --     2 C    0.901
    48   1 H    0.995 --    16 C    0.958
    49   1 H    0.992 --    18 C    0.966
    50   1 H    0.994 --    18 C    0.964
    51   1 H    0.993 --    19 C    0.966
    52   1 H    0.997 --    19 C    0.972
    53   1 H    0.997 --    23 C    0.954
    54   1 H    0.991 --    22 C    0.969
    55   1 H    0.989 --    25 C    0.973
    56   1 H    0.987 --    25 C    0.972
    57   1 H    0.992 --    25 C    0.977
    58   1 H    0.993 --    28 C    0.975
    59   1 H    0.993 --    28 C    0.973
    60   1 H    0.991 --    28 C    0.971
    61   1 H    0.995 --    29 C    0.953
    62   1 H    0.984 --    30 C    0.966
    63   1 H    0.988 --    30 C    0.961
    64   1 H    0.994 --    30 C    0.978
    65   1 H    0.993 --    31 C    0.960
    66   1 H    0.991 --    32 C    0.975
    67   1 H    0.997 --    32 C    0.982
    68   1 H    0.994 --    32 C    0.982
    69   1 H    0.993 --    33 C    0.977
    70   1 H    0.997 --    33 C    0.983
    71   1 H    0.994 --    33 C    0.981
    72   1 H    0.971 --     1 N    0.942
 ---------------------------------------------------------------------------

molecular dipole:
                 x           y           z       tot (Debye)
 q only:        1.574       0.017      -0.722
   full:        1.832       0.034      -0.875       5.160

           -------------------------------------------------
          | TOTAL ENERGY              -99.291945892548 Eh   |
          | GRADIENT NORM               0.002527805068 Eh/α |
          | HOMO-LUMO GAP               1.346342927658 eV   |
           -------------------------------------------------

 * finished run on 2024/04/06 at 11:14:19.041
