   * xtb version 6.6.1 (8d0f1dd) compiled by 'conda@1efc2f54142f' on 2023-08-01
          program call               : xtb xtbopt.xyz --opt crude --input .xc2 --gfn2

   ID    Z sym.   atoms
    1    6 C      1, 3, 5-7, 10, 11, 14
    2    7 N      2, 4, 9, 13
    3    8 O      8, 12
    4    1 H      15-25
########################################################################
[WARNING] Please study the warnings concerning your input carefully
-1- readin_getIntValue: could not parse ''
########################################################################

          :  Hamiltonian                  GFN2-xTB          :
 * total energy  :   -40.4275772 Eh     change       -0.2629008E-12 Eh
 * total energy  :   -42.1329735 Eh     change       -0.1705396E+01 Eh
 * total energy  :   -42.1520352 Eh     change       -0.1906173E-01 Eh
 * total energy  :   -42.1552524 Eh     change       -0.3217113E-02 Eh
 * total energy  :   -42.1565014 Eh     change       -0.1249084E-02 Eh
 * total energy  :   -42.1570250 Eh     change       -0.5235916E-03 Eh
 * total energy  :   -42.1574935 Eh     change       -0.4684352E-03 Eh
 * total energy  :   -42.1577432 Eh     change       -0.2497184E-03 Eh
 * total energy  :   -42.1579420 Eh     change       -0.1987714E-03 Eh
 * total energy  :   -42.1580620 Eh     change       -0.1200092E-03 Eh
   *** GEOMETRY OPTIMIZATION CONVERGED AFTER 10 ITERATIONS ***

 final structure:
================
25
 xtb: 6.6.1 (8d0f1dd)
C            3.26238660442001        1.19168937835772       -0.02050413429586
N            2.19167946386892        0.27857114473611       -0.03094534253474
C            3.47676843310744       -0.28656179431636       -0.06813602242956
N            1.15216301474793       -2.20599731252278       -0.07756061362174
C            0.33878062290416       -1.22973592159134       -0.04239245996097
C            0.91138262483576        0.10996483496428       -0.01642508009781
C            0.05794735855190        1.31617142264612        0.03676230662856
O            0.53642556617396        2.42831207974883        0.05567539842782
N           -1.29016217493156        1.06212356306642        0.06277362799844
C           -2.20750030144202        2.18731890602531        0.12031589983685
C           -1.88307380119639       -0.19686090097328        0.03404997542900
O           -3.07855859610195       -0.31452498612971        0.05659971446936
N           -1.03867892675928       -1.30074213938652       -0.02164070890582
C           -1.66705537600387       -2.61111512220946       -0.04826054766237
H            3.44048008965217        1.73280317356576        0.90351814593716
H            3.39125783564346        1.80355483863864       -0.90676526665856
H            3.79002536055482       -0.76936798094119       -0.98149284851103
H            3.79846874917115       -0.80751170264973        0.82733646627454
H           -1.62403178958868        3.10511728700574        0.13378191566561
H           -2.86894562290237        2.16989447400355       -0.74680538397209
H           -2.82428367835184        2.11565959819889        1.01703111763288
H           -1.37320944043035       -3.19067101931068        0.82867754833814
H           -1.38723053111144       -3.14693058184945       -0.95673701883387
H           -2.74642180749846       -2.46965718430837       -0.03549079528311
H            0.80181783678501       -3.15326551316649       -0.09219427597057

          :  Hamiltonian                  GFN2-xTB          :
         :: total energy             -42.158061962939 Eh    ::
         :: gradient norm              0.005366952723 Eh/a0 ::
         :: HOMO-LUMO gap              1.717450543792 eV    ::
         :: SCC energy               -42.687724196929 Eh    ::
         :: -> dispersion             -0.021769036722 Eh    ::
         :: repulsion energy           0.529554374085 Eh    ::

    * Orbital Energies and Occupations

         #    Occupation            Energy/Eh            Energy/eV
      -------------------------------------------------------------
         1        2.0000           -0.8942602             -24.3341
       ...           ...                  ...                  ...
        25        1.9994           -0.6563587             -17.8604
        26        1.9993           -0.6551244             -17.8268
        27        1.9988           -0.6460013             -17.5786
        28        1.9988           -0.6454827             -17.5645
        29        1.9978           -0.6363168             -17.3151
        30        1.9966           -0.6291650             -17.1205
        31        1.9962           -0.6276809             -17.0801
        32        1.9924           -0.6164570             -16.7746
        33        1.9711           -0.5951896             -16.1959
        34        1.9502           -0.5864159             -15.9572
        35        1.9414           -0.5837711             -15.8852
        36        1.8924           -0.5737551             -15.6127
        37        1.8627           -0.5696508             -15.5010 (HOMO)
        38        0.4026           -0.5065356             -13.7835 (LUMO)
        39        0.0006           -0.3995440             -10.8721
        40        0.0003           -0.3888076             -10.5800
        41        0.0000           -0.3011833              -8.1956
        42        0.0000           -0.2765000              -7.5239
        43                         -0.2118429              -5.7645
        44                         -0.1675228              -4.5585
        45                         -0.1359145              -3.6984
        46                         -0.0958628              -2.6086
        47                         -0.0641809              -1.7465
        48                         -0.0493847              -1.3438
       ...                                ...                  ...
        67                          0.5601772              15.2432
      -------------------------------------------------------------
                  HL-Gap            0.0631151 Eh            1.7175 eV

     #   Z          covCN         q      C6AA      α(0)
     1   6 C        3.737    -0.017    20.967     6.534
     2   7 N        2.745     0.103    19.473     6.554
     3   6 C        3.738    -0.021    21.035     6.545
     4   7 N        1.791    -0.288    28.296     7.879
     5   6 C        2.826     0.165    24.442     8.101
     6   6 C        2.899     0.038    27.156     8.544
     7   6 C        2.772     0.268    22.484     7.766
     8   8 O        0.858    -0.338    20.480     6.068
     9   7 N        2.740    -0.066    22.522     7.048
    10   6 C        3.707    -0.063    21.852     6.682
    11   6 C        2.716     0.323    21.513     7.593
    12   8 O        0.860    -0.336    20.440     6.062
    13   7 N        2.741    -0.070    22.597     7.060
    14   6 C        3.703    -0.064    21.890     6.690
    15   1 H        0.925     0.130     1.537     1.939
    16   1 H        0.925     0.130     1.533     1.936
    17   1 H        0.926     0.129     1.544     1.943
    18   1 H        0.925     0.128     1.551     1.947
    19   1 H        0.925     0.118     1.630     1.997
    20   1 H        0.924     0.112     1.679     2.026
    21   1 H        0.924     0.112     1.680     2.027
    22   1 H        0.924     0.092     1.855     2.130
    23   1 H        0.924     0.092     1.855     2.130
    24   1 H        0.925     0.123     1.587     1.970
    25   1 H        0.860     0.201     1.100     1.643

Wiberg/Mayer (AO) data.
largest (>0.10) Wiberg bond orders for each atom

     #   Z sym  total        # sym  WBO       # sym  WBO       # sym  WBO
 ---------------------------------------------------------------------------
     1   6 C    3.885 --     3 C    0.975     2 N    0.967    15 H    0.940
                            16 H    0.940
     2   7 N    3.529 --     6 C    1.504     1 C    0.967     3 C    0.967
     3   6 C    3.886 --     1 C    0.975     2 N    0.967    17 H    0.941
                            18 H    0.940
     4   7 N    2.845 --     5 C    1.677    25 H    0.921    13 N    0.122
     5   6 C    3.947 --     4 N    1.677    13 N    1.123     6 C    1.057
     6   6 C    3.784 --     2 N    1.504     5 C    1.057     7 C    1.002
     7   6 C    3.930 --     8 O    1.683     9 N    1.151     6 C    1.002
     8   8 O    1.972 --     7 C    1.683     9 N    0.148
     9   7 N    3.523 --     7 C    1.151    11 C    1.080    10 C    0.974
                             8 O    0.148    12 O    0.104
    10   6 C    3.882 --     9 N    0.974    19 H    0.964    21 H    0.950
                            20 H    0.950
    11   6 C    3.949 --    12 O    1.696    13 N    1.090     9 N    1.080
    12   8 O    2.014 --    11 C    1.696    13 N    0.113     9 N    0.104
    13   7 N    3.492 --     5 C    1.123    11 C    1.090    14 C    0.978
                             4 N    0.122    12 O    0.113
    14   6 C    3.905 --    13 N    0.978    24 H    0.961    23 H    0.960
                            22 H    0.959
    15   1 H    0.972 --     1 C    0.940
    16   1 H    0.972 --     1 C    0.940
    17   1 H    0.972 --     3 C    0.941
    18   1 H    0.972 --     3 C    0.940
    19   1 H    0.981 --    10 C    0.964
    20   1 H    0.968 --    10 C    0.950
    21   1 H    0.968 --    10 C    0.950
    22   1 H    0.978 --    14 C    0.959
    23   1 H    0.978 --    14 C    0.960
    24   1 H    0.981 --    14 C    0.961
    25   1 H    0.951 --     4 N    0.921
 ---------------------------------------------------------------------------

molecular dipole:
                 x           y           z       tot (Debye)
 q only:        2.111      -0.653      -0.040
   full:        1.842      -0.889      -0.043       5.199

           -------------------------------------------------
          | TOTAL ENERGY              -42.158061962939 Eh   |
          | GRADIENT NORM               0.005366952723 Eh/α |
          | HOMO-LUMO GAP               1.717450543792 eV   |
           -------------------------------------------------

 * finished run on 2024/06/05 at 19:59:11.639
