   * xtb version 6.6.1 (8d0f1dd) compiled by 'conda@1efc2f54142f' on 2023-08-01
          program call               : xtb xtbopt.xyz --opt crude --input .xc2 --gfn2

   ID    Z sym.   atoms
    1    6 C      1, 3, 5-7, 10, 11, 14
    2    7 N      2, 4, 9, 13
    3    8 O      8, 12
    4    1 H      15-25
########################################################################
[WARNING] Please study the warnings concerning your input carefully
-1- readin_getIntValue: could not parse ''
########################################################################

          :  Hamiltonian                  GFN2-xTB          :
 * total energy  :   -41.1736605 Eh     change       -0.1563194E-12 Eh
 * total energy  :   -42.0343145 Eh     change       -0.8606540E+00 Eh
 * total energy  :   -42.1367202 Eh     change       -0.1024057E+00 Eh
 * total energy  :   -42.1596825 Eh     change       -0.2296236E-01 Eh
 * total energy  :   -42.1645840 Eh     change       -0.4901436E-02 Eh
 * total energy  :   -42.1651653 Eh     change       -0.5812876E-03 Eh
 * total energy  :   -42.1657378 Eh     change       -0.5725106E-03 Eh
 * total energy  :   -42.1662995 Eh     change       -0.5616682E-03 Eh
 * total energy  :   -42.1668014 Eh     change       -0.5019868E-03 Eh
 * total energy  :   -42.1673703 Eh     change       -0.5688527E-03 Eh
 * total energy  :   -42.1675240 Eh     change       -0.1537514E-03 Eh
 * total energy  :   -42.1672679 Eh     change        0.2561857E-03 Eh
 * total energy  :   -42.1679905 Eh     change       -0.7226036E-03 Eh
 * total energy  :   -42.1680825 Eh     change       -0.9202532E-04 Eh
   *** GEOMETRY OPTIMIZATION CONVERGED AFTER 14 ITERATIONS ***

 final structure:
================
25
 xtb: 6.6.1 (8d0f1dd)
C            2.95255981392755        1.06096255381126        0.72130686276854
N            2.27396617519443       -0.00744907587077       -0.01567225825720
C            2.93968086273033       -0.86493858398182       -0.66653486504278
N            3.61655911073148       -1.50447841746706       -1.39080853100789
C            0.18839794834281       -1.24090897828131        0.20352251300378
C            0.84780496837063       -0.06869196625977        0.00048124753133
C            0.10554921973468        1.16882398655709       -0.24112978482558
O            0.62029694903738        2.23692842030178       -0.48932974228298
N           -1.26771411613001        1.00945613196658       -0.16493051266568
C           -2.10468448822819        2.18435544268295       -0.35732035527644
C           -1.95061669807609       -0.17183537396811        0.04496708547845
O           -3.14889384057683       -0.22891604354609        0.07542759125708
N           -1.15225639662716       -1.31111886485508        0.22521519934198
C           -1.82328008594297       -2.57965434965508        0.42897113065433
H            2.68275145151004        1.00006101519543        1.77564241160622
H            4.02865917756968        0.96157802574815        0.60731618536827
H            2.62602130861114        2.02300226403675        0.32065164719001
H            3.95546607574482       -2.40986304765832       -1.63641641866429
H           -1.45773371865725        3.05420308669940       -0.43872366474974
H           -2.69943702998359        2.07247605270616       -1.26360130156008
H           -2.78314193313626        2.28743197957978        0.48868158014623
H           -1.45383720932500       -3.06389185732075        1.33197011177227
H           -1.66531997952615       -3.23580685974132       -0.42771429059132
H           -2.88940593966426       -2.38306061160236        0.53257708379039
H            0.71903988844083       -2.17042638747898        0.36662269291475

          :  Hamiltonian                  GFN2-xTB          :
         :: total energy             -42.168082486852 Eh    ::
         :: gradient norm              0.008247644756 Eh/a0 ::
         :: HOMO-LUMO gap              2.747195871326 eV    ::
         :: SCC energy               -42.744786928960 Eh    ::
         :: -> dispersion             -0.021680466717 Eh    ::
         :: repulsion energy           0.576573252592 Eh    ::

    * Orbital Energies and Occupations

         #    Occupation            Energy/Eh            Energy/eV
      -------------------------------------------------------------
         1        2.0000           -0.8844417             -24.0669
       ...           ...                  ...                  ...
        25        2.0000           -0.6660528             -18.1242
        26        2.0000           -0.6618330             -18.0094
        27        1.9999           -0.6490941             -17.6627
        28        1.9998           -0.6402661             -17.4225
        29        1.9996           -0.6278922             -17.0858
        30        1.9994           -0.6190649             -16.8456
        31        1.9992           -0.6159177             -16.7600
        32        1.9984           -0.6041391             -16.4395
        33        1.9971           -0.5952795             -16.1984
        34        1.9848           -0.5687793             -15.4773
        35        1.9697           -0.5577717             -15.1777
        36        1.9676           -0.5566584             -15.1474
        37        1.9430           -0.5475437             -14.8994 (HOMO)
        38        0.1097           -0.4465862             -12.1522 (LUMO)
        39        0.0261           -0.4231887             -11.5155
        40        0.0049           -0.3964809             -10.7888
        41        0.0008           -0.3687244             -10.0335
        42        0.0000           -0.2890210              -7.8647
        43        0.0000           -0.2314502              -6.2981
        44                         -0.1676379              -4.5617
        45                         -0.1235819              -3.3628
        46                         -0.1082051              -2.9444
        47                         -0.0616732              -1.6782
        48                         -0.0408261              -1.1109
       ...                                ...                  ...
        67                          0.9868986              26.8549
      -------------------------------------------------------------
                  HL-Gap            0.1009576 Eh            2.7472 eV

     #   Z          covCN         q      C6AA      α(0)
     1   6 C        3.708    -0.082    22.216     6.737
     2   7 N        2.732     0.069    20.039     6.649
     3   6 C        1.881     0.192    26.559     8.324
     4   7 N        1.772    -0.114    24.231     7.289
     5   6 C        2.857     0.019    27.589     8.609
     6   6 C        2.928    -0.015    28.387     8.738
     7   6 C        2.770     0.270    22.444     7.759
     8   8 O        0.858    -0.381    21.312     6.189
     9   7 N        2.743    -0.076    22.718     7.079
    10   6 C        3.709    -0.061    21.808     6.674
    11   6 C        2.725     0.316    21.628     7.613
    12   8 O        0.859    -0.361    20.912     6.131
    13   7 N        2.743    -0.023    21.686     6.916
    14   6 C        3.702    -0.074    22.085     6.720
    15   1 H        0.925     0.102     1.765     2.078
    16   1 H        0.925     0.097     1.809     2.104
    17   1 H        0.924     0.141     1.453     1.885
    18   1 H        0.861     0.284     0.763     1.368
    19   1 H        0.925     0.112     1.683     2.029
    20   1 H        0.925     0.098     1.801     2.098
    21   1 H        0.925     0.101     1.780     2.087
    22   1 H        0.925     0.089     1.886     2.147
    23   1 H        0.924     0.089     1.885     2.147
    24   1 H        0.925     0.124     1.584     1.968
    25   1 H        0.925     0.084     1.937     2.176

Wiberg/Mayer (AO) data.
largest (>0.10) Wiberg bond orders for each atom

     #   Z sym  total        # sym  WBO       # sym  WBO       # sym  WBO
 ---------------------------------------------------------------------------
     1   6 C    3.894 --    16 H    0.976    15 H    0.968    17 H    0.946
                             2 N    0.925
     2   7 N    3.628 --     3 C    1.476     6 C    0.966     1 C    0.925
                             4 N    0.199
     3   6 C    3.841 --     4 N    2.248     2 N    1.476
     4   7 N    3.431 --     3 C    2.248    18 H    0.883     2 N    0.199
     5   6 C    3.943 --     6 C    1.547    13 N    1.273    25 H    0.953
     6   6 C    3.872 --     5 C    1.547     7 C    1.057     2 N    0.966
     7   6 C    3.955 --     8 O    1.670     9 N    1.121     6 C    1.057
     8   8 O    2.012 --     7 C    1.670     9 N    0.145
     9   7 N    3.558 --     7 C    1.121    11 C    1.118    10 C    0.971
                             8 O    0.145    12 O    0.136
    10   6 C    3.910 --     9 N    0.971    19 H    0.968    21 H    0.962
                            20 H    0.961
    11   6 C    3.958 --    12 O    1.698     9 N    1.118    13 N    1.052
    12   8 O    2.042 --    11 C    1.698     9 N    0.136    13 N    0.114
    13   7 N    3.596 --     5 C    1.273    11 C    1.052    14 C    0.978
                            12 O    0.114
    14   6 C    3.921 --    13 N    0.978    22 H    0.969    23 H    0.966
                            24 H    0.965
    15   1 H    0.988 --     1 C    0.968
    16   1 H    0.989 --     1 C    0.976
    17   1 H    0.978 --     1 C    0.946
    18   1 H    0.915 --     4 N    0.883
    19   1 H    0.985 --    10 C    0.968
    20   1 H    0.983 --    10 C    0.961
    21   1 H    0.983 --    10 C    0.962
    22   1 H    0.987 --    14 C    0.969
    23   1 H    0.985 --    14 C    0.966
    24   1 H    0.984 --    14 C    0.965
    25   1 H    0.992 --     5 C    0.953
 ---------------------------------------------------------------------------

molecular dipole:
                 x           y           z       tot (Debye)
 q only:        3.080      -2.021      -0.085
   full:        3.309      -2.481      -0.018      10.513

           -------------------------------------------------
          | TOTAL ENERGY              -42.168082486852 Eh   |
          | GRADIENT NORM               0.008247644756 Eh/α |
          | HOMO-LUMO GAP               2.747195871326 eV   |
           -------------------------------------------------

 * finished run on 2024/06/05 at 19:59:11.614
