   * xtb version 6.6.1 (8d0f1dd) compiled by 'conda@1efc2f54142f' on 2023-08-01
          program call               : xtb xtbopt.xyz --opt crude --input .xc2 --gfn2

   ID    Z sym.   atoms
    1    6 C      1, 3, 5-7, 10, 11, 14
    2    7 N      2, 4, 9, 13
    3    8 O      8, 12
    4    1 H      15-25

          :  Hamiltonian                  GFN2-xTB          :
 * total energy  :   -42.0715124 Eh     change       -0.2771117E-12 Eh
   *** GEOMETRY OPTIMIZATION CONVERGED AFTER 1 ITERATIONS ***

 final structure:
================
25
 xtb: 6.6.1 (8d0f1dd)
C            3.30116346433073        0.36953140384227        0.79151969368467
N            2.43932147970086       -0.53013842831809        0.05555980902687
C            2.92151352755105       -1.40862179792014       -0.88764380669504
N            2.28213126384421       -2.14817409267843       -1.67048907243773
C            0.24007920651425       -1.42521901956665        0.35751054441692
C            1.03095031946722       -0.33358931521301        0.15005779160054
C            0.57058333313911        0.92213096318622       -0.11167447916494
O            0.78663538697081        2.04625441685858       -0.28868616656360
N           -2.63540318093567        2.57124492635327       -0.20521099678865
C           -3.62062507829137        3.53715592135237       -0.42775925054172
C           -2.04679158379487        1.57121095776839       -0.09754464218581
O           -1.30868979906029        0.65091275168004        0.04735408797889
N           -0.35385408164103       -2.37915101412242        0.66589477733787
C           -1.03802540719244       -3.58087058332932        0.67675702794050
H            2.93470882101759        0.48002840655221        1.81251228106226
H            4.30384766216059       -0.05045686844548        0.82551871614179
H            3.34984435589301        1.35680672126400        0.32337019213739
H            4.00231554976353       -1.47487738028522       -0.90208741473615
H           -3.12246181440543        4.46259185872064       -0.71761580525478
H           -4.29219470772779        3.22162156402951       -1.22595982282438
H           -4.18234107727578        3.70371343966554        0.49218574487546
H           -0.99363976680847       -4.00443495522012        1.68164613136567
H           -0.59662995042629       -4.27598941269507       -0.04129194691415
H           -2.08168328169856       -3.40058771872683        0.41186938932059
H            1.26967687305651       -2.06285420317638       -1.68462116488101

          :  Hamiltonian                  GFN2-xTB          :
         :: total energy             -42.071512384903 Eh    ::
         :: gradient norm              0.003732333297 Eh/a0 ::
         :: HOMO-LUMO gap              2.092925419318 eV    ::
         :: SCC energy               -42.740710142201 Eh    ::
         :: -> dispersion             -0.018814857902 Eh    ::
         :: repulsion energy           0.669171089172 Eh    ::

    * Orbital Energies and Occupations

         #    Occupation            Energy/Eh            Energy/eV
      -------------------------------------------------------------
         1        2.0000           -0.9106398             -24.7798
       ...           ...                  ...                  ...
        25        2.0000           -0.6591049             -17.9352
        26        2.0000           -0.6529963             -17.7689
        27        2.0000           -0.6472207             -17.6118
        28        2.0000           -0.6340675             -17.2539
        29        2.0000           -0.6261861             -17.0394
        30        2.0000           -0.6053932             -16.4736
        31        2.0000           -0.5975428             -16.2600
        32        2.0000           -0.5924518             -16.1214
        33        2.0000           -0.5818025             -15.8317
        34        2.0000           -0.5791757             -15.7602
        35        2.0000           -0.5608758             -15.2622
        36        1.9940           -0.5095487             -13.8655
        37        1.9814           -0.5005028             -13.6194 (HOMO)
        38        0.0128           -0.4235892             -11.5264 (LUMO)
        39        0.0075           -0.4193155             -11.4102
        40        0.0043           -0.4149445             -11.2912
        41        0.0000           -0.3359100              -9.1406
        42                         -0.3290365              -8.9535
        43                         -0.3104203              -8.4470
        44                         -0.2920758              -7.9478
        45                         -0.1667898              -4.5386
        46                         -0.1305343              -3.5520
        47                         -0.1050500              -2.8586
        48                         -0.0233902              -0.6365
       ...                                ...                  ...
        67                          1.2256967              33.3529
      -------------------------------------------------------------
                  HL-Gap            0.0769136 Eh            2.0929 eV

     #   Z          covCN         q      C6AA      α(0)
     1   6 C        3.694    -0.062    21.869     6.691
     2   7 N        2.745    -0.070    22.607     7.062
     3   6 C        2.766     0.124    25.262     8.231
     4   7 N        1.774    -0.322    29.176     7.999
     5   6 C        1.914     0.136    27.779     8.512
     6   6 C        2.892     0.027    27.392     8.581
     7   6 C        2.161     0.303    23.936     7.911
     8   8 O        0.856    -0.183    17.799     5.656
     9   7 N        1.820    -0.064    23.215     7.139
    10   6 C        3.685    -0.046    21.607     6.655
    11   6 C        1.768     0.305    24.350     7.978
    12   8 O        1.158    -0.285    19.366     5.908
    13   7 N        1.821     0.044    21.139     6.812
    14   6 C        3.685    -0.061    21.889     6.698
    15   1 H        0.924     0.069     2.102     2.267
    16   1 H        0.925     0.087     1.905     2.158
    17   1 H        0.924     0.068     2.111     2.272
    18   1 H        0.925     0.084     1.938     2.177
    19   1 H        0.924     0.119     1.622     1.992
    20   1 H        0.925     0.105     1.739     2.062
    21   1 H        0.924     0.109     1.709     2.044
    22   1 H        0.924     0.126     1.567     1.957
    23   1 H        0.924     0.125     1.572     1.961
    24   1 H        0.924     0.127     1.554     1.950
    25   1 H        0.860     0.137     1.495     1.915

Wiberg/Mayer (AO) data.
largest (>0.10) Wiberg bond orders for each atom

     #   Z sym  total        # sym  WBO       # sym  WBO       # sym  WBO
 ---------------------------------------------------------------------------
     1   6 C    3.955 --     2 N    0.989    15 H    0.978    17 H    0.973
                            16 H    0.972
     2   7 N    3.445 --     3 C    1.139     1 C    0.989     6 C    0.970
                             4 N    0.173
     3   6 C    3.959 --     4 N    1.832     2 N    1.139    18 H    0.933
     4   7 N    3.040 --     3 C    1.832    25 H    0.935     2 N    0.173
     5   6 C    3.936 --    13 N    2.339     6 C    1.291
     6   6 C    3.908 --     7 C    1.342     5 C    1.291     2 N    0.970
                             8 O    0.139
     7   6 C    3.869 --     8 O    2.029     6 C    1.342    12 O    0.261
     8   8 O    2.428 --     7 C    2.029     6 C    0.139
     9   7 N    3.575 --    11 C    2.188    10 C    1.021    12 O    0.302
    10   6 C    3.927 --     9 N    1.021    21 H    0.953    20 H    0.952
                            19 H    0.948
    11   6 C    3.948 --     9 N    2.188    12 O    1.634
    12   8 O    2.341 --    11 C    1.634     9 N    0.302     7 C    0.261
    13   7 N    3.669 --     5 C    2.339    14 C    1.047
    14   6 C    3.927 --    13 N    1.047    22 H    0.943    23 H    0.935
                            24 H    0.931
    15   1 H    0.995 --     1 C    0.978
    16   1 H    0.991 --     1 C    0.972
    17   1 H    0.994 --     1 C    0.973
    18   1 H    0.990 --     3 C    0.933
    19   1 H    0.984 --    10 C    0.948
    20   1 H    0.986 --    10 C    0.952
    21   1 H    0.986 --    10 C    0.953
    22   1 H    0.976 --    14 C    0.943
    23   1 H    0.976 --    14 C    0.935
    24   1 H    0.980 --    14 C    0.931
    25   1 H    0.980 --     4 N    0.935
 ---------------------------------------------------------------------------

molecular dipole:
                 x           y           z       tot (Debye)
 q only:       -1.804      -0.326       0.823
   full:       -2.059      -0.066       0.974       5.792

           -------------------------------------------------
          | TOTAL ENERGY              -42.071512384903 Eh   |
          | GRADIENT NORM               0.003732333297 Eh/α |
          | HOMO-LUMO GAP               2.092925419318 eV   |
           -------------------------------------------------

 * finished run on 2024/06/05 at 19:57:58.206
