   * xtb version 6.6.1 (8d0f1dd) compiled by 'conda@1efc2f54142f' on 2023-08-01
          program call               : xtb struc.xyz --opt loose --input .xc1 --gfn2

   ID    Z sym.   atoms
    1    6 C      1, 3, 5-7, 10, 11, 14
    2    7 N      2, 4, 9, 13
    3    8 O      8, 12
    4    1 H      15-25
constraining bond 15 17 to    3.2800000 Å, actual value:    1.7729540 Å

          :  Hamiltonian                  GFN2-xTB          :
 * total energy  :   -38.2047720 Eh     change       -0.2401990E-09 Eh
 * total energy  :   -40.2984104 Eh     change       -0.2093638E+01 Eh
 * total energy  :   -41.6493432 Eh     change       -0.1350933E+01 Eh
 * total energy  :   -42.0563815 Eh     change       -0.4070383E+00 Eh
 * total energy  :   -42.0878281 Eh     change       -0.3144663E-01 Eh
 * total energy  :   -42.0891637 Eh     change       -0.1335573E-02 Eh
 * total energy  :   -42.0906666 Eh     change       -0.1502878E-02 Eh
 * total energy  :   -42.0947739 Eh     change       -0.4107342E-02 Eh
 * total energy  :   -42.0974053 Eh     change       -0.2631341E-02 Eh
 * total energy  :   -42.1025941 Eh     change       -0.5188884E-02 Eh
 * total energy  :   -42.2102002 Eh     change       -0.5209417E-03 Eh
 * total energy  :   -42.2108116 Eh     change       -0.6114350E-03 Eh
 * total energy  :   -42.2110560 Eh     change       -0.2443203E-03 Eh
 * total energy  :   -42.2112343 Eh     change       -0.1783685E-03 Eh
 * total energy  :   -42.2113608 Eh     change       -0.1264888E-03 Eh
 * total energy  :   -42.2114580 Eh     change       -0.9723463E-04 Eh
 * total energy  :   -42.2115347 Eh     change       -0.7667347E-04 Eh
 * total energy  :   -42.2115773 Eh     change       -0.4260091E-04 Eh
 * total energy  :   -42.2116029 Eh     change       -0.2553201E-04 Eh
   *** GEOMETRY OPTIMIZATION CONVERGED AFTER 37 ITERATIONS ***

 final structure:
================
25
 xtb: 6.6.1 (8d0f1dd)
C            3.29115515009667        0.93089303086006       -0.04505557857010
N            2.37474521987457       -0.04722263269732        0.00689056967778
C            2.59067276762792       -1.37915867728690        0.12818374657866
N            1.39586420204335       -2.05057373233078        0.12930556987835
C            0.39879674416733       -1.14438763717716        0.01414355822414
C            0.99114417310775        0.12861121868748       -0.04283103353860
C            0.19208110357528        1.26885354871873       -0.01146627750368
O            0.63581996758164        2.52069612480017        0.08892103695930
N           -1.16017408926648        1.06550101573320       -0.04951194944605
C           -2.07211420616639        2.19775679352354       -0.06507885606057
C           -1.77950247667845       -0.18873340613221       -0.07677037908559
O           -2.97502290366621       -0.29232761854267       -0.13246214750040
N           -0.94514229644234       -1.31433432839992       -0.01671998693437
C           -1.54466188969425       -2.63273261246976       -0.00851426123277
H            4.31129676681495        0.69532005457572        0.15237968565394
H            3.05560546186318        1.87780127614024       -0.48579993397979
H            1.59308877324046        2.53097919635471        0.26701239821095
H            3.54932324629347       -1.84304305127869        0.20448710298380
H           -1.49904402715934        3.11916638025971       -0.07054127948088
H           -2.70451790491650        2.13975186778425       -0.95123370878094
H           -2.71724525447022        2.16035902529689        0.81294567056730
H           -1.30821412982411       -3.15499167065116        0.91936861161674
H           -1.19537138601478       -3.21395280280441       -0.86242929327456
H           -2.62375291582524       -2.50497144313877       -0.07981532819005
H            1.30560141793777       -3.05102137822486        0.20576368112742

          :  Hamiltonian                  GFN2-xTB          :
         :: total energy             -42.211602852736 Eh    ::
         :: gradient norm              0.002731091158 Eh/a0 ::
         :: HOMO-LUMO gap              1.619306119071 eV    ::
         :: SCC energy               -42.731637140651 Eh    ::
         :: -> dispersion             -0.023037041954 Eh    ::
         :: repulsion energy           0.519905382741 Eh    ::

    * Orbital Energies and Occupations

         #    Occupation            Energy/Eh            Energy/eV
      -------------------------------------------------------------
         1        2.0000           -0.8958080             -24.3762
       ...           ...                  ...                  ...
        25        1.9997           -0.6698961             -18.2288
        26        1.9997           -0.6677341             -18.1700
        27        1.9995           -0.6567438             -17.8709
        28        1.9991           -0.6449270             -17.5494
        29        1.9987           -0.6369585             -17.3325
        30        1.9976           -0.6217860             -16.9197
        31        1.9972           -0.6174051             -16.8004
        32        1.9964           -0.6117141             -16.6456
        33        1.9957           -0.6075889             -16.5333
        34        1.9874           -0.5819872             -15.8367
        35        1.9823           -0.5738853             -15.6162
        36        1.9617           -0.5552272             -15.1085
        37        1.5390           -0.4903810             -13.3439 (HOMO)
        38        0.4283           -0.4308726             -11.7246 (LUMO)
        39        0.0873           -0.3884303             -10.5697
        40        0.0298           -0.3621938              -9.8558
        41        0.0016           -0.2916565              -7.9364
        42        0.0000           -0.2035948              -5.5401
        43        0.0000           -0.1741543              -4.7390
        44        0.0000           -0.1397578              -3.8030
        45        0.0000           -0.1301090              -3.5404
        46        0.0000           -0.1092275              -2.9722
        47        0.0000           -0.0688210              -1.8727
        48                         -0.0365647              -0.9950
       ...                                ...                  ...
        67                          0.5270411              14.3415
      -------------------------------------------------------------
                  HL-Gap            0.0595084 Eh            1.6193 eV

     #   Z          covCN         q      C6AA      α(0)
     1   6 C        2.786    -0.123    31.100     9.135
     2   7 N        2.798     0.096    19.585     6.573
     3   6 C        3.028     0.007    27.831     8.653
     4   7 N        2.769    -0.066    22.519     7.048
     5   6 C        3.015     0.099    25.779     8.329
     6   6 C        3.095    -0.033    28.704     8.781
     7   6 C        2.774     0.190    23.935     8.013
     8   8 O        1.659    -0.333    19.595     5.976
     9   7 N        2.745    -0.048    22.165     6.992
    10   6 C        3.706    -0.068    21.962     6.699
    11   6 C        2.727     0.306    21.794     7.643
    12   8 O        0.859    -0.358    20.852     6.122
    13   7 N        2.737    -0.056    22.330     7.018
    14   6 C        3.697    -0.071    22.032     6.714
    15   1 H        0.927     0.086     1.922     2.168
    16   1 H        0.926     0.075     2.027     2.226
    17   1 H        0.804     0.349     0.590     1.207
    18   1 H        0.927     0.107     1.721     2.051
    19   1 H        0.925     0.111     1.687     2.031
    20   1 H        0.924     0.108     1.712     2.046
    21   1 H        0.925     0.106     1.733     2.059
    22   1 H        0.924     0.085     1.931     2.173
    23   1 H        0.924     0.085     1.929     2.172
    24   1 H        0.925     0.126     1.568     1.958
    25   1 H        0.860     0.219     1.014     1.578

Wiberg/Mayer (AO) data.
largest (>0.10) Wiberg bond orders for each atom

     #   Z sym  total        # sym  WBO       # sym  WBO       # sym  WBO
 ---------------------------------------------------------------------------
     1   6 C    3.418 --     2 N    1.267    15 H    0.970    16 H    0.955
                             3 C    0.114
     2   7 N    3.683 --     1 C    1.267     3 C    1.238     6 C    1.079
     3   6 C    3.630 --     2 N    1.238     4 N    1.190    18 H    0.959
                             1 C    0.114
     4   7 N    3.512 --     5 C    1.222     3 C    1.190    25 H    0.924
     5   6 C    3.804 --     6 C    1.241     4 N    1.222    13 N    1.176
     6   6 C    3.876 --     7 C    1.275     5 C    1.241     2 N    1.079
     7   6 C    3.705 --     6 C    1.275     9 N    1.182     8 O    1.144
     8   8 O    2.146 --     7 C    1.144    17 H    0.830
     9   7 N    3.495 --     7 C    1.182    11 C    1.076    10 C    0.972
                            12 O    0.121
    10   6 C    3.907 --     9 N    0.972    19 H    0.969    21 H    0.960
                            20 H    0.959
    11   6 C    3.911 --    12 O    1.688     9 N    1.076    13 N    1.061
    12   8 O    2.015 --    11 C    1.688    13 N    0.124     9 N    0.121
    13   7 N    3.478 --     5 C    1.176    11 C    1.061    14 C    0.977
                            12 O    0.124
    14   6 C    3.920 --    13 N    0.977    23 H    0.968    22 H    0.967
                            24 H    0.963
    15   1 H    0.990 --     1 C    0.970
    16   1 H    0.992 --     1 C    0.955
    17   1 H    0.877 --     8 O    0.830
    18   1 H    0.987 --     3 C    0.959
    19   1 H    0.985 --    10 C    0.969
    20   1 H    0.978 --    10 C    0.959
    21   1 H    0.978 --    10 C    0.960
    22   1 H    0.985 --    14 C    0.967
    23   1 H    0.985 --    14 C    0.968
    24   1 H    0.982 --    14 C    0.963
    25   1 H    0.951 --     4 N    0.924
 ---------------------------------------------------------------------------

molecular dipole:
                 x           y           z       tot (Debye)
 q only:        1.877      -0.816       0.204
   full:        2.370      -1.116       0.219       6.682

           -------------------------------------------------
          | TOTAL ENERGY              -42.211602852736 Eh   |
          | GRADIENT NORM               0.002731091158 Eh/α |
          | HOMO-LUMO GAP               1.619306119071 eV   |
           -------------------------------------------------

 * finished run on 2024/06/05 at 19:58:55.396
