   * xtb version 6.6.1 (8d0f1dd) compiled by 'conda@1efc2f54142f' on 2023-08-01
          program call               : xtb struc.xyz --opt loose --input .xc1 --gfn2

   ID    Z sym.   atoms
    1    6 C      1, 3, 5-7, 10, 11, 14
    2    7 N      2, 4, 9, 13
    3    8 O      8, 12
    4    1 H      15-25
constraining bond 3 6 to    5.0000000 Å, actual value:    2.1783507 Å

          :  Hamiltonian                  GFN2-xTB          :
 * total energy  :   -28.0319788 Eh     change       -0.6650680E-10 Eh
 * total energy  :   -32.7665211 Eh     change       -0.4734542E+01 Eh
 * total energy  :   -36.0578723 Eh     change       -0.3291351E+01 Eh
 * total energy  :   -38.3760160 Eh     change       -0.2318144E+01 Eh
 * total energy  :   -40.2701497 Eh     change       -0.1894134E+01 Eh
 * total energy  :   -41.1918100 Eh     change       -0.9216603E+00 Eh
 * total energy  :   -41.4146868 Eh     change       -0.2228769E+00 Eh
 * total energy  :   -41.4962197 Eh     change       -0.8153289E-01 Eh
 * total energy  :   -41.5440749 Eh     change       -0.4785514E-01 Eh
 * total energy  :   -41.5930366 Eh     change       -0.4896170E-01 Eh
 * total energy  :   -42.1657567 Eh     change       -0.1829864E-03 Eh
 * total energy  :   -42.1659424 Eh     change       -0.1856322E-03 Eh
 * total energy  :   -42.1661156 Eh     change       -0.1732084E-03 Eh
 * total energy  :   -42.1661721 Eh     change       -0.5648397E-04 Eh
 * total energy  :   -42.1663260 Eh     change       -0.1539832E-03 Eh
 * total energy  :   -42.1664078 Eh     change       -0.8172779E-04 Eh
 * total energy  :   -42.1664364 Eh     change       -0.2862424E-04 Eh
 * total energy  :   -42.1665001 Eh     change       -0.6374233E-04 Eh
 * total energy  :   -42.1665449 Eh     change       -0.4475554E-04 Eh
   *** GEOMETRY OPTIMIZATION CONVERGED AFTER 136 ITERATIONS ***

 final structure:
================
25
 xtb: 6.6.1 (8d0f1dd)
C            3.11925695336256        0.17151447582830       -0.20038561653989
N            1.67534017880193        0.08975376189380        0.04966543736759
C            4.18442130809266       -0.77572766130580        0.44543773497265
N            0.95288661197832       -1.01516469844523       -0.03617911862228
C           -0.32696171110910       -0.65878618653625       -0.04851754603771
C           -0.53744771969615        0.75579462079643       -0.00658332317343
C            0.83321689538662        1.28987420637984        0.06950083180618
O            1.27938820459430        2.40384971122244        0.13017519457871
N           -1.84881195233919        0.99474625885900       -0.01925883080646
C           -2.54599936801319        2.24410756540053        0.01084594210946
C           -2.51626081282709       -0.26131224420961       -0.08147491186868
O           -3.69969290845365       -0.41416775554167       -0.11726142340887
N           -1.53487573253070       -1.26331727086239       -0.09341338099720
C           -1.83898814729327       -2.66544624427372       -0.15196649130612
H            4.19889519255665       -0.65193369630033        1.52631708575757
H            3.23525685806481        0.05446568902778       -1.28925596195677
H            3.37499630347836        1.20837328514602        0.04998226460225
H            5.14597190840648       -0.48729953579912        0.03442563052418
H           -1.83217622003220        3.05865246450082        0.11381193869884
H           -3.12622439129013        2.36699932753415       -0.90747697030568
H           -3.25217086735274        2.25053710222208        0.84492640079507
H           -1.41566325979144       -3.17868065626091        0.71269994469190
H           -1.41769911337611       -3.10631649632852       -1.05734051696203
H           -2.92280846906509       -2.77697674246792       -0.15724567946670
H            3.97658177256169       -1.81530073885487        0.20974298344713

          :  Hamiltonian                  GFN2-xTB          :
         :: total energy             -42.166544893938 Eh    ::
         :: gradient norm              0.003176481733 Eh/a0 ::
         :: HOMO-LUMO gap              0.603984538675 eV    ::
         :: SCC energy               -42.655588573735 Eh    ::
         :: -> dispersion             -0.020744851320 Eh    ::
         :: repulsion energy           0.488605303879 Eh    ::

    * Orbital Energies and Occupations

         #    Occupation            Energy/Eh            Energy/eV
      -------------------------------------------------------------
         1        2.0000           -0.9095629             -24.7505
       ...           ...                  ...                  ...
        25        1.9997           -0.6778652             -18.4457
        26        1.9990           -0.6579047             -17.9025
        27        1.9977           -0.6443583             -17.5339
        28        1.9970           -0.6398731             -17.4118
        29        1.9957           -0.6341196             -17.2553
        30        1.9948           -0.6312931             -17.1784
        31        1.9930           -0.6265076             -17.0481
        32        1.9808           -0.6103914             -16.6096
        33        1.9754           -0.6064077             -16.5012
        34        1.9703           -0.6033965             -16.4193
        35        1.9432           -0.5928926             -16.1334
        36        1.8594           -0.5778355             -15.7237
        37        1.4756           -0.5533347             -15.0570 (HOMO)
        38        0.8184           -0.5311387             -14.4530 (LUMO)
        39        0.0004           -0.4037491             -10.9866
        40        0.0000           -0.3652592              -9.9392
        41        0.0000           -0.3408422              -9.2748
        42                         -0.2521759              -6.8621
        43                         -0.1990660              -5.4169
        44                         -0.1961739              -5.3382
        45                         -0.1144721              -3.1149
        46                         -0.0864613              -2.3527
        47                         -0.0643430              -1.7509
        48                         -0.0461733              -1.2564
       ...                                ...                  ...
        67                          0.5541581              15.0794
      -------------------------------------------------------------
                  HL-Gap            0.0221960 Eh            0.6040 eV

     #   Z          covCN         q      C6AA      α(0)
     1   6 C        3.727    -0.015    20.953     6.535
     2   7 N        2.948     0.056    20.260     6.685
     3   6 C        3.745    -0.118    22.838     6.817
     4   7 N        1.934    -0.131    24.607     7.355
     5   6 C        3.170     0.119    25.053     8.177
     6   6 C        3.070     0.009    27.747     8.637
     7   6 C        2.837     0.254    22.745     7.816
     8   8 O        0.856    -0.279    19.404     5.906
     9   7 N        2.788     0.015    20.997     6.806
    10   6 C        3.689    -0.070    22.038     6.719
    11   6 C        2.907     0.310    21.745     7.646
    12   8 O        0.857    -0.301    19.793     5.965
    13   7 N        2.786    -0.023    21.692     6.917
    14   6 C        3.688    -0.070    22.032     6.718
    15   1 H        0.925     0.098     1.807     2.102
    16   1 H        0.923     0.116     1.647     2.007
    17   1 H        0.924     0.118     1.630     1.997
    18   1 H        0.925     0.102     1.763     2.077
    19   1 H        0.925     0.115     1.653     2.010
    20   1 H        0.924     0.125     1.576     1.963
    21   1 H        0.924     0.125     1.573     1.961
    22   1 H        0.924     0.113     1.671     2.022
    23   1 H        0.924     0.113     1.673     2.023
    24   1 H        0.925     0.122     1.597     1.976
    25   1 H        0.925     0.098     1.805     2.101

Wiberg/Mayer (AO) data.
largest (>0.10) Wiberg bond orders for each atom

     #   Z sym  total        # sym  WBO       # sym  WBO       # sym  WBO
 ---------------------------------------------------------------------------
     1   6 C    3.877 --     3 C    0.993     2 N    0.977    17 H    0.946
                            16 H    0.909
     2   7 N    3.418 --     4 N    1.249     7 C    0.978     1 C    0.977
     3   6 C    3.890 --     1 C    0.993    18 H    0.960    25 H    0.960
                            15 H    0.953
     4   7 N    2.773 --     5 C    1.346     2 N    1.249
     5   6 C    3.861 --     4 N    1.346    13 N    1.200     6 C    1.158
     6   6 C    3.710 --     9 N    1.291     5 C    1.158     7 C    1.054
     7   6 C    3.854 --     8 O    1.738     6 C    1.054     2 N    0.978
     8   8 O    1.922 --     7 C    1.738
     9   7 N    3.498 --     6 C    1.291    11 C    1.017    10 C    1.000
    10   6 C    3.898 --     9 N    1.000    19 H    0.970    21 H    0.940
                            20 H    0.936
    11   6 C    3.919 --    12 O    1.730    13 N    1.077     9 N    1.017
    12   8 O    1.984 --    11 C    1.730    13 N    0.113
    13   7 N    3.493 --     5 C    1.200    11 C    1.077    14 C    0.989
                            12 O    0.113
    14   6 C    3.892 --    13 N    0.989    24 H    0.965    22 H    0.948
                            23 H    0.947
    15   1 H    0.961 --     3 C    0.953
    16   1 H    0.933 --     1 C    0.909
    17   1 H    0.971 --     1 C    0.946
    18   1 H    0.976 --     3 C    0.960
    19   1 H    0.983 --    10 C    0.970
    20   1 H    0.960 --    10 C    0.936
    21   1 H    0.963 --    10 C    0.940
    22   1 H    0.966 --    14 C    0.948
    23   1 H    0.965 --    14 C    0.947
    24   1 H    0.981 --    14 C    0.965
    25   1 H    0.968 --     3 C    0.960
 ---------------------------------------------------------------------------

molecular dipole:
                 x           y           z       tot (Debye)
 q only:        0.561      -0.630      -0.128
   full:        0.494      -0.482      -0.162       1.802

           -------------------------------------------------
          | TOTAL ENERGY              -42.166544893938 Eh   |
          | GRADIENT NORM               0.003176481733 Eh/α |
          | HOMO-LUMO GAP               0.603984538675 eV   |
           -------------------------------------------------

 * finished run on 2024/06/05 at 19:57:57.686
