   * xtb version 6.6.1 (8d0f1dd) compiled by 'conda@1efc2f54142f' on 2023-08-01
          program call               : xtb struc.xyz --opt loose --input .xc1 --gfn2

   ID    Z sym.   atoms
    1    6 C      1, 3, 5-7, 10, 11, 14
    2    7 N      2, 4, 9, 13
    3    8 O      8, 12
    4    1 H      15-25
constraining bond 4 13 to    4.8400000 Å, actual value:    2.4476530 Å

          :  Hamiltonian                  GFN2-xTB          :
 * total energy  :   -32.0286795 Eh     change       -0.6650680E-10 Eh
 * total energy  :   -35.8506717 Eh     change       -0.3821992E+01 Eh
 * total energy  :   -38.7899269 Eh     change       -0.2939255E+01 Eh
 * total energy  :   -40.6162767 Eh     change       -0.1826350E+01 Eh
 * total energy  :   -41.5083120 Eh     change       -0.8920354E+00 Eh
 * total energy  :   -41.6663823 Eh     change       -0.1580703E+00 Eh
 * total energy  :   -41.6910223 Eh     change       -0.2464000E-01 Eh
 * total energy  :   -41.7640729 Eh     change       -0.7305057E-01 Eh
 * total energy  :   -41.8039461 Eh     change       -0.3987318E-01 Eh
 * total energy  :   -41.8195458 Eh     change       -0.1559967E-01 Eh
 * total energy  :   -42.1028898 Eh     change       -0.2480411E-03 Eh
 * total energy  :   -42.1029951 Eh     change       -0.1052391E-03 Eh
 * total energy  :   -42.1031486 Eh     change       -0.1535462E-03 Eh
 * total energy  :   -42.1032277 Eh     change       -0.7908531E-04 Eh
 * total energy  :   -42.1033362 Eh     change       -0.1085532E-03 Eh
 * total energy  :   -42.1034347 Eh     change       -0.9850000E-04 Eh
 * total energy  :   -42.1034880 Eh     change       -0.5321795E-04 Eh
 * total energy  :   -42.1034989 Eh     change       -0.1098177E-04 Eh
 * total energy  :   -42.1035222 Eh     change       -0.2330107E-04 Eh
   *** GEOMETRY OPTIMIZATION CONVERGED AFTER 82 ITERATIONS ***

 final structure:
================
25
 xtb: 6.6.1 (8d0f1dd)
C            2.75144392885128        0.65490534381944        1.12293482287749
N            2.25965991650867       -0.24126326527804        0.10027194208604
C            3.14924447762416       -0.72471181787362       -0.81921409642221
N            2.99497501966537       -1.40081048027816       -1.86340943504860
C            0.04781043868072       -1.32167000242417        0.36119714058651
C            0.86212906766327       -0.31680194799733        0.02152533754512
C            0.15500605900198        0.96800062019803       -0.33946435676962
O            0.79095612097079        1.95086952029946       -0.62379792563748
N           -1.21511737808899        0.91128029399884       -0.32319412937742
C           -1.95511127092738        2.10714066786515       -0.70964056964501
C           -1.99245310804622       -0.16660418307386        0.05148206988904
O           -3.18830785632569       -0.15306243893834        0.08611484347568
N           -1.26619858073196       -1.32197694528129        0.42134658178817
C           -2.02830384237463       -2.48509496342509        0.82396064917500
H            2.21422301672655        0.48269731051531        2.05532786843905
H            3.81377024901663        0.49211168337246        1.28618544589328
H            2.60022268892963        1.69738302323288        0.82281965120067
H            4.17697216818952       -0.45407940376250       -0.58619293198134
H           -1.24650354835832        2.90961724581998       -0.90046766078925
H           -2.54050659227774        1.90312007460263       -1.60719407495091
H           -2.64202761624598        2.38477899474361        0.09014848283075
H           -1.38259782088954       -3.17177933308565        1.36574996479110
H           -2.44045756307743       -2.98747501736114       -0.05442051015934
H           -2.86160611548146       -2.16521212981047        1.45001794330715
H            2.10320965509807       -1.73312430827756       -2.20091543520202

          :  Hamiltonian                  GFN2-xTB          :
         :: total energy             -42.103522244388 Eh    ::
         :: gradient norm              0.002861671954 Eh/a0 ::
         :: HOMO-LUMO gap              0.766106567724 eV    ::
         :: SCC energy               -42.635727387721 Eh    ::
         :: -> dispersion             -0.021615043388 Eh    ::
         :: repulsion energy           0.531984342407 Eh    ::

    * Orbital Energies and Occupations

         #    Occupation            Energy/Eh            Energy/eV
      -------------------------------------------------------------
         1        2.0000           -0.9055769             -24.6420
       ...           ...                  ...                  ...
        25        1.9991           -0.6579108             -17.9027
        26        1.9988           -0.6534387             -17.7810
        27        1.9982           -0.6464107             -17.5897
        28        1.9971           -0.6389678             -17.3872
        29        1.9967           -0.6369743             -17.3330
        30        1.9961           -0.6342813             -17.2597
        31        1.9952           -0.6307496             -17.1636
        32        1.9933           -0.6255989             -17.0234
        33        1.9708           -0.6021237             -16.3846
        34        1.9486           -0.5929524             -16.1351
        35        1.8812           -0.5791450             -15.7593
        36        1.7815           -0.5686367             -15.4734
        37        1.6135           -0.5580347             -15.1849 (HOMO)
        38        0.8272           -0.5298808             -14.4188 (LUMO)
        39        0.0022           -0.4276509             -11.6370
        40        0.0007           -0.4096241             -11.1464
        41        0.0002           -0.3856866             -10.4951
        42        0.0000           -0.3179792              -8.6527
        43                         -0.2148194              -5.8455
        44                         -0.1641095              -4.4656
        45                         -0.1469413              -3.9985
        46                         -0.0948086              -2.5799
        47                         -0.0619715              -1.6863
        48                         -0.0510584              -1.3894
       ...                                ...                  ...
        67                          0.5434021              14.7867
      -------------------------------------------------------------
                  HL-Gap            0.0281539 Eh            0.7661 eV

     #   Z          covCN         q      C6AA      α(0)
     1   6 C        3.713    -0.078    22.131     6.722
     2   7 N        2.733     0.016    20.978     6.803
     3   6 C        2.765     0.129    25.153     8.213
     4   7 N        1.773    -0.199    26.113     7.567
     5   6 C        1.948    -0.001    31.110     9.007
     6   6 C        2.902     0.019    27.577     8.610
     7   6 C        2.780     0.279    22.276     7.731
     8   8 O        0.858    -0.318    20.107     6.012
     9   7 N        2.738    -0.063    22.465     7.040
    10   6 C        3.709    -0.062    21.841     6.679
    11   6 C        2.733     0.318    21.593     7.608
    12   8 O        0.859    -0.314    20.036     6.001
    13   7 N        2.741     0.013    21.037     6.812
    14   6 C        3.702    -0.068    21.971     6.702
    15   1 H        0.925     0.095     1.829     2.115
    16   1 H        0.925     0.105     1.738     2.061
    17   1 H        0.924     0.123     1.592     1.973
    18   1 H        0.925     0.125     1.576     1.963
    19   1 H        0.925     0.118     1.627     1.995
    20   1 H        0.924     0.111     1.689     2.033
    21   1 H        0.924     0.113     1.670     2.021
    22   1 H        0.925     0.110     1.700     2.039
    23   1 H        0.924     0.114     1.663     2.017
    24   1 H        0.924     0.121     1.609     1.983
    25   1 H        0.860     0.195     1.129     1.665

Wiberg/Mayer (AO) data.
largest (>0.10) Wiberg bond orders for each atom

     #   Z sym  total        # sym  WBO       # sym  WBO       # sym  WBO
 ---------------------------------------------------------------------------
     1   6 C    3.893 --     2 N    0.989    15 H    0.963    16 H    0.962
                            17 H    0.928
     2   7 N    3.386 --     3 C    1.180     6 C    1.051     1 C    0.989
                             4 N    0.101
     3   6 C    3.932 --     4 N    1.786     2 N    1.180    18 H    0.911
     4   7 N    2.845 --     3 C    1.786    25 H    0.920     2 N    0.101
     5   6 C    3.201 --     6 C    1.586    13 N    1.338
     6   6 C    3.776 --     5 C    1.586     2 N    1.051     7 C    0.916
     7   6 C    3.871 --     8 O    1.693     9 N    1.154     6 C    0.916
     8   8 O    2.038 --     7 C    1.693     9 N    0.129
     9   7 N    3.543 --     7 C    1.154    11 C    1.113    10 C    0.957
                             8 O    0.129    12 O    0.124
    10   6 C    3.876 --    19 H    0.965     9 N    0.957    21 H    0.956
                            20 H    0.954
    11   6 C    3.926 --    12 O    1.716     9 N    1.113    13 N    1.007
    12   8 O    2.044 --    11 C    1.716     9 N    0.124    13 N    0.102
    13   7 N    3.544 --     5 C    1.338    11 C    1.007    14 C    0.967
                            12 O    0.102
    14   6 C    3.879 --    22 H    0.971    13 N    0.967    24 H    0.956
                            23 H    0.946
    15   1 H    0.975 --     1 C    0.963
    16   1 H    0.980 --     1 C    0.962
    17   1 H    0.950 --     1 C    0.928
    18   1 H    0.956 --     3 C    0.911
    19   1 H    0.982 --    10 C    0.965
    20   1 H    0.974 --    10 C    0.954
    21   1 H    0.975 --    10 C    0.956
    22   1 H    0.983 --    14 C    0.971
    23   1 H    0.966 --    14 C    0.946
    24   1 H    0.975 --    14 C    0.956
    25   1 H    0.945 --     4 N    0.920
 ---------------------------------------------------------------------------

molecular dipole:
                 x           y           z       tot (Debye)
 q only:        0.925      -0.905       0.487
   full:        0.758      -0.881       0.573       3.294

           -------------------------------------------------
          | TOTAL ENERGY              -42.103522244388 Eh   |
          | GRADIENT NORM               0.002861671954 Eh/α |
          | HOMO-LUMO GAP               0.766106567724 eV   |
           -------------------------------------------------

 * finished run on 2024/06/05 at 20:00:09.394
