   * xtb version 6.6.1 (8d0f1dd) compiled by 'conda@1efc2f54142f' on 2023-08-01
          program call               : xtb xtbopt.xyz --opt crude --input .xc2 --gfn2

   ID    Z sym.   atoms
    1    6 C      1, 3, 5-7, 10, 11, 14
    2    7 N      2, 4, 9, 13
    3    8 O      8, 12
    4    1 H      15-25
########################################################################
[WARNING] Please study the warnings concerning your input carefully
-1- readin_getIntValue: could not parse ''
########################################################################

          :  Hamiltonian                  GFN2-xTB          :
 * total energy  :   -40.3181757 Eh     change       -0.4618528E-12 Eh
 * total energy  :   -42.1363076 Eh     change       -0.1818132E+01 Eh
 * total energy  :   -42.1658670 Eh     change       -0.2955942E-01 Eh
 * total energy  :   -42.1685154 Eh     change       -0.2648344E-02 Eh
 * total energy  :   -42.1692690 Eh     change       -0.7536552E-03 Eh
 * total energy  :   -42.1699736 Eh     change       -0.7045605E-03 Eh
 * total energy  :   -42.1710280 Eh     change       -0.1054446E-02 Eh
 * total energy  :   -42.1722357 Eh     change       -0.1207660E-02 Eh
 * total energy  :   -42.1730883 Eh     change       -0.8525778E-03 Eh
 * total energy  :   -42.1734341 Eh     change       -0.3458086E-03 Eh
 * total energy  :   -42.1735983 Eh     change       -0.1641867E-03 Eh
 * total energy  :   -42.1737533 Eh     change       -0.1550084E-03 Eh
 * total energy  :   -42.1739910 Eh     change       -0.2377757E-03 Eh
 * total energy  :   -42.1742542 Eh     change       -0.2631386E-03 Eh
 * total energy  :   -42.1744680 Eh     change       -0.2137681E-03 Eh
   *** GEOMETRY OPTIMIZATION CONVERGED AFTER 15 ITERATIONS ***

 final structure:
================
25
 xtb: 6.6.1 (8d0f1dd)
C            3.30304138403935        1.11533211889809        0.02358550081874
N            2.31869001741949        0.06781706364047        0.00921831032438
C            2.55035304736992       -1.25118404787528       -0.00514689381895
N            1.36786704858326       -1.92349657374975       -0.01325047727298
C            0.35997594115359       -1.00541523652763       -0.00565121191379
C            0.94861499817789        0.26110327171501        0.01127337661893
C            0.20415507467123        1.46561872791889        0.03946631234377
O            0.60513461047321        2.60912154751933        0.05736820575923
N           -1.24517685691106        1.20238217401732        0.06728234536109
C           -2.01409897023729        2.30106519965177        0.15318652180949
C           -1.75676451205076       -0.04857175177286       -0.03682896211078
O           -3.08352304896126       -0.26902281423421       -0.09051361048256
N           -0.97725793499005       -1.18356619736283       -0.03673451594730
C           -1.55899490858298       -2.51049056277935       -0.06296713741690
H            3.89982064430887        1.06600349010732        0.93527055232825
H            3.96706695345295        1.02424474317217       -0.83641735268255
H            2.78795338848957        2.07387986125775       -0.01491864308629
H            3.51428144083644       -1.71501811686243       -0.00761479890773
H           -1.50650844162046        3.24332917976925        0.17617491821504
H           -3.57849543289119        0.51349525207921       -0.36882288490467
H           -3.07711578279714        2.24020481560679        0.27704253938249
H           -1.30040876710962       -3.05000965565188        0.84939973404315
H           -1.19650248835969       -3.06008292419343       -0.93298292349395
H           -2.63985078634349       -2.42177935581443       -0.12400445161454
H            1.26817489597925       -2.92672166692941       -0.03224283545201

          :  Hamiltonian                  GFN2-xTB          :
         :: total energy             -42.174467955624 Eh    ::
         :: gradient norm              0.007310010668 Eh/a0 ::
         :: HOMO-LUMO gap              1.197463199600 eV    ::
         :: SCC energy               -42.690311525500 Eh    ::
         :: -> dispersion             -0.022942053923 Eh    ::
         :: repulsion energy           0.515737422509 Eh    ::

    * Orbital Energies and Occupations

         #    Occupation            Energy/Eh            Energy/eV
      -------------------------------------------------------------
         1        2.0000           -0.8889710             -24.1901
       ...           ...                  ...                  ...
        25        2.0000           -0.6668816             -18.1468
        26        2.0000           -0.6608721             -17.9832
        27        2.0000           -0.6529086             -17.7665
        28        2.0000           -0.6408190             -17.4376
        29        2.0000           -0.6286449             -17.1063
        30        2.0000           -0.6245615             -16.9952
        31        2.0000           -0.6154152             -16.7463
        32        2.0000           -0.6140208             -16.7084
        33        1.9999           -0.5966623             -16.2360
        34        1.9999           -0.5956195             -16.2076
        35        1.9981           -0.5521116             -15.0237
        36        1.9979           -0.5507104             -14.9856
        37        1.5634           -0.4623173             -12.5803 (HOMO)
        38        0.3638           -0.4183113             -11.3828 (LUMO)
        39        0.0491           -0.3838248             -10.4444
        40        0.0280           -0.3747682             -10.1980
        41        0.0001           -0.2750153              -7.4835
        42        0.0000           -0.2034960              -5.5374
        43        0.0000           -0.1859964              -5.0612
        44                         -0.1578276              -4.2947
        45                         -0.1232252              -3.3531
        46                         -0.1047742              -2.8511
        47                         -0.0493379              -1.3426
        48                         -0.0353089              -0.9608
       ...                                ...                  ...
        67                          0.5530728              15.0499
      -------------------------------------------------------------
                  HL-Gap            0.0440060 Eh            1.1975 eV

     #   Z          covCN         q      C6AA      α(0)
     1   6 C        3.690    -0.090    22.419     6.776
     2   7 N        2.821     0.060    20.192     6.674
     3   6 C        3.027     0.034    27.203     8.555
     4   7 N        2.779    -0.067    22.544     7.052
     5   6 C        3.048     0.086    26.037     8.369
     6   6 C        3.084    -0.027    28.580     8.764
     7   6 C        2.777     0.241    22.963     7.849
     8   8 O        0.857    -0.373    21.157     6.167
     9   7 N        2.736    -0.015    21.549     6.894
    10   6 C        2.810    -0.091    30.266     9.013
    11   6 C        2.752     0.204    23.655     7.964
    12   8 O        1.660    -0.354    19.984     6.035
    13   7 N        2.736    -0.013    21.512     6.889
    14   6 C        3.697    -0.077    22.149     6.732
    15   1 H        0.924     0.098     1.800     2.098
    16   1 H        0.924     0.097     1.809     2.103
    17   1 H        0.925     0.129     1.540     1.941
    18   1 H        0.927     0.112     1.677     2.025
    19   1 H        0.926     0.114     1.660     2.015
    20   1 H        0.805     0.350     0.589     1.205
    21   1 H        0.926     0.066     2.129     2.282
    22   1 H        0.924     0.089     1.892     2.151
    23   1 H        0.924     0.086     1.918     2.166
    24   1 H        0.925     0.122     1.596     1.975
    25   1 H        0.860     0.218     1.018     1.581

Wiberg/Mayer (AO) data.
largest (>0.10) Wiberg bond orders for each atom

     #   Z sym  total        # sym  WBO       # sym  WBO       # sym  WBO
 ---------------------------------------------------------------------------
     1   6 C    3.924 --     2 N    0.990    16 H    0.964    17 H    0.963
                            15 H    0.962
     2   7 N    3.582 --     3 C    1.333     6 C    1.130     1 C    0.990
     3   6 C    3.718 --     2 N    1.333     4 N    1.237    18 H    0.957
     4   7 N    3.527 --     3 C    1.237     5 C    1.184    25 H    0.924
     5   6 C    3.883 --     6 C    1.289     4 N    1.184    13 N    1.183
     6   6 C    3.890 --     5 C    1.289     7 C    1.165     2 N    1.130
     7   6 C    3.843 --     8 O    1.660     6 C    1.165     9 N    0.913
     8   8 O    1.966 --     7 C    1.660     9 N    0.102
     9   7 N    3.659 --    10 C    1.298    11 C    1.212     7 C    0.913
                             8 O    0.102
    10   6 C    3.525 --     9 N    1.298    21 H    0.965    19 H    0.961
                            11 C    0.144
    11   6 C    3.718 --     9 N    1.212    13 N    1.144    12 O    1.105
                            10 C    0.144
    12   8 O    2.113 --    11 C    1.105    20 H    0.839
    13   7 N    3.542 --     5 C    1.183    11 C    1.144    14 C    0.975
    14   6 C    3.927 --    13 N    0.975    23 H    0.971    22 H    0.969
                            24 H    0.968
    15   1 H    0.983 --     1 C    0.962
    16   1 H    0.984 --     1 C    0.964
    17   1 H    0.983 --     1 C    0.963
    18   1 H    0.986 --     3 C    0.957
    19   1 H    0.986 --    10 C    0.961
    20   1 H    0.875 --    12 O    0.839
    21   1 H    0.995 --    10 C    0.965
    22   1 H    0.988 --    14 C    0.969
    23   1 H    0.989 --    14 C    0.971
    24   1 H    0.985 --    14 C    0.968
    25   1 H    0.952 --     4 N    0.924
 ---------------------------------------------------------------------------

molecular dipole:
                 x           y           z       tot (Debye)
 q only:        0.695      -2.166      -0.205
   full:        0.609      -2.499      -0.241       6.566

           -------------------------------------------------
          | TOTAL ENERGY              -42.174467955624 Eh   |
          | GRADIENT NORM               0.007310010668 Eh/α |
          | HOMO-LUMO GAP               1.197463199600 eV   |
           -------------------------------------------------

 * finished run on 2024/06/05 at 19:58:27.642
