   * xtb version 6.6.1 (8d0f1dd) compiled by 'conda@1efc2f54142f' on 2023-08-01
          program call               : xtb xtbopt.xyz --opt crude --input .xc2 --gfn2

   ID    Z sym.   atoms
    1    6 C      1, 3, 5-7, 10, 11, 14
    2    7 N      2, 4, 9, 13
    3    8 O      8, 12
    4    1 H      15-25

          :  Hamiltonian                  GFN2-xTB          :
 * total energy  :   -42.0458789 Eh     change       -0.5236700E-11 Eh
   *** GEOMETRY OPTIMIZATION CONVERGED AFTER 1 ITERATIONS ***

 final structure:
================
25
 xtb: 6.6.1 (8d0f1dd)
C            3.29688627471373        1.18064053433148        0.01003611075300
N            2.35129237581002        0.09482151840211        0.00501004519695
C            2.67883851535681       -1.19131389233789       -0.01057303605848
N            1.57558219442814       -1.94598395657206        0.01308090088432
C            0.44924555582298       -1.10719257012586        0.05087724466239
C            0.99062577505936        0.20857431953715        0.04335628454704
C            0.23437830208856        1.46913256585976        0.03144013400337
O            0.78911347460661        2.57018897370734       -0.04031490441599
N           -1.07526272790744        1.27886861518728        0.09440741459251
C           -2.04446796953321        2.27852180901471        0.10581589625973
C           -4.01681794623427       -1.07717794756408       -0.63575184365379
O           -4.29559359814014       -0.02861747987201       -0.33996823747496
N           -0.78688141676332       -1.43623825499620        0.08721905388756
C           -1.33604029026237       -2.73187782878747        0.06846531003008
H            3.76941283531755        1.26189580718385        0.99030671589575
H            4.06662294729827        1.01202624264193       -0.74152571919036
H            2.76686551306788        2.11163733620650       -0.19860525033680
H            3.68538663545109       -1.56546699927150       -0.03743216753309
H           -1.61260280672635        3.28710108029217        0.16626608928282
H           -2.65479237909189        2.20713244703341       -0.80258720394994
H           -2.71180718386140        2.11686912858619        0.95957511857461
H           -1.18304652701141       -3.24147540424522        1.02764018379274
H           -0.92373315122534       -3.35686007534857       -0.73302832199892
H           -2.41367965100723       -2.62170360436113       -0.09140800494414
H            1.56090676283771       -2.95526382290121        0.00886980509011

          :  Hamiltonian                  GFN2-xTB          :
         :: total energy             -42.045878867486 Eh    ::
         :: gradient norm              0.002005851676 Eh/a0 ::
         :: HOMO-LUMO gap              0.270882184938 eV    ::
         :: SCC energy               -42.582871049817 Eh    ::
         :: -> dispersion             -0.020337148150 Eh    ::
         :: repulsion energy           0.536873315188 Eh    ::

    * Orbital Energies and Occupations

         #    Occupation            Energy/Eh            Energy/eV
      -------------------------------------------------------------
         1        2.0000           -0.8963453             -24.3908
       ...           ...                  ...                  ...
        25        1.9999           -0.6560528             -17.8521
        26        1.9999           -0.6551854             -17.8285
        27        1.9994           -0.6333529             -17.2344
        28        1.9992           -0.6282706             -17.0961
        29        1.9989           -0.6230353             -16.9537
        30        1.9983           -0.6166715             -16.7805
        31        1.9972           -0.6088276             -16.5670
        32        1.9958           -0.6021428             -16.3851
        33        1.9747           -0.5736483             -15.6098
        34        1.9009           -0.5514090             -15.0046
        35        1.7724           -0.5371361             -14.6162
        36        1.6699           -0.5303087             -14.4304
        37        1.4795           -0.5211804             -14.1820 (HOMO)
        38        1.2051           -0.5112257             -13.9112 (LUMO)
        39        0.0072           -0.4155388             -11.3074
        40        0.0008           -0.3812608             -10.3746
        41        0.0008           -0.3810018             -10.3676
        42        0.0003           -0.3664695              -9.9721
        43        0.0000           -0.2868898              -7.8067
        44                         -0.1817356              -4.9453
        45                         -0.1475732              -4.0157
        46                         -0.0748608              -2.0371
        47                         -0.0702918              -1.9127
        48                         -0.0229236              -0.6238
       ...                                ...                  ...
        67                          0.7264794              19.7685
      -------------------------------------------------------------
                  HL-Gap            0.0099547 Eh            0.2709 eV

     #   Z          covCN         q      C6AA      α(0)
     1   6 C        3.693    -0.095    22.510     6.788
     2   7 N        2.824     0.087    19.732     6.597
     3   6 C        3.011     0.067    26.473     8.440
     4   7 N        2.786    -0.081    22.806     7.093
     5   6 C        2.966     0.142    24.912     8.187
     6   6 C        3.098     0.005    27.792     8.640
     7   6 C        2.759     0.283    22.202     7.716
     8   8 O        0.858    -0.381    21.300     6.188
     9   7 N        1.839    -0.164    25.351     7.462
    10   6 C        3.693    -0.034    21.360     6.613
    11   6 C        0.856     0.061    33.305     9.630
    12   8 O        0.856    -0.029    15.499     5.278
    13   7 N        1.825    -0.157    25.193     7.437
    14   6 C        3.694    -0.054    21.719     6.667
    15   1 H        0.924     0.107     1.718     2.050
    16   1 H        0.925     0.102     1.769     2.080
    17   1 H        0.924     0.146     1.418     1.862
    18   1 H        0.926     0.120     1.617     1.988
    19   1 H        0.923     0.117     1.639     2.002
    20   1 H        0.924     0.117     1.637     2.001
    21   1 H        0.924     0.118     1.628     1.996
    22   1 H        0.924     0.096     1.820     2.110
    23   1 H        0.924     0.082     1.956     2.187
    24   1 H        0.924     0.121     1.603     1.980
    25   1 H        0.860     0.222     1.002     1.568

Wiberg/Mayer (AO) data.
largest (>0.10) Wiberg bond orders for each atom

     #   Z sym  total        # sym  WBO       # sym  WBO       # sym  WBO
 ---------------------------------------------------------------------------
     1   6 C    3.898 --     2 N    0.983    16 H    0.965    15 H    0.954
                            17 H    0.943
     2   7 N    3.710 --     3 C    1.366     6 C    1.212     1 C    0.983
     3   6 C    3.819 --     2 N    1.366     4 N    1.328    18 H    0.951
     4   7 N    3.519 --     3 C    1.328     5 C    1.067    25 H    0.923
     5   6 C    3.944 --    13 N    1.529     6 C    1.208     4 N    1.067
     6   6 C    3.688 --     2 N    1.212     5 C    1.208     7 C    1.031
     7   6 C    3.925 --     8 O    1.519     9 N    1.304     6 C    1.031
     8   8 O    1.749 --     7 C    1.519     9 N    0.113
     9   7 N    2.588 --     7 C    1.304    10 C    1.113     8 O    0.113
    10   6 C    3.862 --     9 N    1.113    21 H    0.909    19 H    0.904
                            20 H    0.903
    11   6 C    2.642 --    12 O    2.613
    12   8 O    2.619 --    11 C    2.613
    13   7 N    2.735 --     5 C    1.529    14 C    1.069
    14   6 C    3.898 --    13 N    1.069    23 H    0.933    24 H    0.925
                            22 H    0.922
    15   1 H    0.985 --     1 C    0.954
    16   1 H    0.987 --     1 C    0.965
    17   1 H    0.976 --     1 C    0.943
    18   1 H    0.983 --     3 C    0.951
    19   1 H    0.907 --    10 C    0.904
    20   1 H    0.924 --    10 C    0.903
    21   1 H    0.928 --    10 C    0.909
    22   1 H    0.942 --    14 C    0.922
    23   1 H    0.948 --    14 C    0.933
    24   1 H    0.956 --    14 C    0.925
    25   1 H    0.950 --     4 N    0.923
 ---------------------------------------------------------------------------

molecular dipole:
                 x           y           z       tot (Debye)
 q only:        1.518      -1.954       0.056
   full:        1.763      -2.077       0.126       6.932

           -------------------------------------------------
          | TOTAL ENERGY              -42.045878867486 Eh   |
          | GRADIENT NORM               0.002005851676 Eh/α |
          | HOMO-LUMO GAP               0.270882184938 eV   |
           -------------------------------------------------

 * finished run on 2024/06/05 at 19:59:15.805
