   * xtb version 6.6.1 (8d0f1dd) compiled by 'conda@1efc2f54142f' on 2023-08-01
          program call               : xtb struc.xyz --opt loose --input .xc1 --gfn2

   ID    Z sym.   atoms
    1    6 C      1, 3, 5-7, 10, 11, 14
    2    7 N      2, 4, 9, 13
    3    8 O      8, 12
    4    1 H      15-25
constraining bond 3 7 to    6.0000000 Å, actual value:    3.6112318 Å

          :  Hamiltonian                  GFN2-xTB          :
 * total energy  :   -21.8706040 Eh     change       -0.6650680E-10 Eh
 * total energy  :   -30.8306243 Eh     change       -0.8960020E+01 Eh
 * total energy  :   -36.5415550 Eh     change       -0.5710931E+01 Eh
 * total energy  :   -40.1023207 Eh     change       -0.3560766E+01 Eh
 * total energy  :   -41.5381007 Eh     change       -0.1435780E+01 Eh
 * total energy  :   -41.7296713 Eh     change       -0.1915706E+00 Eh
 * total energy  :   -41.7473936 Eh     change       -0.1772234E-01 Eh
 * total energy  :   -41.7747426 Eh     change       -0.2734892E-01 Eh
 * total energy  :   -41.8014549 Eh     change       -0.2671234E-01 Eh
 * total energy  :   -41.8249799 Eh     change       -0.2352498E-01 Eh
 * total energy  :   -41.9929721 Eh     change       -0.1808197E-03 Eh
 * total energy  :   -41.9930910 Eh     change       -0.1189657E-03 Eh
 * total energy  :   -41.9932008 Eh     change       -0.1098019E-03 Eh
 * total energy  :   -41.9933044 Eh     change       -0.1035997E-03 Eh
 * total energy  :   -41.9933870 Eh     change       -0.8253539E-04 Eh
 * total energy  :   -41.9934437 Eh     change       -0.5674653E-04 Eh
 * total energy  :   -41.9934674 Eh     change       -0.2373172E-04 Eh
 * total energy  :   -41.9935049 Eh     change       -0.3744133E-04 Eh
 * total energy  :   -41.9935400 Eh     change       -0.3516649E-04 Eh
   *** GEOMETRY OPTIMIZATION CONVERGED AFTER 56 ITERATIONS ***

 final structure:
================
25
 xtb: 6.6.1 (8d0f1dd)
C            3.39159410176478        1.56545206078530       -0.22112115869889
N            2.51772207919121        0.54377038533851       -0.62876855886291
C            2.23114179544595       -3.21918147245358        0.11513125368610
N            1.30063211006187       -2.43909034686430        0.52229227658633
C            0.79254962404565       -1.12833153753851        0.07375939543542
C            1.64102196953467       -0.15455823252767       -0.20737139685658
C           -0.41000107263254        2.14777912306232        0.53128217189655
O            0.59557788467976        2.66498267616384        0.78975365860761
N           -1.36537012144436        1.37967066203723        0.24309364723580
C           -2.66569884510216        2.04634875208397       -0.01014303618045
C           -1.57349433837950       -0.14779106535135        0.27211152395250
O           -2.72922592234410       -0.43405526295212        0.40385089835725
N           -0.62296257039467       -1.06841745929760       -0.00128973943750
C           -1.24356224836202       -2.35673865598874       -0.36689750367288
H            3.38897904286791        1.73748813026265        0.85809440247940
H            4.39331502516014        1.28788413557229       -0.55486332235607
H            3.11228128789419        2.48257777361447       -0.74331170563636
H            2.84091986325729       -2.90294057093441       -0.72802980113474
H           -2.50792135496138        3.11910187019548       -0.08972856528114
H           -3.08767363120448        1.66223401966474       -0.93718154462754
H           -3.35284825504404        1.83125112027709        0.80748127263452
H           -1.59577612399685       -2.89593319039500        0.51313994454117
H           -0.52913581649566       -2.96210353082334       -0.91878334153343
H           -2.10712530787287       -2.16508566053291       -1.00291748554934
H            0.74549233834635       -2.77607518185829        1.31158833236056

          :  Hamiltonian                  GFN2-xTB          :
         :: total energy             -41.993540048345 Eh    ::
         :: gradient norm              0.003316863653 Eh/a0 ::
         :: HOMO-LUMO gap              1.413522834784 eV    ::
         :: SCC energy               -42.568393569571 Eh    ::
         :: -> dispersion             -0.020790322892 Eh    ::
         :: repulsion energy           0.574634002267 Eh    ::

    * Orbital Energies and Occupations

         #    Occupation            Energy/Eh            Energy/eV
      -------------------------------------------------------------
         1        2.0000           -0.9355487             -25.4576
       ...           ...                  ...                  ...
        25        2.0000           -0.6728492             -18.3092
        26        2.0000           -0.6582083             -17.9108
        27        2.0000           -0.6487600             -17.6537
        28        1.9999           -0.6371248             -17.3370
        29        1.9999           -0.6344680             -17.2648
        30        1.9999           -0.6275166             -17.0756
        31        1.9997           -0.6144127             -16.7190
        32        1.9994           -0.6063057             -16.4984
        33        1.9992           -0.6014160             -16.3654
        34        1.9991           -0.5989375             -16.2979
        35        1.9979           -0.5854136             -15.9299
        36        1.8540           -0.5168257             -14.0635
        37        1.7014           -0.5041380             -13.7183 (HOMO)
        38        0.3529           -0.4521920             -12.3048 (LUMO)
        39        0.0418           -0.4156709             -11.3110
        40        0.0354           -0.4129714             -11.2375
        41        0.0178           -0.4019603             -10.9379
        42        0.0017           -0.3645551              -9.9201
        43        0.0001           -0.3238023              -8.8111
        44        0.0000           -0.2653037              -7.2193
        45                         -0.1951384              -5.3100
        46                         -0.1335141              -3.6331
        47                         -0.1012530              -2.7552
        48                         -0.0721337              -1.9629
       ...                                ...                  ...
        67                          0.9570620              26.0430
      -------------------------------------------------------------
                  HL-Gap            0.0519460 Eh            1.4135 eV

     #   Z          covCN         q      C6AA      α(0)
     1   6 C        3.690    -0.052    21.702     6.667
     2   7 N        1.821    -0.045    22.833     7.080
     3   6 C        1.837    -0.090    33.642     9.370
     4   7 N        2.682    -0.019    21.622     6.906
     5   6 C        2.813     0.042    27.036     8.519
     6   6 C        1.906     0.061    29.564     8.781
     7   6 C        1.810     0.296    24.480     7.995
     8   8 O        0.856    -0.161    17.443     5.600
     9   7 N        2.716    -0.050    22.215     7.000
    10   6 C        3.729    -0.062    21.789     6.664
    11   6 C        2.715     0.306    21.806     7.644
    12   8 O        0.861    -0.332    20.365     6.050
    13   7 N        2.732    -0.059    22.377     7.026
    14   6 C        3.735    -0.063    21.804     6.664
    15   1 H        0.924     0.084     1.941     2.178
    16   1 H        0.924     0.114     1.666     2.018
    17   1 H        0.924     0.111     1.686     2.031
    18   1 H        0.925     0.085     1.932     2.173
    19   1 H        0.925     0.096     1.818     2.108
    20   1 H        0.925     0.114     1.659     2.014
    21   1 H        0.925     0.124     1.584     1.968
    22   1 H        0.924     0.090     1.883     2.146
    23   1 H        0.925     0.089     1.885     2.147
    24   1 H        0.925     0.102     1.763     2.076
    25   1 H        0.860     0.219     1.014     1.578

Wiberg/Mayer (AO) data.
largest (>0.10) Wiberg bond orders for each atom

     #   Z sym  total        # sym  WBO       # sym  WBO       # sym  WBO
 ---------------------------------------------------------------------------
     1   6 C    3.937 --     2 N    1.029    15 H    0.959    16 H    0.943
                            17 H    0.939
     2   7 N    3.395 --     6 C    2.115     1 C    1.029     5 C    0.135
     3   6 C    2.826 --     4 N    1.723    18 H    0.938
     4   7 N    3.629 --     3 C    1.723     5 C    0.922    25 H    0.905
     5   6 C    3.768 --     6 C    1.554    13 N    1.016     4 N    0.922
                             2 N    0.135
     6   6 C    3.910 --     2 N    2.115     5 C    1.554
     7   6 C    3.615 --     8 O    1.993     9 N    1.528
     8   8 O    2.280 --     7 C    1.993     9 N    0.208
     9   7 N    3.563 --     7 C    1.528    10 C    0.911    11 C    0.790
                             8 O    0.208
    10   6 C    3.874 --    19 H    0.973    20 H    0.967    21 H    0.962
                             9 N    0.911
    11   6 C    3.881 --    12 O    1.731    13 N    1.245     9 N    0.790
    12   8 O    2.100 --    11 C    1.731    13 N    0.169
    13   7 N    3.498 --    11 C    1.245     5 C    1.016    14 C    0.952
                            12 O    0.169
    14   6 C    3.921 --    23 H    0.974    22 H    0.971    24 H    0.969
                            13 N    0.952
    15   1 H    0.981 --     1 C    0.959
    16   1 H    0.982 --     1 C    0.943
    17   1 H    0.982 --     1 C    0.939
    18   1 H    0.962 --     3 C    0.938
    19   1 H    0.990 --    10 C    0.973
    20   1 H    0.985 --    10 C    0.967
    21   1 H    0.983 --    10 C    0.962
    22   1 H    0.989 --    14 C    0.971
    23   1 H    0.991 --    14 C    0.974
    24   1 H    0.986 --    14 C    0.969
    25   1 H    0.939 --     4 N    0.905
 ---------------------------------------------------------------------------

molecular dipole:
                 x           y           z       tot (Debye)
 q only:        0.549       0.341      -0.004
   full:        0.538       0.732       0.102       2.324

           -------------------------------------------------
          | TOTAL ENERGY              -41.993540048345 Eh   |
          | GRADIENT NORM               0.003316863653 Eh/α |
          | HOMO-LUMO GAP               1.413522834784 eV   |
           -------------------------------------------------

 * finished run on 2024/06/05 at 19:59:09.603
