   * xtb version 6.6.1 (8d0f1dd) compiled by 'conda@1efc2f54142f' on 2023-08-01
          program call               : xtb xtbopt.xyz --opt crude --input .xc2 --gfn2

   ID    Z sym.   atoms
    1    6 C      1, 3, 5-7, 10, 11, 14
    2    7 N      2, 4, 9, 13
    3    8 O      8, 12
    4    1 H      15-25
########################################################################
[WARNING] Please study the warnings concerning your input carefully
-1- readin_getIntValue: could not parse ''
########################################################################

          :  Hamiltonian                  GFN2-xTB          :
 * total energy  :   -41.9935947 Eh     change       -0.1394795E-10 Eh
 * total energy  :   -41.9977070 Eh     change       -0.4112326E-02 Eh
 * total energy  :   -42.0014543 Eh     change       -0.3747278E-02 Eh
 * total energy  :   -42.0028436 Eh     change       -0.1389306E-02 Eh
 * total energy  :   -42.0045176 Eh     change       -0.1674068E-02 Eh
 * total energy  :   -42.0062496 Eh     change       -0.1731966E-02 Eh
 * total energy  :   -42.0079644 Eh     change       -0.1714796E-02 Eh
 * total energy  :   -42.0094018 Eh     change       -0.1437360E-02 Eh
 * total energy  :   -42.0110712 Eh     change       -0.1669449E-02 Eh
 * total energy  :   -42.0132874 Eh     change       -0.2216212E-02 Eh
 * total energy  :   -42.0910738 Eh     change       -0.9510237E-03 Eh
 * total energy  :   -42.0917287 Eh     change       -0.6548921E-03 Eh
 * total energy  :   -42.0920649 Eh     change       -0.3361430E-03 Eh
 * total energy  :   -42.0924990 Eh     change       -0.4341762E-03 Eh
 * total energy  :   -42.0927123 Eh     change       -0.2132565E-03 Eh
 * total energy  :   -42.0928699 Eh     change       -0.1576411E-03 Eh
 * total energy  :   -42.0929932 Eh     change       -0.1232329E-03 Eh
 * total energy  :   -42.0930904 Eh     change       -0.9718792E-04 Eh
 * total energy  :   -42.0931925 Eh     change       -0.1021102E-03 Eh
   *** GEOMETRY OPTIMIZATION CONVERGED AFTER 35 ITERATIONS ***

 final structure:
================
25
 xtb: 6.6.1 (8d0f1dd)
C            3.11059733150639        1.45766032515824        0.02778970803809
N            2.35369960428971        0.28052067272750        0.00887162250861
C            2.58512464194423       -2.31786949038970        0.03482551599680
N            1.30690053781917       -2.25753333813279        0.02623116076228
C            0.48047450586809       -1.13324570746103       -0.01190033490912
C            1.06892264570390        0.14893391129105       -0.00861180200621
C            0.14996438363473        1.33993894589495       -0.00195183943115
O            0.57611198930172        2.46797398087388       -0.02530207812647
N           -1.18728056775211        1.04098022062595        0.03889242918954
C           -2.13791950209272        2.14537727258248        0.09112021391873
C           -1.75518711679655       -0.21794680288404       -0.00672113265244
O           -2.94218104255462       -0.38680317153133       -0.01015491967008
N           -0.86479861170097       -1.30449751736129       -0.05117107805414
C           -1.46724696445807       -2.62301404182138       -0.12349444921340
H            2.88109178310269        2.06400064996295        0.91241685460602
H            4.16902103214830        1.19405065767010        0.03735050079470
H            2.90266717085873        2.08299418573719       -0.84904826249853
H            3.19219813835621       -1.41721298610040        0.00582567382155
H           -1.58528022453462        3.07154337900423        0.22574754922774
H           -2.71319587684246        2.18403681514163       -0.83413314537635
H           -2.82872341056818        1.98840115649935        0.91897128137816
H           -1.37123718329584       -3.15418052872190        0.82741332156973
H           -1.03600476738884       -3.20618416531651       -0.94028583488131
H           -2.53233213329110       -2.48124699692540       -0.32487023504156
H            0.80504515075711       -3.14843888498152        0.06336089799537

          :  Hamiltonian                  GFN2-xTB          :
         :: total energy             -42.093192466667 Eh    ::
         :: gradient norm              0.004469799244 Eh/a0 ::
         :: HOMO-LUMO gap              0.038705418941 eV    ::
         :: SCC energy               -42.608124616364 Eh    ::
         :: -> dispersion             -0.022376201151 Eh    ::
         :: repulsion energy           0.514797138639 Eh    ::

    * Orbital Energies and Occupations

         #    Occupation            Energy/Eh            Energy/eV
      -------------------------------------------------------------
         1        2.0000           -0.8962592             -24.3885
       ...           ...                  ...                  ...
        25        1.9999           -0.6771184             -18.4253
        26        1.9999           -0.6763308             -18.4039
        27        1.9994           -0.6467718             -17.5996
        28        1.9992           -0.6432497             -17.5037
        29        1.9990           -0.6394188             -17.3995
        30        1.9986           -0.6333571             -17.2345
        31        1.9962           -0.6178085             -16.8114
        32        1.9922           -0.6064975             -16.5036
        33        1.9909           -0.6039380             -16.4340
        34        1.9837           -0.5946880             -16.1823
        35        1.9615           -0.5809011             -15.8071
        36        1.8741           -0.5614421             -15.2776
        37        1.1050           -0.5220170             -14.2048 (HOMO)
        38        1.0604           -0.5205946             -14.1661 (LUMO)
        39        0.0383           -0.4563664             -12.4184
        40        0.0015           -0.4046210             -11.0103
        41        0.0005           -0.3869481             -10.5294
        42        0.0000           -0.3018822              -8.2146
        43                         -0.2096338              -5.7044
        44                         -0.1707896              -4.6474
        45                         -0.1488603              -4.0507
        46                         -0.1008016              -2.7430
        47                         -0.0789966              -2.1496
        48                         -0.0464325              -1.2635
       ...                                ...                  ...
        67                          0.5442354              14.8094
      -------------------------------------------------------------
                  HL-Gap            0.0014224 Eh            0.0387 eV

     #   Z          covCN         q      C6AA      α(0)
     1   6 C        3.693    -0.048    21.624     6.654
     2   7 N        1.836    -0.121    24.397     7.320
     3   6 C        1.849    -0.066    32.950     9.273
     4   7 N        2.687     0.013    21.029     6.811
     5   6 C        2.851     0.088    26.027     8.362
     6   6 C        2.893     0.048    26.912     8.505
     7   6 C        2.768     0.269    22.462     7.762
     8   8 O        0.858    -0.323    20.206     6.027
     9   7 N        2.738    -0.069    22.585     7.058
    10   6 C        3.710    -0.062    21.841     6.679
    11   6 C        2.724     0.318    21.590     7.607
    12   8 O        0.860    -0.343    20.582     6.083
    13   7 N        2.740    -0.041    22.032     6.971
    14   6 C        3.699    -0.079    22.182     6.736
    15   1 H        0.924     0.124     1.584     1.968
    16   1 H        0.924     0.110     1.696     2.036
    17   1 H        0.924     0.126     1.568     1.958
    18   1 H        0.925     0.158     1.338     1.809
    19   1 H        0.925     0.115     1.656     2.012
    20   1 H        0.925     0.106     1.731     2.058
    21   1 H        0.925     0.108     1.716     2.048
    22   1 H        0.924     0.096     1.824     2.112
    23   1 H        0.924     0.090     1.876     2.142
    24   1 H        0.924     0.137     1.486     1.906
    25   1 H        0.859     0.248     0.892     1.480

Wiberg/Mayer (AO) data.
largest (>0.10) Wiberg bond orders for each atom

     #   Z sym  total        # sym  WBO       # sym  WBO       # sym  WBO
 ---------------------------------------------------------------------------
     1   6 C    3.889 --     2 N    1.087    16 H    0.945    15 H    0.901
                            17 H    0.900
     2   7 N    2.891 --     6 C    1.539     1 C    1.087     3 C    0.101
     3   6 C    2.718 --     4 N    1.625    18 H    0.856     2 N    0.101
     4   7 N    3.670 --     3 C    1.625     5 C    1.083    25 H    0.875
     5   6 C    3.692 --     6 C    1.222    13 N    1.220     4 N    1.083
     6   6 C    3.918 --     2 N    1.539     5 C    1.222     7 C    0.939
     7   6 C    3.903 --     8 O    1.715     9 N    1.152     6 C    0.939
     8   8 O    2.034 --     7 C    1.715     9 N    0.141
     9   7 N    3.546 --     7 C    1.152    11 C    1.106    10 C    0.962
                             8 O    0.141    12 O    0.122
    10   6 C    3.891 --    19 H    0.967     9 N    0.962    21 H    0.960
                            20 H    0.957
    11   6 C    3.941 --    12 O    1.702     9 N    1.106    13 N    1.046
    12   8 O    2.017 --    11 C    1.702     9 N    0.122    13 N    0.109
    13   7 N    3.480 --     5 C    1.220    11 C    1.046    14 C    0.978
                            12 O    0.109
    14   6 C    3.914 --    13 N    0.978    23 H    0.963    22 H    0.959
                            24 H    0.956
    15   1 H    0.936 --     1 C    0.901
    16   1 H    0.961 --     1 C    0.945
    17   1 H    0.936 --     1 C    0.900
    18   1 H    0.935 --     3 C    0.856
    19   1 H    0.984 --    10 C    0.967
    20   1 H    0.977 --    10 C    0.957
    21   1 H    0.979 --    10 C    0.960
    22   1 H    0.979 --    14 C    0.959
    23   1 H    0.984 --    14 C    0.963
    24   1 H    0.979 --    14 C    0.956
    25   1 H    0.917 --     4 N    0.875
 ---------------------------------------------------------------------------

molecular dipole:
                 x           y           z       tot (Debye)
 q only:        1.357      -1.663       0.038
   full:        1.161      -1.536       0.034       4.895

           -------------------------------------------------
          | TOTAL ENERGY              -42.093192466667 Eh   |
          | GRADIENT NORM               0.004469799244 Eh/α |
          | HOMO-LUMO GAP               0.038705418941 eV   |
           -------------------------------------------------

 * finished run on 2024/06/05 at 19:59:10.847
