   * xtb version 6.6.1 (8d0f1dd) compiled by 'conda@1efc2f54142f' on 2023-08-01
          program call               : xtb struc.xyz --opt loose --input .xc1 --gfn2

   ID    Z sym.   atoms
    1    6 C      1, 3, 5-7, 10, 11, 14
    2    7 N      2, 4, 9, 13
    3    8 O      8, 12
    4    1 H      15-25
constraining bond 13 23 to    4.0600000 Å, actual value:    2.0982917 Å

          :  Hamiltonian                  GFN2-xTB          :
 * total energy  :   -35.3887882 Eh     change       -0.2401990E-09 Eh
 * total energy  :   -38.4128132 Eh     change       -0.3024025E+01 Eh
 * total energy  :   -40.6044358 Eh     change       -0.2191623E+01 Eh
 * total energy  :   -41.6320591 Eh     change       -0.1027623E+01 Eh
 * total energy  :   -41.9076441 Eh     change       -0.2755850E+00 Eh
 * total energy  :   -41.9361463 Eh     change       -0.2850224E-01 Eh
 * total energy  :   -41.9496855 Eh     change       -0.1353921E-01 Eh
 * total energy  :   -41.9742233 Eh     change       -0.2453778E-01 Eh
 * total energy  :   -41.9945834 Eh     change       -0.2036008E-01 Eh
 * total energy  :   -42.0053751 Eh     change       -0.1079165E-01 Eh
 * total energy  :   -42.1340811 Eh     change       -0.1377237E-02 Eh
 * total energy  :   -42.1345682 Eh     change       -0.4871374E-03 Eh
 * total energy  :   -42.1350180 Eh     change       -0.4497836E-03 Eh
 * total energy  :   -42.1352442 Eh     change       -0.2261672E-03 Eh
 * total energy  :   -42.1354597 Eh     change       -0.2155778E-03 Eh
 * total energy  :   -42.1355401 Eh     change       -0.8032069E-04 Eh
 * total energy  :   -42.1356229 Eh     change       -0.8286343E-04 Eh
 * total energy  :   -42.1356804 Eh     change       -0.5744934E-04 Eh
 * total energy  :   -42.1357238 Eh     change       -0.4346398E-04 Eh
   *** GEOMETRY OPTIMIZATION CONVERGED AFTER 33 ITERATIONS ***

 final structure:
================
25
 xtb: 6.6.1 (8d0f1dd)
C            3.23536467705227        1.18559516772363       -0.00794746065896
N            2.27600412541849        0.11536995500096        0.02070566531408
C            2.54279429063107       -1.19364849199195        0.05891528442300
N            1.38769787210809       -1.89887551939004        0.11049287773793
C            0.34847533231318       -1.00497840381867        0.10220427934085
C            0.90835795029676        0.26938788501577        0.04571835133984
C            0.10603906763858        1.46474547869671        0.01248499075425
O            0.52135172293813        2.60559673472283       -0.03035495612506
N           -1.26419538193319        1.16251638399117        0.03192224179584
C           -2.19666894126701        2.28119901953940       -0.01475802693435
C           -1.85731073057329       -0.07318370848380        0.07952138089411
O           -3.04710298914360       -0.23540561241586        0.07512193795751
N           -0.99021967653020       -1.23168703309825        0.14248711488938
C           -1.56556531962172       -2.44149414130866        0.24891771083895
H            3.77377680385171        1.23790939899823        0.94018125656633
H            3.95541038952467        1.02915272440695       -0.81103376134931
H            2.70689612096703        2.12536466570618       -0.16541400216835
H            3.52193969716478       -1.62822419935764        0.05122803929225
H           -1.61873495496728        3.20264973196168       -0.01318260792534
H           -2.80763249059457        2.21754091355037       -0.91539580505578
H           -2.85841616761702        2.24543046622106        0.85094791766472
H           -0.97219808399911       -3.33310628763262        0.28324620696087
H           -1.62605723467827       -4.90336207216823       -1.47019325524546
H           -2.63845704073384       -2.47418869199898        0.27364386195190
H            1.31888247585439       -2.90606582227103        0.13171237564074

          :  Hamiltonian                  GFN2-xTB          :
         :: total energy             -42.135723844606 Eh    ::
         :: gradient norm              0.003377069426 Eh/a0 ::
         :: HOMO-LUMO gap              0.305349149357 eV    ::
         :: SCC energy               -42.652683726697 Eh    ::
         :: -> dispersion             -0.022695015249 Eh    ::
         :: repulsion energy           0.516866095044 Eh    ::

    * Orbital Energies and Occupations

         #    Occupation            Energy/Eh            Energy/eV
      -------------------------------------------------------------
         1        2.0000           -0.9141152             -24.8743
       ...           ...                  ...                  ...
        25        1.9992           -0.6752768             -18.3752
        26        1.9990           -0.6699081             -18.2291
        27        1.9989           -0.6658292             -18.1181
        28        1.9962           -0.6372134             -17.3395
        29        1.9959           -0.6353278             -17.2881
        30        1.9957           -0.6342788             -17.2596
        31        1.9920           -0.6197634             -16.8646
        32        1.9869           -0.6078180             -16.5396
        33        1.9736           -0.5911005             -16.0847
        34        1.9722           -0.5898201             -16.0498
        35        1.9384           -0.5705188             -15.5246
        36        1.9372           -0.5700811             -15.5127
        37        1.0892           -0.4928686             -13.4116 (HOMO)
        38        0.8542           -0.4816473             -13.1063 (LUMO)
        39        0.2001           -0.4364476             -11.8763
        40        0.0548           -0.4038291             -10.9887
        41        0.0184           -0.3774456             -10.2708
        42        0.0005           -0.2929893              -7.9726
        43        0.0000           -0.2139702              -5.8224
        44        0.0000           -0.2023627              -5.5066
        45        0.0000           -0.1514228              -4.1204
        46        0.0000           -0.1387469              -3.7755
        47                         -0.0691615              -1.8820
        48                         -0.0402570              -1.0954
       ...                                ...                  ...
        67                          0.5385052              14.6535
      -------------------------------------------------------------
                  HL-Gap            0.0112214 Eh            0.3053 eV

     #   Z          covCN         q      C6AA      α(0)
     1   6 C        3.691    -0.094    22.484     6.786
     2   7 N        2.824     0.076    19.917     6.628
     3   6 C        3.040     0.047    26.910     8.508
     4   7 N        2.782    -0.058    22.358     7.023
     5   6 C        3.034     0.091    25.939     8.354
     6   6 C        3.102    -0.013    28.212     8.704
     7   6 C        2.763     0.262    22.589     7.783
     8   8 O        0.858    -0.357    20.832     6.119
     9   7 N        2.744    -0.072    22.647     7.068
    10   6 C        3.711    -0.063    21.853     6.680
    11   6 C        2.735     0.307    21.781     7.641
    12   8 O        0.859    -0.332    20.376     6.052
    13   7 N        2.736     0.013    21.037     6.812
    14   6 C        2.798    -0.055    29.355     8.876
    15   1 H        0.924     0.110     1.693     2.035
    16   1 H        0.925     0.108     1.715     2.048
    17   1 H        0.925     0.138     1.478     1.901
    18   1 H        0.926     0.126     1.569     1.958
    19   1 H        0.925     0.123     1.588     1.971
    20   1 H        0.925     0.108     1.716     2.048
    21   1 H        0.924     0.108     1.713     2.047
    22   1 H        0.926     0.096     1.826     2.113
    23   1 H        0.000    -0.032     9.181     5.540
    24   1 H        0.926     0.136     1.490     1.909
    25   1 H        0.860     0.229     0.970     1.543

Wiberg/Mayer (AO) data.
largest (>0.10) Wiberg bond orders for each atom

     #   Z sym  total        # sym  WBO       # sym  WBO       # sym  WBO
 ---------------------------------------------------------------------------
     1   6 C    3.904 --     2 N    0.988    16 H    0.959    17 H    0.956
                            15 H    0.953
     2   7 N    3.617 --     3 C    1.345     6 C    1.157     1 C    0.988
     3   6 C    3.754 --     2 N    1.345     4 N    1.267    18 H    0.953
     4   7 N    3.527 --     3 C    1.267     5 C    1.172    25 H    0.918
     5   6 C    3.852 --     6 C    1.324     4 N    1.172    13 N    1.152
     6   6 C    3.830 --     5 C    1.324     2 N    1.157     7 C    1.090
     7   6 C    3.882 --     8 O    1.642     6 C    1.090     9 N    1.070
     8   8 O    1.919 --     7 C    1.642     9 N    0.122
     9   7 N    3.517 --    11 C    1.157     7 C    1.070    10 C    0.970
                            12 O    0.138     8 O    0.122
    10   6 C    3.881 --     9 N    0.970    19 H    0.958    21 H    0.954
                            20 H    0.953
    11   6 C    3.899 --    12 O    1.701     9 N    1.157    13 N    0.951
    12   8 O    2.001 --    11 C    1.701     9 N    0.138
    13   7 N    3.603 --    14 C    1.291     5 C    1.152    11 C    0.951
    14   6 C    3.320 --    13 N    1.291    22 H    0.963    24 H    0.956
    15   1 H    0.978 --     1 C    0.953
    16   1 H    0.981 --     1 C    0.959
    17   1 H    0.978 --     1 C    0.956
    18   1 H    0.983 --     3 C    0.953
    19   1 H    0.977 --    10 C    0.958
    20   1 H    0.971 --    10 C    0.953
    21   1 H    0.972 --    10 C    0.954
    22   1 H    0.989 --    14 C    0.963
    23   1 H    0.016
    24   1 H    0.979 --    14 C    0.956
    25   1 H    0.947 --     4 N    0.918
 ---------------------------------------------------------------------------

molecular dipole:
                 x           y           z       tot (Debye)
 q only:        2.396      -1.309       0.267
   full:        2.629      -1.865       0.275       8.222

           -------------------------------------------------
          | TOTAL ENERGY              -42.135723844606 Eh   |
          | GRADIENT NORM               0.003377069426 Eh/α |
          | HOMO-LUMO GAP               0.305349149357 eV   |
           -------------------------------------------------

 * finished run on 2024/06/05 at 19:58:54.759
