   * xtb version 6.6.1 (8d0f1dd) compiled by 'conda@1efc2f54142f' on 2023-08-01
          program call               : xtb struc.xyz --opt loose --input .xc1 --gfn2

   ID    Z sym.   atoms
    1    7 N      1, 17
    2    6 C      2-6, 8, 9, 11-16, 18-23, 25, 26, 28-33
    3    8 O      7, 10, 24, 27
    4    1 H      34-72
constraining bond 2 15 to    6.0000000 Å, actual value:    2.9709742 Å

          :  Hamiltonian                  GFN2-xTB          :
 * total energy  :   -97.7659057 Eh     change       -0.4035485E-08 Eh
 * total energy  :   -98.1693696 Eh     change       -0.4034639E+00 Eh
 * total energy  :   -98.4471539 Eh     change       -0.2777843E+00 Eh
 * total energy  :   -98.6372335 Eh     change       -0.1900796E+00 Eh
 * total energy  :   -98.7695085 Eh     change       -0.1322750E+00 Eh
 * total energy  :   -98.8701369 Eh     change       -0.1006284E+00 Eh
 * total energy  :   -98.9554881 Eh     change       -0.8535117E-01 Eh
 * total energy  :   -99.0165621 Eh     change       -0.6107399E-01 Eh
 * total energy  :   -99.0607825 Eh     change       -0.4422046E-01 Eh
 * total energy  :   -99.0866709 Eh     change       -0.2588838E-01 Eh
 * total energy  :   -99.3004999 Eh     change       -0.5385417E-04 Eh
 * total energy  :   -99.3005490 Eh     change       -0.4915174E-04 Eh
 * total energy  :   -99.3006085 Eh     change       -0.5945871E-04 Eh
 * total energy  :   -99.3006772 Eh     change       -0.6873786E-04 Eh
 * total energy  :   -99.3007420 Eh     change       -0.6473975E-04 Eh
 * total energy  :   -99.3007931 Eh     change       -0.5113958E-04 Eh
 * total energy  :   -99.3008459 Eh     change       -0.5277852E-04 Eh
 * total energy  :   -99.3008995 Eh     change       -0.5358081E-04 Eh
 * total energy  :   -99.3009296 Eh     change       -0.3016816E-04 Eh
   *** GEOMETRY OPTIMIZATION CONVERGED AFTER 73 ITERATIONS ***

 final structure:
================
72
 xtb: 6.6.1 (8d0f1dd)
N           -1.86369516738956        3.15241360158762        3.92338409046676
C           -1.24235563288803        3.08824872595275        2.88784409113899
C           -3.61883312765574        2.28587902819454        0.14837002772409
C           -3.80277218631270        0.82219723082705        0.12883402376556
C           -4.80431568722839        0.24415869432706       -0.65267645328428
C           -4.98661105490441       -1.12838060258165       -0.68891853255233
O           -5.91305062770554       -1.77436883696831       -1.42381414099522
C           -6.82270223581117       -1.02718152555785       -2.19785926796973
C           -4.15316047723523       -1.96483308367590        0.10439712345052
O           -4.41046596278958       -3.28582487604873        0.01670445842462
C           -3.66094366516151       -4.18750270919495        0.79561119611490
C           -3.16479109303556       -1.38123095467396        0.88493371892552
C           -2.98310330269311       -0.00666807962034        0.88646846798954
C           -2.41361936699320        2.80620268220393       -0.08734480038341
C           -1.21725472224604        0.16817484417811       -2.35449198077227
C           -0.04139337453431        0.38927709782459       -1.75308328660313
N            0.61095627618878       -0.45516788414790       -0.90757774929575
C            1.96793751542886       -0.17934312404767       -0.52228140480594
C            3.00223542541187       -0.76892219476685       -1.50759732428777
C            4.39364791648970       -0.46593056852225       -1.03825677432776
C            5.00139926574889        0.74080261329642       -1.35517198152016
C            6.27354045730087        1.03960269203920       -0.89518647036510
C            6.96816198816259        0.13645252676118       -0.10147502005401
O            8.20398647644230        0.31810135031851        0.39877175355639
C            8.89996806973456        1.50659982633430        0.10179406329320
C            6.35353430288028       -1.10332367227241        0.23182349891705
O            7.09726727969316       -1.92224741377229        1.00081500919050
C            6.59210281811870       -3.18883972345010        1.35076501954654
C            5.07833817645900       -1.37750611367475       -0.23868822552851
C            0.10769773984916       -1.78784408458786       -0.69743063096142
C           -4.84230883865312        3.09534347738899        0.50343107048708
C           -5.19278316797060        2.82895843980415        1.97301234986192
C           -4.69301407849064        4.59238373284222        0.25545017100154
H           -5.42716150415006        0.88111052544698       -1.25947298837231
H           -7.42396016156001       -0.35843593237855       -1.57421353382670
H           -7.47340190047897       -1.75971132949713       -2.67125487584782
H           -6.31006688286254       -0.44570495670487       -2.97035748123224
H           -3.77483129178728       -3.98549479155297        1.86511096436493
H           -4.06441537686595       -5.17290554059226        0.57053806600617
H           -2.59875386130563       -4.16252945009126        0.52976793255711
H           -2.53849163534490       -1.99467390130673        1.51359110469424
H           -2.21237927530058        0.42309838615450        1.50813199052677
H           -1.58371331108050        2.17147911691181       -0.35516385090898
H           -2.24189230296558        3.86803189276458       -0.12302710029843
H           -1.76960271320106       -0.74731775942794       -2.25625449977182
H           -1.65581344473606        0.92910738936394       -2.97171775015048
H           -1.59719858662625        2.96450866335280        1.87584401862904
H            0.46519414762494        1.33422225346030       -1.90168720596586
H            2.14526970908919       -0.59753006453622        0.47325410733927
H            2.11080184491233        0.90253497617905       -0.46551106603375
H            2.83184891909852       -0.33282203723609       -2.49345429901086
H            2.85422006413965       -1.84731450891437       -1.57608774984028
H            4.48523351815796        1.45570896197090       -1.97756140824798
H            6.72158036591382        1.98194853485866       -1.16485572138699
H            8.37451707810266        2.38547617857958        0.48785186852615
H            9.05886790722120        1.61917822047062       -0.97488404340321
H            9.86268799178806        1.41378712340826        0.60093041943375
H            7.37336701847661       -3.66155382326762        1.94300620557490
H            5.68218076859936       -3.10556592493665        1.95366680767992
H            6.39026858242252       -3.79870513703578        0.46480161175025
H            4.60601958147519       -2.31664566666277        0.00378520318109
H            0.18136100923206       -2.39756448938946       -1.60359813390743
H           -0.94082757271002       -1.73610778831516       -0.40098466177239
H            0.67558193191752       -2.26678331889737        0.09733669236548
H           -5.67512966939791        2.73010098586999       -0.10741020689255
H           -4.39353860915079        3.18034926956348        2.62201139442547
H           -5.33853351214422        1.76547339215553        2.14835651085130
H           -6.10712377819853        3.35277923691847        2.23892671612297
H           -3.95608841216468        5.02872534579290        0.92615639398919
H           -4.39812935903858        4.78889377883761       -0.77265627334274
H           -5.64363028429688        5.08771928189007        0.43661286964677
H           -1.51140133399225        3.27759131293472        4.86118072513338

          :  Hamiltonian                  GFN2-xTB          :
         :: total energy             -99.300929641780 Eh    ::
         :: gradient norm              0.001196984310 Eh/a0 ::
         :: HOMO-LUMO gap              1.019269142872 eV    ::
         :: SCC energy              -100.744665806937 Eh    ::
         :: -> dispersion             -0.069675230172 Eh    ::
         :: repulsion energy           1.442642615636 Eh    ::

    * Orbital Energies and Occupations

         #    Occupation            Energy/Eh            Energy/eV
      -------------------------------------------------------------
         1        2.0000           -0.8087217             -22.0064
       ...           ...                  ...                  ...
        78        1.9980           -0.5282085             -14.3733
        79        1.9977           -0.5259771             -14.3126
        80        1.9975           -0.5248675             -14.2824
        81        1.9971           -0.5227513             -14.2248
        82        1.9957           -0.5165027             -14.0548
        83        1.9945           -0.5123637             -13.9421
        84        1.9924           -0.5072449             -13.8028
        85        1.9834           -0.4949405             -13.4680
        86        1.9708           -0.4858377             -13.2203
        87        1.9635           -0.4822725             -13.1233
        88        1.8253           -0.4563214             -12.4171
        89        1.8178           -0.4555867             -12.3971
        90        1.7132           -0.4474683             -12.1762 (HOMO)
        91        0.7187           -0.4100108             -11.1570 (LUMO)
        92        0.0356           -0.3556596              -9.6780
        93        0.0055           -0.3258161              -8.8659
        94        0.0023           -0.3117253              -8.4825
        95        0.0020           -0.3094611              -8.4209
        96        0.0017           -0.3073810              -8.3643
        97        0.0004           -0.2825761              -7.6893
        98        0.0003           -0.2806206              -7.6361
        99        0.0000           -0.1840831              -5.0092
       100        0.0000           -0.1832596              -4.9867
       101                         -0.0922657              -2.5107
       ...                                ...                  ...
       171                          0.5935467              16.1512
      -------------------------------------------------------------
                  HL-Gap            0.0374575 Eh            1.0193 eV

     #   Z          covCN         q      C6AA      α(0)
     1   7 N        1.771    -0.131    24.587     7.342
     2   6 C        1.836    -0.002    31.229     9.028
     3   6 C        2.952     0.019    27.575     8.613
     4   6 C        2.978     0.007    27.858     8.658
     5   6 C        2.920    -0.071    29.774     8.948
     6   6 C        2.862     0.133    25.079     8.209
     7   8 O        1.706    -0.226    17.744     5.687
     8   6 C        3.645     0.027    20.463     6.502
     9   6 C        2.863     0.130    25.146     8.220
    10   8 O        1.706    -0.226    17.752     5.689
    11   6 C        3.645     0.027    20.451     6.500
    12   6 C        2.913    -0.072    29.803     8.952
    13   6 C        2.922    -0.044    29.098     8.846
    14   6 C        2.846    -0.107    30.687     9.079
    15   6 C        2.838    -0.120    31.034     9.129
    16   6 C        2.840     0.020    27.548     8.602
    17   7 N        2.732    -0.048    22.160     6.992
    18   6 C        3.752    -0.007    20.753     6.496
    19   6 C        3.807    -0.071    21.849     6.654
    20   6 C        2.968     0.006    27.874     8.660
    21   6 C        2.922    -0.046    29.135     8.852
    22   6 C        2.913    -0.066    29.648     8.929
    23   6 C        2.864     0.134    25.072     8.208
    24   8 O        1.706    -0.219    17.641     5.671
    25   6 C        3.645     0.025    20.495     6.507
    26   6 C        2.862     0.134    25.069     8.207
    27   8 O        1.706    -0.222    17.687     5.678
    28   6 C        3.645     0.027    20.464     6.502
    29   6 C        2.919    -0.077    29.932     8.972
    30   6 C        3.700    -0.057    21.770     6.673
    31   6 C        3.855    -0.013    20.773     6.482
    32   6 C        3.758    -0.108    22.608     6.779
    33   6 C        3.755    -0.111    22.675     6.790
    34   1 H        0.926     0.055     2.260     2.351
    35   1 H        0.924     0.054     2.269     2.356
    36   1 H        0.925     0.082     1.963     2.191
    37   1 H        0.924     0.053     2.278     2.360
    38   1 H        0.924     0.054     2.268     2.355
    39   1 H        0.925     0.082     1.961     2.190
    40   1 H        0.924     0.047     2.361     2.403
    41   1 H        0.926     0.049     2.338     2.391
    42   1 H        0.926     0.039     2.456     2.451
    43   1 H        0.926     0.038     2.479     2.462
    44   1 H        0.926     0.053     2.284     2.363
    45   1 H        0.926     0.044     2.401     2.423
    46   1 H        0.926     0.051     2.310     2.377
    47   1 H        0.926     0.128     1.548     1.946
    48   1 H        0.925     0.048     2.346     2.395
    49   1 H        0.924     0.052     2.292     2.368
    50   1 H        0.924     0.057     2.232     2.337
    51   1 H        0.924     0.056     2.252     2.347
    52   1 H        0.924     0.053     2.282     2.362
    53   1 H        0.926     0.050     2.320     2.382
    54   1 H        0.926     0.059     2.211     2.325
    55   1 H        0.924     0.055     2.256     2.349
    56   1 H        0.924     0.057     2.230     2.335
    57   1 H        0.925     0.083     1.952     2.185
    58   1 H        0.925     0.082     1.958     2.188
    59   1 H        0.924     0.050     2.314     2.379
    60   1 H        0.924     0.055     2.263     2.352
    61   1 H        0.926     0.051     2.313     2.378
    62   1 H        0.924     0.059     2.209     2.324
    63   1 H        0.924     0.066     2.127     2.280
    64   1 H        0.925     0.059     2.209     2.324
    65   1 H        0.924     0.048     2.343     2.394
    66   1 H        0.925     0.042     2.426     2.436
    67   1 H        0.925     0.038     2.476     2.461
    68   1 H        0.925     0.052     2.298     2.370
    69   1 H        0.925     0.042     2.418     2.432
    70   1 H        0.925     0.044     2.399     2.422
    71   1 H        0.925     0.049     2.329     2.386
    72   1 H        0.860     0.219     1.014     1.578

Wiberg/Mayer (AO) data.
largest (>0.10) Wiberg bond orders for each atom

     #   Z sym  total        # sym  WBO       # sym  WBO       # sym  WBO
 ---------------------------------------------------------------------------
     1   7 N    3.165 --     2 C    2.248    72 H    0.901
     2   6 C    3.175 --     1 N    2.248    47 H    0.889
     3   6 C    3.951 --    14 C    1.831     4 C    1.038    31 C    0.993
     4   6 C    3.941 --    13 C    1.381     5 C    1.361     3 C    1.038
     5   6 C    3.954 --     6 C    1.397     4 C    1.361    34 H    0.959
     6   6 C    3.896 --     5 C    1.397     9 C    1.217     7 O    1.105
     7   8 O    2.251 --     6 C    1.105     8 C    0.977
     8   6 C    3.929 --    36 H    0.977     7 O    0.977    35 H    0.973
                            37 H    0.972
     9   6 C    3.884 --    12 C    1.381     6 C    1.217    10 O    1.102
    10   8 O    2.245 --     9 C    1.102    11 C    0.979
    11   6 C    3.932 --    10 O    0.979    39 H    0.977    40 H    0.973
                            38 H    0.973
    12   6 C    3.959 --    13 C    1.419     9 C    1.381    41 H    0.962
    13   6 C    3.937 --    12 C    1.419     4 C    1.381    42 H    0.968
    14   6 C    3.942 --     3 C    1.831    43 H    0.969    44 H    0.968
    15   6 C    3.805 --    16 C    1.730    46 H    0.977    45 H    0.974
    16   6 C    3.942 --    15 C    1.730    17 N    1.202    48 H    0.957
    17   7 N    3.356 --    16 C    1.202    30 C    1.007    18 C    1.007
    18   6 C    3.963 --    17 N    1.007    50 H    0.968    49 H    0.967
                            19 C    0.960
    19   6 C    3.972 --    20 C    1.015    52 H    0.972    51 H    0.970
                            18 C    0.960
    20   6 C    3.932 --    21 C    1.395    29 C    1.382    19 C    1.015
    21   6 C    3.934 --    22 C    1.424    20 C    1.395    53 H    0.968
    22   6 C    3.953 --    21 C    1.424    23 C    1.377    54 H    0.963
    23   6 C    3.879 --    22 C    1.377    26 C    1.215    24 O    1.112
    24   8 O    2.247 --    23 C    1.112    25 C    0.976
    25   6 C    3.927 --    57 H    0.977    24 O    0.976    55 H    0.972
                            56 H    0.972
    26   6 C    3.886 --    29 C    1.391    23 C    1.215    27 O    1.106
    27   8 O    2.249 --    26 C    1.106    28 C    0.978
    28   6 C    3.930 --    27 O    0.978    58 H    0.977    59 H    0.973
                            60 H    0.972
    29   6 C    3.953 --    26 C    1.391    20 C    1.382    61 H    0.962
    30   6 C    3.966 --    17 N    1.007    64 H    0.980    62 H    0.967
                            63 H    0.965
    31   6 C    3.983 --    33 C    1.008     3 C    0.993    32 C    0.985
                            65 H    0.947
    32   6 C    3.985 --    31 C    0.985    66 H    0.985    67 H    0.985
                            68 H    0.982
    33   6 C    3.988 --    31 C    1.008    70 H    0.984    69 H    0.983
                            71 H    0.983
    34   1 H    0.995 --     5 C    0.959
    35   1 H    0.992 --     8 C    0.973
    36   1 H    0.993 --     8 C    0.977
    37   1 H    0.992 --     8 C    0.972
    38   1 H    0.992 --    11 C    0.973
    39   1 H    0.993 --    11 C    0.977
    40   1 H    0.993 --    11 C    0.973
    41   1 H    0.996 --    12 C    0.962
    42   1 H    0.998 --    13 C    0.968
    43   1 H    0.997 --    14 C    0.969
    44   1 H    0.995 --    14 C    0.968
    45   1 H    0.998 --    15 C    0.974
    46   1 H    0.997 --    15 C    0.977
    47   1 H    0.950 --     2 C    0.889
    48   1 H    0.997 --    16 C    0.957
    49   1 H    0.992 --    18 C    0.967
    50   1 H    0.995 --    18 C    0.968
    51   1 H    0.994 --    19 C    0.970
    52   1 H    0.996 --    19 C    0.972
    53   1 H    0.997 --    21 C    0.968
    54   1 H    0.995 --    22 C    0.963
    55   1 H    0.990 --    25 C    0.972
    56   1 H    0.990 --    25 C    0.972
    57   1 H    0.992 --    25 C    0.977
    58   1 H    0.993 --    28 C    0.977
    59   1 H    0.992 --    28 C    0.973
    60   1 H    0.991 --    28 C    0.972
    61   1 H    0.996 --    29 C    0.962
    62   1 H    0.983 --    30 C    0.967
    63   1 H    0.989 --    30 C    0.965
    64   1 H    0.996 --    30 C    0.980
    65   1 H    0.993 --    31 C    0.947
    66   1 H    0.997 --    32 C    0.985
    67   1 H    0.997 --    32 C    0.985
    68   1 H    0.995 --    32 C    0.982
    69   1 H    0.996 --    33 C    0.983
    70   1 H    0.997 --    33 C    0.984
    71   1 H    0.995 --    33 C    0.983
    72   1 H    0.925 --     1 N    0.901
 ---------------------------------------------------------------------------

molecular dipole:
                 x           y           z       tot (Debye)
 q only:        0.406       0.668       1.047
   full:        0.440       0.732       0.993       3.329

           -------------------------------------------------
          | TOTAL ENERGY              -99.300929641780 Eh   |
          | GRADIENT NORM               0.001196984310 Eh/α |
          | HOMO-LUMO GAP               1.019269142872 eV   |
           -------------------------------------------------

 * finished run on 2024/04/06 at 11:11:42.811
