   * xtb version 6.6.1 (8d0f1dd) compiled by 'conda@1efc2f54142f' on 2023-08-01
          program call               : xtb struc.xyz --opt loose --input .xc1 --gfn2

   ID    Z sym.   atoms
    1    6 C      1, 3, 5-7, 10, 11, 14
    2    7 N      2, 4, 9, 13
    3    8 O      8, 12
    4    1 H      15-25
constraining bond 2 25 to    5.0600000 Å, actual value:    3.1552271 Å

          :  Hamiltonian                  GFN2-xTB          :
 * total energy  :   -35.7696631 Eh     change       -0.6650680E-10 Eh
 * total energy  :   -38.7064979 Eh     change       -0.2936835E+01 Eh
 * total energy  :   -40.6128841 Eh     change       -0.1906386E+01 Eh
 * total energy  :   -41.5733547 Eh     change       -0.9604706E+00 Eh
 * total energy  :   -41.8773208 Eh     change       -0.3039661E+00 Eh
 * total energy  :   -41.9296985 Eh     change       -0.5237773E-01 Eh
 * total energy  :   -41.9674577 Eh     change       -0.3775917E-01 Eh
 * total energy  :   -42.0151683 Eh     change       -0.4771059E-01 Eh
 * total energy  :   -42.0475859 Eh     change       -0.3241758E-01 Eh
 * total energy  :   -42.0717194 Eh     change       -0.2413349E-01 Eh
 * total energy  :   -42.1285049 Eh     change       -0.1222248E-02 Eh
 * total energy  :   -42.1292207 Eh     change       -0.7157727E-03 Eh
 * total energy  :   -42.1295446 Eh     change       -0.3239078E-03 Eh
 * total energy  :   -42.1299336 Eh     change       -0.3890356E-03 Eh
 * total energy  :   -42.1311071 Eh     change       -0.1173440E-02 Eh
 * total energy  :   -42.1316416 Eh     change       -0.5345910E-03 Eh
 * total energy  :   -42.1317333 Eh     change       -0.9166470E-04 Eh
 * total energy  :   -42.1318031 Eh     change       -0.6981650E-04 Eh
 * total energy  :   -42.1318369 Eh     change       -0.3375994E-04 Eh
   *** GEOMETRY OPTIMIZATION CONVERGED AFTER 26 ITERATIONS ***

 final structure:
================
25
 xtb: 6.6.1 (8d0f1dd)
C            3.24351573764476        1.23951158712342        0.01894337376829
N            2.27503683384907        0.18049881901931        0.00116576426754
C            2.51271758426980       -1.15370299019227       -0.00459830682293
N            1.41298961738253       -1.87289168079201       -0.00543035050980
C            0.39826321787280       -0.98387184980921        0.00086108029422
C            0.92016033517803        0.32004546457963        0.00578813701752
C            0.06609936365499        1.48315055582770       -0.00171781875047
O            0.43680271019759        2.63531412868388       -0.01178212172713
N           -1.28256211934666        1.12791830758660        0.00032298391817
C           -2.26055507117181        2.20132536045083       -0.00317476813488
C           -1.82009457832213       -0.15402447343900        0.00288095329048
O           -3.00939283664830       -0.33550737174683        0.00536128901315
N           -0.92501593068769       -1.22899097962950        0.00120319851431
C           -1.43171875612505       -2.57983476715424       -0.00147405262834
H            3.75401198901361        1.27015543151591        0.98419968354539
H            3.98805495010462        1.08275766388936       -0.76218898566151
H            2.73530596148147        2.18993765728564       -0.14141595598678
H            3.49892502803018       -1.57385413197121       -0.00905830381845
H           -1.72891211451290        3.15078270960666        0.00395412743550
H           -2.89232401470548        2.12722674646181       -0.89004814610664
H           -2.90545690716830        2.11998434252672        0.87344965093305
H           -1.06920435638805       -3.11032498269510        0.88044103875724
H           -1.08334381475981       -3.10210567946320       -0.89406740559184
H           -2.51992691844617       -2.54170258470786        0.00688621325673
H            0.84705560370284       -4.67355874135664       -0.02932966037306

          :  Hamiltonian                  GFN2-xTB          :
         :: total energy             -42.131836882399 Eh    ::
         :: gradient norm              0.002294010870 Eh/a0 ::
         :: HOMO-LUMO gap              0.713362991246 eV    ::
         :: SCC energy               -42.643190196145 Eh    ::
         :: -> dispersion             -0.022585274390 Eh    ::
         :: repulsion energy           0.511258307000 Eh    ::

    * Orbital Energies and Occupations

         #    Occupation            Energy/Eh            Energy/eV
      -------------------------------------------------------------
         1        2.0000           -0.8939522             -24.3257
       ...           ...                  ...                  ...
        25        1.9995           -0.6677113             -18.1693
        26        1.9992           -0.6589105             -17.9299
        27        1.9983           -0.6473096             -17.6142
        28        1.9975           -0.6413490             -17.4520
        29        1.9953           -0.6316228             -17.1873
        30        1.9889           -0.6178502             -16.8126
        31        1.9878           -0.6163347             -16.7713
        32        1.9772           -0.6063799             -16.5004
        33        1.9648           -0.5994021             -16.3106
        34        1.9165           -0.5853582             -15.9284
        35        1.8823           -0.5796262             -15.7724
        36        1.8773           -0.5789326             -15.7536
        37        1.5788           -0.5566622             -15.1475 (HOMO)
        38        0.8344           -0.5304466             -14.4342 (LUMO)
        39        0.0029           -0.4324015             -11.7662
        40        0.0002           -0.3909322             -10.6378
        41        0.0001           -0.3749776             -10.2037
        42        0.0000           -0.2963734              -8.0647
        43                         -0.2076651              -5.6509
        44                         -0.1596273              -4.3437
        45                         -0.1392364              -3.7888
        46                         -0.0802554              -2.1839
        47                         -0.0606818              -1.6512
        48                         -0.0399591              -1.0873
       ...                                ...                  ...
        67                          0.5336087              14.5202
      -------------------------------------------------------------
                  HL-Gap            0.0262156 Eh            0.7134 eV

     #   Z          covCN         q      C6AA      α(0)
     1   6 C        3.689    -0.082    22.273     6.754
     2   7 N        2.828     0.052    20.324     6.696
     3   6 C        3.186     0.099    25.386     8.222
     4   7 N        1.898    -0.206    26.298     7.603
     5   6 C        3.166     0.133    24.776     8.134
     6   6 C        3.119    -0.007    28.011     8.668
     7   6 C        2.764     0.274    22.371     7.746
     8   8 O        0.858    -0.330    20.323     6.044
     9   7 N        2.746    -0.068    22.564     7.055
    10   6 C        3.709    -0.062    21.846     6.680
    11   6 C        2.728     0.317    21.612     7.611
    12   8 O        0.860    -0.331    20.342     6.047
    13   7 N        2.739    -0.020    21.633     6.908
    14   6 C        3.700    -0.073    22.068     6.718
    15   1 H        0.924     0.111     1.690     2.033
    16   1 H        0.924     0.108     1.712     2.046
    17   1 H        0.925     0.126     1.563     1.955
    18   1 H        0.926     0.112     1.676     2.025
    19   1 H        0.925     0.123     1.588     1.971
    20   1 H        0.924     0.116     1.648     2.008
    21   1 H        0.924     0.116     1.646     2.006
    22   1 H        0.924     0.110     1.698     2.038
    23   1 H        0.924     0.110     1.697     2.037
    24   1 H        0.925     0.130     1.539     1.940
    25   1 H        0.000     0.142     3.611     3.475

Wiberg/Mayer (AO) data.
largest (>0.10) Wiberg bond orders for each atom

     #   Z sym  total        # sym  WBO       # sym  WBO       # sym  WBO
 ---------------------------------------------------------------------------
     1   6 C    3.902 --     2 N    0.995    17 H    0.959    16 H    0.956
                            15 H    0.947
     2   7 N    3.637 --     3 C    1.268     6 C    1.217     1 C    0.995
     3   6 C    3.865 --     4 N    1.486     2 N    1.268    18 H    0.954
     4   7 N    2.974 --     3 C    1.486     5 C    1.269
     5   6 C    3.898 --     4 N    1.269     6 C    1.254    13 N    1.207
     6   6 C    3.796 --     5 C    1.254     2 N    1.217     7 C    1.075
     7   6 C    3.946 --     8 O    1.673     9 N    1.100     6 C    1.075
     8   8 O    1.961 --     7 C    1.673     9 N    0.127
     9   7 N    3.500 --    11 C    1.106     7 C    1.100    10 C    0.979
                             8 O    0.127    12 O    0.117
    10   6 C    3.867 --     9 N    0.979    19 H    0.959    21 H    0.943
                            20 H    0.943
    11   6 C    3.951 --    12 O    1.685     9 N    1.106    13 N    1.069
    12   8 O    1.974 --    11 C    1.685     9 N    0.117    13 N    0.102
    13   7 N    3.483 --     5 C    1.207    11 C    1.069    14 C    0.983
                            12 O    0.102
    14   6 C    3.886 --    13 N    0.983    24 H    0.960    22 H    0.948
                            23 H    0.947
    15   1 H    0.973 --     1 C    0.947
    16   1 H    0.978 --     1 C    0.956
    17   1 H    0.978 --     1 C    0.959
    18   1 H    0.985 --     3 C    0.954
    19   1 H    0.978 --    10 C    0.959
    20   1 H    0.960 --    10 C    0.943
    21   1 H    0.960 --    10 C    0.943
    22   1 H    0.966 --    14 C    0.948
    23   1 H    0.966 --    14 C    0.947
    24   1 H    0.979 --    14 C    0.960
    25   1 H    0.028
 ---------------------------------------------------------------------------

molecular dipole:
                 x           y           z       tot (Debye)
 q only:        1.434      -1.497       0.007
   full:        1.703      -1.378       0.013       5.570

           -------------------------------------------------
          | TOTAL ENERGY              -42.131836882399 Eh   |
          | GRADIENT NORM               0.002294010870 Eh/α |
          | HOMO-LUMO GAP               0.713362991246 eV   |
           -------------------------------------------------

 * finished run on 2024/06/05 at 19:57:54.146
