   * xtb version 6.6.1 (8d0f1dd) compiled by 'conda@1efc2f54142f' on 2023-08-01
          program call               : xtb struc.xyz --opt loose --input .xc1 --gfn2

   ID    Z sym.   atoms
    1    6 C      1, 3, 5-7, 10, 11, 14
    2    7 N      2, 4, 9, 13
    3    8 O      8, 12
    4    1 H      15-25
constraining bond 3 17 to    5.1400000 Å, actual value:    3.3163079 Å

          :  Hamiltonian                  GFN2-xTB          :
 * total energy  :   -36.3094416 Eh     change       -0.6650680E-10 Eh
 * total energy  :   -39.1457489 Eh     change       -0.2836307E+01 Eh
 * total energy  :   -40.9990039 Eh     change       -0.1853255E+01 Eh
 * total energy  :   -41.7865052 Eh     change       -0.7875012E+00 Eh
 * total energy  :   -41.9424454 Eh     change       -0.1559403E+00 Eh
 * total energy  :   -41.9542588 Eh     change       -0.1181340E-01 Eh
 * total energy  :   -41.9673117 Eh     change       -0.1305283E-01 Eh
 * total energy  :   -41.9799167 Eh     change       -0.1260501E-01 Eh
 * total energy  :   -41.9860644 Eh     change       -0.6147740E-02 Eh
 * total energy  :   -41.9896325 Eh     change       -0.3568032E-02 Eh
 * total energy  :   -42.0678935 Eh     change       -0.2401093E-01 Eh
 * total energy  :   -42.0723659 Eh     change       -0.4472383E-02 Eh
 * total energy  :   -42.0764466 Eh     change       -0.4080707E-02 Eh
 * total energy  :   -42.0776210 Eh     change       -0.1174456E-02 Eh
 * total energy  :   -42.0850842 Eh     change       -0.7463172E-02 Eh
 * total energy  :   -42.0874316 Eh     change       -0.2347390E-02 Eh
 * total energy  :   -42.0877653 Eh     change       -0.3337070E-03 Eh
 * total energy  :   -42.0879127 Eh     change       -0.1474333E-03 Eh
 * total energy  :   -42.0879375 Eh     change       -0.2475676E-04 Eh
   *** GEOMETRY OPTIMIZATION CONVERGED AFTER 26 ITERATIONS ***

 final structure:
================
25
 xtb: 6.6.1 (8d0f1dd)
C            3.11948452861695        1.56955818347595        0.01835443556682
N            2.37024795967240        0.38799733426550       -0.01732553557000
C            2.51230832584735       -2.60091400175345       -0.01265792218044
N            1.26384556724538       -2.30960775661574       -0.01206631737254
C            0.52444951862070       -1.11765068926585       -0.01085181921071
C            1.09743681999342        0.18636956200011       -0.00595961876745
C            0.13990053233543        1.35947722453273        0.00341115321777
O            0.53622740586495        2.50044101057029        0.01543199049889
N           -1.19121640154631        1.05283241673430       -0.00760542147454
C           -2.16107665131692        2.14279409917258       -0.00913298404208
C           -1.73694397953671       -0.21171984033017       -0.00642071042498
O           -2.92359793252593       -0.39501677363475       -0.00469137299656
N           -0.83047504543444       -1.28301851684175       -0.00522318237398
C           -1.44649551032862       -2.60121260540922        0.00470835594481
H            3.67347766884059        1.58324602300812        0.96430754991777
H            3.86355250802293        1.51630008370364       -0.78285956676340
H            2.56251354482986        2.53203702213724       -0.06782228938326
H            3.26781991606935       -1.82209773633218       -0.01580436439377
H           -1.62376442028945        3.08731984774490       -0.00232599610307
H           -2.78852861495534        2.06931990146006       -0.89715479265296
H           -2.79959168954621        2.06296891696440        0.87042242628558
H           -1.18514561969342       -3.15723169139797        0.90745604032020
H           -1.19973440870116       -3.16527062499008       -0.89709406695752
H           -2.52703215588400       -2.44454388631115        0.01250158927113
H            0.64276964789921       -3.12413896128750       -0.01042596245568

          :  Hamiltonian                  GFN2-xTB          :
         :: total energy             -42.087937480173 Eh    ::
         :: gradient norm              0.001532506140 Eh/a0 ::
         :: HOMO-LUMO gap              0.173917672610 eV    ::
         :: SCC energy               -42.595537930730 Eh    ::
         :: -> dispersion             -0.022098025591 Eh    ::
         :: repulsion energy           0.507396028498 Eh    ::

    * Orbital Energies and Occupations

         #    Occupation            Energy/Eh            Energy/eV
      -------------------------------------------------------------
         1        2.0000           -0.8961692             -24.3860
       ...           ...                  ...                  ...
        25        1.9999           -0.6768257             -18.4174
        26        1.9998           -0.6677802             -18.1712
        27        1.9994           -0.6473310             -17.6148
        28        1.9993           -0.6432074             -17.5026
        29        1.9989           -0.6358242             -17.3017
        30        1.9986           -0.6324001             -17.2085
        31        1.9970           -0.6203738             -16.8812
        32        1.9943           -0.6103111             -16.6074
        33        1.9910           -0.6031127             -16.4115
        34        1.9836           -0.5936106             -16.1530
        35        1.9671           -0.5824253             -15.8486
        36        1.7360           -0.5474668             -14.8973
        37        1.2468           -0.5256291             -14.3031 (HOMO)
        38        1.0502           -0.5192377             -14.1292 (LUMO)
        39        0.0364           -0.4544955             -12.3675
        40        0.0015           -0.4042090             -10.9991
        41        0.0005           -0.3853313             -10.4854
        42        0.0000           -0.3021124              -8.2209
        43                         -0.2115178              -5.7557
        44                         -0.1757395              -4.7821
        45                         -0.1517824              -4.1302
        46                         -0.1016416              -2.7658
        47                         -0.0888339              -2.4173
        48                         -0.0570695              -1.5529
       ...                                ...                  ...
        67                          0.5381035              14.6425
      -------------------------------------------------------------
                  HL-Gap            0.0063914 Eh            0.1739 eV

     #   Z          covCN         q      C6AA      α(0)
     1   6 C        3.686    -0.053    21.741     6.675
     2   7 N        1.831    -0.118    24.333     7.310
     3   6 C        1.841    -0.061    32.820     9.255
     4   7 N        2.687     0.005    21.178     6.835
     5   6 C        2.832     0.089    26.018     8.359
     6   6 C        2.883     0.054    26.787     8.485
     7   6 C        2.768     0.269    22.464     7.762
     8   8 O        0.859    -0.323    20.199     6.026
     9   7 N        2.738    -0.064    22.485     7.043
    10   6 C        3.710    -0.063    21.849     6.680
    11   6 C        2.727     0.318    21.592     7.607
    12   8 O        0.860    -0.347    20.658     6.094
    13   7 N        2.743    -0.044    22.101     6.982
    14   6 C        3.702    -0.084    22.268     6.748
    15   1 H        0.924     0.125     1.573     1.961
    16   1 H        0.924     0.122     1.596     1.975
    17   1 H        0.921     0.137     1.481     1.904
    18   1 H        0.925     0.130     1.535     1.937
    19   1 H        0.925     0.115     1.654     2.011
    20   1 H        0.925     0.107     1.722     2.052
    21   1 H        0.925     0.107     1.720     2.051
    22   1 H        0.924     0.094     1.838     2.120
    23   1 H        0.924     0.094     1.836     2.119
    24   1 H        0.924     0.141     1.451     1.884
    25   1 H        0.859     0.250     0.884     1.473

Wiberg/Mayer (AO) data.
largest (>0.10) Wiberg bond orders for each atom

     #   Z sym  total        # sym  WBO       # sym  WBO       # sym  WBO
 ---------------------------------------------------------------------------
     1   6 C    3.863 --     2 N    1.108    16 H    0.916    15 H    0.905
                            17 H    0.878
     2   7 N    2.836 --     6 C    1.566     1 C    1.108
     3   6 C    2.675 --     4 N    1.626    18 H    0.907
     4   7 N    3.662 --     3 C    1.626     5 C    1.083    25 H    0.865
     5   6 C    3.667 --    13 N    1.215     6 C    1.208     4 N    1.083
     6   6 C    3.916 --     2 N    1.566     5 C    1.208     7 C    0.928
     7   6 C    3.893 --     8 O    1.702     9 N    1.165     6 C    0.928
     8   8 O    2.019 --     7 C    1.702     9 N    0.137
     9   7 N    3.550 --     7 C    1.165    11 C    1.107    10 C    0.960
                             8 O    0.137    12 O    0.119
    10   6 C    3.891 --    19 H    0.967     9 N    0.960    21 H    0.959
                            20 H    0.959
    11   6 C    3.939 --    12 O    1.695     9 N    1.107    13 N    1.053
    12   8 O    2.011 --    11 C    1.695     9 N    0.119    13 N    0.109
    13   7 N    3.482 --     5 C    1.215    11 C    1.053    14 C    0.978
                            12 O    0.109
    14   6 C    3.913 --    13 N    0.978    22 H    0.958    23 H    0.958
                            24 H    0.950
    15   1 H    0.944 --     1 C    0.905
    16   1 H    0.947 --     1 C    0.916
    17   1 H    0.914 --     1 C    0.878
    18   1 H    0.939 --     3 C    0.907
    19   1 H    0.984 --    10 C    0.967
    20   1 H    0.979 --    10 C    0.959
    21   1 H    0.979 --    10 C    0.959
    22   1 H    0.981 --    14 C    0.958
    23   1 H    0.981 --    14 C    0.958
    24   1 H    0.978 --    14 C    0.950
    25   1 H    0.917 --     4 N    0.865
 ---------------------------------------------------------------------------

molecular dipole:
                 x           y           z       tot (Debye)
 q only:        1.344      -1.514       0.014
   full:        1.242      -1.321       0.023       4.609

           -------------------------------------------------
          | TOTAL ENERGY              -42.087937480173 Eh   |
          | GRADIENT NORM               0.001532506140 Eh/α |
          | HOMO-LUMO GAP               0.173917672610 eV   |
           -------------------------------------------------

 * finished run on 2024/06/05 at 19:58:17.831
