   * xtb version 6.6.1 (8d0f1dd) compiled by 'conda@1efc2f54142f' on 2023-08-01
          program call               : xtb xtbopt.xyz --opt crude --input .xc2 --gfn2

   ID    Z sym.   atoms
    1    6 C      1, 3, 5-7, 10, 11, 14
    2    7 N      2, 4, 9, 13
    3    8 O      8, 12
    4    1 H      15-25
########################################################################
[WARNING] Please study the warnings concerning your input carefully
-1- readin_getIntValue: could not parse ''
########################################################################

          :  Hamiltonian                  GFN2-xTB          :
 * total energy  :   -42.0880131 Eh     change       -0.1043787E-10 Eh
 * total energy  :   -42.0912708 Eh     change       -0.3257718E-02 Eh
 * total energy  :   -42.0939619 Eh     change       -0.2691117E-02 Eh
 * total energy  :   -42.0943815 Eh     change       -0.4196140E-03 Eh
   *** GEOMETRY OPTIMIZATION CONVERGED AFTER 4 ITERATIONS ***

 final structure:
================
25
 xtb: 6.6.1 (8d0f1dd)
C            3.15225386341680        1.41586734735294        0.01903868842677
N            2.34792897287945        0.27680181070127       -0.00503549065440
C            2.58015352348936       -2.30253216265533       -0.01437240125165
N            1.29651009105085       -2.22787803806592       -0.01006630234356
C            0.46950761434480       -1.10917216870871       -0.00472194216600
C            1.06120727753960        0.17005800575847        0.00213457672084
C            0.13370589632354        1.35619204456043        0.00656523711083
O            0.54517812236970        2.49252200317586        0.01563784653496
N           -1.20092870561519        1.05311046581995       -0.00635899276887
C           -2.16183629396031        2.15111036835687       -0.00919764719383
C           -1.76661963581050       -0.20839277118211       -0.00655678275988
O           -2.95448027914659       -0.37773656355676       -0.00884895119971
N           -0.87430776242564       -1.29067047859196       -0.00329357191288
C           -1.46784277975982       -2.61600585716987        0.00298916553850
H            3.71066330402167        1.44963838597925        0.96069100849533
H            3.88275325628357        1.36247071729115       -0.79353904142225
H            2.55495075462766        2.33076816594610       -0.07521241536605
H            3.21631167950924       -1.42053115135763       -0.00919385198719
H           -1.61683768861581        3.09130271304513       -0.00265169397174
H           -2.78961317538796        2.08231850506011       -0.89734578051281
H           -2.80159532977687        2.07713538874761        0.86996782619421
H           -1.18868355521556       -3.16772038722681        0.90233021469174
H           -1.19986495988309       -3.17227500050085       -0.89704215923964
H           -2.55074703878239       -2.47996776465238        0.00884796398739
H            0.78266436262354       -3.11817503652681       -0.01359388505007

          :  Hamiltonian                  GFN2-xTB          :
         :: total energy             -42.094381520395 Eh    ::
         :: gradient norm              0.009501791953 Eh/a0 ::
         :: HOMO-LUMO gap              0.132450431980 eV    ::
         :: SCC energy               -42.608190360428 Eh    ::
         :: -> dispersion             -0.022355930161 Eh    ::
         :: repulsion energy           0.513678033414 Eh    ::

    * Orbital Energies and Occupations

         #    Occupation            Energy/Eh            Energy/eV
      -------------------------------------------------------------
         1        2.0000           -0.8955732             -24.3698
       ...           ...                  ...                  ...
        25        1.9999           -0.6782983             -18.4574
        26        1.9999           -0.6768132             -18.4170
        27        1.9995           -0.6469128             -17.6034
        28        1.9993           -0.6424048             -17.4807
        29        1.9991           -0.6391192             -17.3913
        30        1.9987           -0.6326320             -17.2148
        31        1.9970           -0.6197757             -16.8650
        32        1.9946           -0.6103139             -16.6075
        33        1.9920           -0.6040161             -16.4361
        34        1.9855           -0.5946150             -16.1803
        35        1.9671           -0.5814314             -15.8216
        36        1.8587           -0.5574689             -15.1695
        37        1.1571           -0.5216823             -14.1957 (HOMO)
        38        1.0047           -0.5168148             -14.0632 (LUMO)
        39        0.0449           -0.4568946             -12.4327
        40        0.0017           -0.4046138             -11.0101
        41        0.0005           -0.3858933             -10.5007
        42        0.0000           -0.3006035              -8.1798
        43                         -0.2085474              -5.6749
        44                         -0.1695742              -4.6143
        45                         -0.1484147              -4.0386
        46                         -0.1001726              -2.7258
        47                         -0.0824114              -2.2425
        48                         -0.0437137              -1.1895
       ...                                ...                  ...
        67                          0.5395088              14.6808
      -------------------------------------------------------------
                  HL-Gap            0.0048675 Eh            0.1325 eV

     #   Z          covCN         q      C6AA      α(0)
     1   6 C        3.691    -0.055    21.761     6.675
     2   7 N        1.838    -0.119    24.367     7.315
     3   6 C        1.847    -0.068    33.001     9.280
     4   7 N        2.688     0.011    21.060     6.816
     5   6 C        2.854     0.088    26.043     8.364
     6   6 C        2.892     0.049    26.904     8.504
     7   6 C        2.767     0.270    22.445     7.759
     8   8 O        0.858    -0.325    20.243     6.032
     9   7 N        2.738    -0.067    22.536     7.051
    10   6 C        3.710    -0.063    21.844     6.679
    11   6 C        2.726     0.318    21.599     7.608
    12   8 O        0.860    -0.345    20.619     6.088
    13   7 N        2.740    -0.042    22.058     6.975
    14   6 C        3.700    -0.080    22.200     6.738
    15   1 H        0.924     0.120     1.612     1.985
    16   1 H        0.924     0.118     1.633     1.999
    17   1 H        0.924     0.136     1.487     1.907
    18   1 H        0.925     0.157     1.347     1.815
    19   1 H        0.925     0.115     1.655     2.012
    20   1 H        0.925     0.107     1.724     2.053
    21   1 H        0.925     0.107     1.723     2.053
    22   1 H        0.924     0.092     1.855     2.130
    23   1 H        0.924     0.093     1.854     2.129
    24   1 H        0.924     0.137     1.479     1.902
    25   1 H        0.859     0.248     0.892     1.480

Wiberg/Mayer (AO) data.
largest (>0.10) Wiberg bond orders for each atom

     #   Z sym  total        # sym  WBO       # sym  WBO       # sym  WBO
 ---------------------------------------------------------------------------
     1   6 C    3.873 --     2 N    1.095    16 H    0.922    15 H    0.912
                            17 H    0.884
     2   7 N    2.902 --     6 C    1.535     1 C    1.095     3 C    0.109
     3   6 C    2.732 --     4 N    1.615    18 H    0.858     2 N    0.109
     4   7 N    3.668 --     3 C    1.615     5 C    1.091    25 H    0.874
     5   6 C    3.699 --     6 C    1.222    13 N    1.215     4 N    1.091
     6   6 C    3.917 --     2 N    1.535     5 C    1.222     7 C    0.938
     7   6 C    3.899 --     8 O    1.697     9 N    1.164     6 C    0.938
     8   8 O    2.038 --     7 C    1.697     9 N    0.140
     9   7 N    3.552 --     7 C    1.164    11 C    1.102    10 C    0.961
                             8 O    0.140    12 O    0.120
    10   6 C    3.892 --    19 H    0.967     9 N    0.961    21 H    0.959
                            20 H    0.959
    11   6 C    3.940 --    12 O    1.699     9 N    1.102    13 N    1.053
    12   8 O    2.013 --    11 C    1.699     9 N    0.120    13 N    0.110
    13   7 N    3.483 --     5 C    1.215    11 C    1.053    14 C    0.977
                            12 O    0.110
    14   6 C    3.914 --    13 N    0.977    22 H    0.961    23 H    0.961
                            24 H    0.955
    15   1 H    0.948 --     1 C    0.912
    16   1 H    0.953 --     1 C    0.922
    17   1 H    0.928 --     1 C    0.884
    18   1 H    0.937 --     3 C    0.858
    19   1 H    0.984 --    10 C    0.967
    20   1 H    0.979 --    10 C    0.959
    21   1 H    0.979 --    10 C    0.959
    22   1 H    0.982 --    14 C    0.961
    23   1 H    0.981 --    14 C    0.961
    24   1 H    0.980 --    14 C    0.955
    25   1 H    0.917 --     4 N    0.874
 ---------------------------------------------------------------------------

molecular dipole:
                 x           y           z       tot (Debye)
 q only:        1.435      -1.628       0.008
   full:        1.288      -1.506       0.018       5.037

           -------------------------------------------------
          | TOTAL ENERGY              -42.094381520395 Eh   |
          | GRADIENT NORM               0.009501791953 Eh/α |
          | HOMO-LUMO GAP               0.132450431980 eV   |
           -------------------------------------------------

 * finished run on 2024/06/05 at 19:58:18.037
