   * xtb version 6.6.1 (8d0f1dd) compiled by 'conda@1efc2f54142f' on 2023-08-01
          program call               : xtb struc.xyz --opt loose --input .xc1 --gfn2

   ID    Z sym.   atoms
    1    6 C      1, 3, 5-7, 10, 11, 14
    2    7 N      2, 4, 9, 13
    3    8 O      8, 12
    4    1 H      15-25
constraining bond 1 6 to    5.0000000 Å, actual value:    2.4924048 Å

          :  Hamiltonian                  GFN2-xTB          :
 * total energy  :   -31.0177974 Eh     change       -0.6633627E-10 Eh
 * total energy  :   -35.1856973 Eh     change       -0.4167900E+01 Eh
 * total energy  :   -38.4525535 Eh     change       -0.3266856E+01 Eh
 * total energy  :   -40.4725130 Eh     change       -0.2019959E+01 Eh
 * total energy  :   -41.3481476 Eh     change       -0.8756346E+00 Eh
 * total energy  :   -41.5086437 Eh     change       -0.1604962E+00 Eh
 * total energy  :   -41.5398039 Eh     change       -0.3116016E-01 Eh
 * total energy  :   -41.5862273 Eh     change       -0.4642344E-01 Eh
 * total energy  :   -41.6182262 Eh     change       -0.3199884E-01 Eh
 * total energy  :   -41.6539602 Eh     change       -0.3573405E-01 Eh
 * total energy  :   -42.1091995 Eh     change       -0.2323423E-03 Eh
 * total energy  :   -42.1095041 Eh     change       -0.3046154E-03 Eh
 * total energy  :   -42.1095749 Eh     change       -0.7083250E-04 Eh
 * total energy  :   -42.1099093 Eh     change       -0.3343745E-03 Eh
 * total energy  :   -42.1100245 Eh     change       -0.1152001E-03 Eh
 * total energy  :   -42.1101819 Eh     change       -0.1574370E-03 Eh
 * total energy  :   -42.1099388 Eh     change        0.2431543E-03 Eh
 * total energy  :   -42.1102983 Eh     change       -0.3595180E-03 Eh
 * total energy  :   -42.1103367 Eh     change       -0.3837889E-04 Eh
   *** GEOMETRY OPTIMIZATION CONVERGED AFTER 70 ITERATIONS ***

 final structure:
================
25
 xtb: 6.6.1 (8d0f1dd)
C            3.94152490787085        3.37036407288694        0.13252834098729
N            2.17812953116820       -1.10230113266391       -0.04374222226486
C            2.06748148886258       -2.39719319376926       -0.09079769431312
N            0.76058508397266       -2.80742142157758       -0.10749870571486
C            0.00958964407362       -1.67821649638452       -0.06415391870767
C            0.92039438502418       -0.60944803425840       -0.02525417340335
C            0.45232549890161        0.76011129946079        0.03179845385950
O            1.14540032176627        1.75184272954444        0.06810805131974
N           -0.94111515127270        0.83100491233566        0.04342637358622
C           -1.55299394062228        2.15170636350944        0.11626143828499
C           -1.84600820203392       -0.21150872165395       -0.00116951662475
O           -3.03335775015828       -0.03546498408592        0.01015259968005
N           -1.32044566594016       -1.52211040429936       -0.06306994654024
C           -2.23556891544300       -2.63989440178884       -0.12188324192727
H            4.34276031432912        3.73648876797222        1.06031296202119
H            4.51003494780200        3.48822467825698       -0.77275037702487
H            2.97867097484913        2.88055568114628        0.10992833541474
H            2.89737408143781       -3.07441953264489       -0.11512220262029
H           -0.76370263534851        2.89614767390442        0.05393804894269
H           -2.26018662704277        2.27476015808518       -0.70333207847560
H           -2.09579951276967        2.25738229622422        1.05575356282498
H           -2.09931856578486       -3.29070558863171        0.74320880026252
H           -2.08041822152743       -3.20933172314896       -1.03940630526651
H           -3.24947509099149       -2.24022278228363       -0.11398381057760
H            0.43455061296108       -3.76211167453488       -0.13208115582833

          :  Hamiltonian                  GFN2-xTB          :
         :: total energy             -42.110336673729 Eh    ::
         :: gradient norm              0.001608449517 Eh/a0 ::
         :: HOMO-LUMO gap              0.502270092032 eV    ::
         :: SCC energy               -42.634957695313 Eh    ::
         :: -> dispersion             -0.020684606898 Eh    ::
         :: repulsion energy           0.524562130524 Eh    ::

    * Orbital Energies and Occupations

         #    Occupation            Energy/Eh            Energy/eV
      -------------------------------------------------------------
         1        2.0000           -0.8815810             -23.9890
       ...           ...                  ...                  ...
        25        2.0000           -0.6492366             -17.6666
        26        2.0000           -0.6397936             -17.4097
        27        2.0000           -0.6317201             -17.1900
        28        2.0000           -0.6295372             -17.1306
        29        2.0000           -0.6248275             -17.0024
        30        2.0000           -0.6191134             -16.8469
        31        1.9998           -0.6040705             -16.4376
        32        1.9997           -0.6007042             -16.3460
        33        1.9965           -0.5807158             -15.8021
        34        1.9668           -0.5628992             -15.3173
        35        1.9566           -0.5607422             -15.2586
        36        1.9030           -0.5541509             -15.0792
        37        1.6078           -0.5417526             -14.7418 (HOMO)
        38        0.5697           -0.5232945             -14.2396 (LUMO)
        39        0.0000           -0.4039913             -10.9932
        40                         -0.3859054             -10.5010
        41                         -0.3561397              -9.6911
        42                         -0.2752006              -7.4886
        43                         -0.1948680              -5.3026
        44                         -0.1518561              -4.1322
        45                         -0.1262209              -3.4346
        46                         -0.0655835              -1.7846
        47                         -0.0421987              -1.1483
        48                         -0.0331494              -0.9020
       ...                                ...                  ...
        67                          0.5598710              15.2349
      -------------------------------------------------------------
                  HL-Gap            0.0184581 Eh            0.5023 eV

     #   Z          covCN         q      C6AA      α(0)
     1   6 C        2.778    -0.053    29.308     8.867
     2   7 N        1.903    -0.165    25.360     7.466
     3   6 C        3.162     0.108    25.306     8.223
     4   7 N        2.787    -0.082    22.836     7.097
     5   6 C        3.055     0.116    25.389     8.263
     6   6 C        3.207     0.028    26.769     8.425
     7   6 C        2.763     0.276    22.330     7.739
     8   8 O        0.858    -0.359    20.878     6.126
     9   7 N        2.744    -0.083    22.853     7.100
    10   6 C        3.711    -0.060    21.798     6.672
    11   6 C        2.731     0.319    21.574     7.604
    12   8 O        0.860    -0.351    20.716     6.102
    13   7 N        2.737    -0.041    22.032     6.971
    14   6 C        3.697    -0.070    22.020     6.712
    15   1 H        0.926     0.150     1.391     1.844
    16   1 H        0.926     0.150     1.393     1.846
    17   1 H        0.926     0.176     1.226     1.732
    18   1 H        0.926     0.109     1.707     2.043
    19   1 H        0.925     0.107     1.718     2.050
    20   1 H        0.925     0.101     1.776     2.084
    21   1 H        0.925     0.098     1.802     2.099
    22   1 H        0.924     0.091     1.868     2.137
    23   1 H        0.924     0.091     1.868     2.137
    24   1 H        0.925     0.128     1.554     1.949
    25   1 H        0.860     0.214     1.036     1.595

Wiberg/Mayer (AO) data.
largest (>0.10) Wiberg bond orders for each atom

     #   Z sym  total        # sym  WBO       # sym  WBO       # sym  WBO
 ---------------------------------------------------------------------------
     1   6 C    2.916 --    16 H    0.976    15 H    0.976    17 H    0.957
     2   7 N    3.013 --     3 C    1.546     6 C    1.291
     3   6 C    3.826 --     2 N    1.546     4 N    1.215    18 H    0.956
     4   7 N    3.581 --     5 C    1.221     3 C    1.215    25 H    0.924
     5   6 C    3.888 --     6 C    1.257    13 N    1.231     4 N    1.221
     6   6 C    3.819 --     2 N    1.291     5 C    1.257     7 C    1.064
     7   6 C    3.950 --     8 O    1.680     9 N    1.105     6 C    1.064
     8   8 O    1.987 --     7 C    1.680     9 N    0.136
     9   7 N    3.544 --    11 C    1.131     7 C    1.105    10 C    0.970
                             8 O    0.136    12 O    0.131
    10   6 C    3.909 --     9 N    0.970    19 H    0.970    20 H    0.963
                            21 H    0.961
    11   6 C    3.954 --    12 O    1.700     9 N    1.131    13 N    1.032
    12   8 O    2.016 --    11 C    1.700     9 N    0.131    13 N    0.103
    13   7 N    3.484 --     5 C    1.231    11 C    1.032    14 C    0.980
                            12 O    0.103
    14   6 C    3.914 --    13 N    0.980    24 H    0.964    23 H    0.961
                            22 H    0.961
    15   1 H    0.977 --     1 C    0.976
    16   1 H    0.978 --     1 C    0.976
    17   1 H    0.969 --     1 C    0.957
    18   1 H    0.987 --     3 C    0.956
    19   1 H    0.988 --    10 C    0.970
    20   1 H    0.981 --    10 C    0.963
    21   1 H    0.980 --    10 C    0.961
    22   1 H    0.978 --    14 C    0.961
    23   1 H    0.978 --    14 C    0.961
    24   1 H    0.983 --    14 C    0.964
    25   1 H    0.953 --     4 N    0.924
 ---------------------------------------------------------------------------

molecular dipole:
                 x           y           z       tot (Debye)
 q only:        2.152      -0.622      -0.018
   full:        1.953      -1.322      -0.036       5.995

           -------------------------------------------------
          | TOTAL ENERGY              -42.110336673729 Eh   |
          | GRADIENT NORM               0.001608449517 Eh/α |
          | HOMO-LUMO GAP               0.502270092032 eV   |
           -------------------------------------------------

 * finished run on 2024/06/05 at 19:57:54.411
