   * xtb version 6.6.1 (8d0f1dd) compiled by 'conda@1efc2f54142f' on 2023-08-01
          program call               : xtb struc.xyz --opt loose --input .xc1 --gfn2

   ID    Z sym.   atoms
    1    7 N      1, 17
    2    6 C      2-6, 8, 9, 11-16, 18-23, 25, 26, 28-33
    3    8 O      7, 10, 24, 27
    4    1 H      34-72
constraining bond 10 41 to    3.6333300 Å, actual value:    2.7232089 Å

          :  Hamiltonian                  GFN2-xTB          :
 * total energy  :   -99.5520302 Eh     change       -0.4035485E-08 Eh
 * total energy  :   -99.7982375 Eh     change       -0.2462073E+00 Eh
 * total energy  :  -100.1001823 Eh     change       -0.3019449E+00 Eh
 * total energy  :  -100.4793202 Eh     change       -0.3791379E+00 Eh
 * total energy  :   -98.0839968 Eh     change        0.2395323E+01 Eh
 * total energy  :  -100.5030398 Eh     change       -0.2419043E+01 Eh
 * total energy  :  -100.5583934 Eh     change       -0.5535367E-01 Eh
 * total energy  :  -100.5902710 Eh     change       -0.3187753E-01 Eh
 * total energy  :  -100.6086226 Eh     change       -0.1835162E-01 Eh
 * total energy  :  -100.6267705 Eh     change       -0.1814787E-01 Eh
 * total energy  :  -100.6830460 Eh     change       -0.4061818E-04 Eh
 * total energy  :  -100.6830986 Eh     change       -0.5262212E-04 Eh
 * total energy  :  -100.6831365 Eh     change       -0.3788703E-04 Eh
 * total energy  :  -100.6831794 Eh     change       -0.4286262E-04 Eh
 * total energy  :  -100.6832424 Eh     change       -0.6296932E-04 Eh
 * total energy  :  -100.6832946 Eh     change       -0.5219613E-04 Eh
 * total energy  :  -100.6833574 Eh     change       -0.6288052E-04 Eh
 * total energy  :  -100.6834091 Eh     change       -0.5166542E-04 Eh
 * total energy  :  -100.6834369 Eh     change       -0.2782702E-04 Eh
   *** GEOMETRY OPTIMIZATION CONVERGED AFTER 76 ITERATIONS ***

 final structure:
================
72
 xtb: 6.6.1 (8d0f1dd)
N           -1.91026360855069        3.07689367378239        2.15951326783675
C           -1.81639066332598        2.29820537818495        1.18484863759191
C           -2.96134447357414        1.91816942783213        0.28527057169404
C           -3.26697969925614        0.43591928666364        0.44446023550785
C           -4.16146723076115       -0.17606061753450       -0.43928285273701
C           -4.49890420476809       -1.51472724101427       -0.30847531947478
O           -5.36506514711250       -2.21010548997898       -1.09922101476305
C           -5.97761229419785       -1.53979024982560       -2.17990541002127
C           -3.87811067117305       -2.19655552939103        0.74223302422682
O           -4.18531489451575       -3.65694040028470        0.92330222883150
C           -5.55526800461682       -3.93212377595861        1.31832818301237
C           -2.99049687194484       -1.66474444941733        1.63319878585973
C           -2.69160316983370       -0.31615859591918        1.46338720238547
C           -2.47924659257106        2.21492075946237       -1.15906699622139
C           -1.47931676443957        1.19425858851242       -1.73549780039235
C           -0.13533638574744        1.24957040821298       -1.11588609212941
N            0.56192347565130        0.19213478937765       -0.69482856665116
C            1.94613314839580        0.32901755779438       -0.31215197340840
C            2.89990690480737       -0.13035233412516       -1.43216492452556
C            4.32607267354144        0.00201201958289       -0.97720269454198
C            5.02050268132369        1.18527000995001       -1.15600928801429
C            6.32695650920701        1.31550416390059       -0.70850461826958
C            6.96258777800937        0.26302699849318       -0.06822924404615
O            8.22702307532289        0.27819844687527        0.40438852750220
C            9.00320326600345        1.44132301810613        0.23719323917681
C            6.25704789597181       -0.95395473604578        0.12294499636209
O            6.95089258697257       -1.92987095943431        0.75146753481842
C            6.34015778446527       -3.18016079098058        0.95495209956914
C            4.95291451032277       -1.06103446095349       -0.32980405117881
C            0.00352199354866       -1.13766830500991       -0.68774291097436
C           -4.26805223671274        2.71264731141624        0.57888739194323
C           -4.81322672686032        2.39885281225923        1.97072439885159
C           -4.10171880764645        4.22170160257713        0.42063332448061
H           -4.61040617422436        0.40539466155770       -1.22683894683850
H           -6.60752596406429       -0.71708026254919       -1.83135604341191
H           -6.59641276198156       -2.28623964147082       -2.67339340990107
H           -5.23417891149259       -1.16183170141476       -2.88615059151217
H           -5.81926612877664       -3.37588853644980        2.21907891163967
H           -6.20143097433263       -3.63738249276402        0.49373858870939
H           -5.64223255751194       -5.00295407841515        1.49416239345241
H           -3.71356659221250       -3.90107278092754        1.43162232931863
H           -2.01969698823623        0.15959799674449        2.16305720225460
H           -3.34626101967968        2.24209039352655       -1.81943394883010
H           -2.02229308981609        3.20508723076657       -1.17603870868751
H           -1.90332529746126        0.19375196720978       -1.67248775064153
H           -1.36399420098274        1.44344512451612       -2.79900008736538
H           -0.86630613005753        1.84419466136610        0.84769824932616
H            0.38527327737666        2.19468978242500       -1.12979942850249
H            2.12887322401725       -0.26800183717349        0.58580803757082
H            2.15579413462683        1.37373976056729       -0.07488357265858
H            2.72819403188093        0.48711940322276       -2.31537690413609
H            2.68432934404230       -1.16831165507676       -1.68965700879327
H            4.55125329740109        2.01734083627760       -1.65875249361192
H            6.84442572384538        2.24694285592241       -0.86928135389891
H            8.55868937481531        2.29829063812744        0.75286935814008
H            9.14094534309198        1.68295328274590       -0.82123564567663
H            9.96941679255757        1.21410019731553        0.68361005033876
H            7.09026377537242       -3.79507833245746        1.44858872677335
H            5.45966013405338       -3.09778385609994        1.60101954913337
H            6.05613024167400       -3.64856482925309        0.00704711862549
H            4.40997688674179       -1.98372199771660       -0.19523004284167
H           -0.20223677591952       -1.48776155266523       -1.70204823218657
H           -0.92419979628340       -1.15729934016279       -0.10913615898881
H            0.71138214222739       -1.81899180117840       -0.22318548530363
H           -5.00903105153170        2.37657728079869       -0.15654555217276
H           -4.12201459009040        2.75489084216628        2.72722606885252
H           -4.96043115130718        1.32945403499153        2.10387145889898
H           -5.76937478072146        2.89697638542799        2.10925632437960
H           -3.34380943609169        4.58992854319003        1.10462004132335
H           -3.83229673291556        4.49568491407897       -0.59603489047195
H           -5.04279738363174        4.71054356850783        0.65932524054484
H           -1.05812947336272        3.28193153969971        2.67277155743210

          :  Hamiltonian                  GFN2-xTB          :
         :: total energy            -100.683436939289 Eh    ::
         :: gradient norm              0.002201226615 Eh/a0 ::
         :: HOMO-LUMO gap              1.167105585992 eV    ::
         :: SCC energy              -100.665607230722 Eh    ::
         :: -> dispersion             -0.076122122727 Eh    ::
         :: repulsion energy           1.480616194029 Eh    ::

    * Orbital Energies and Occupations

         #    Occupation            Energy/Eh            Energy/eV
      -------------------------------------------------------------
         1        2.0000           -0.9029635             -24.5709
       ...           ...                  ...                  ...
        78        1.9992           -0.5175056             -14.0820
        79        1.9992           -0.5164687             -14.0538
        80        1.9990           -0.5131549             -13.9637
        81        1.9986           -0.5080793             -13.8255
        82        1.9982           -0.5041882             -13.7197
        83        1.9980           -0.5022747             -13.6676
        84        1.9978           -0.5009465             -13.6314
        85        1.9948           -0.4870151             -13.2524
        86        1.9865           -0.4718259             -12.8390
        87        1.9861           -0.4713459             -12.8260
        88        1.9615           -0.4550488             -12.3825
        89        1.9031           -0.4399532             -11.9717
        90        1.6512           -0.4174285             -11.3588 (HOMO)
        91        0.4795           -0.3745381             -10.1917 (LUMO)
        92        0.0213           -0.3210697              -8.7368
        93        0.0159           -0.3164162              -8.6101
        94        0.0058           -0.3003396              -8.1727
        95        0.0043           -0.2956151              -8.0441
        96        0.0036           -0.2927983              -7.9674
        97        0.0000           -0.2075981              -5.6490
        98        0.0000           -0.1785682              -4.8591
        99        0.0000           -0.1701275              -4.6294
       100                         -0.1170656              -3.1855
       101                         -0.1013145              -2.7569
       ...                                ...                  ...
       171                          0.7082407              19.2722
      -------------------------------------------------------------
                  HL-Gap            0.0428903 Eh            1.1671 eV

     #   Z          covCN         q      C6AA      α(0)
     1   7 N        1.774    -0.282    28.128     7.854
     2   6 C        2.827     0.100    25.765     8.318
     3   6 C        3.908     0.006    20.416     6.422
     4   6 C        2.972     0.005    27.904     8.665
     5   6 C        2.933    -0.083    30.088     8.996
     6   6 C        2.852     0.124    25.277     8.240
     7   8 O        1.704    -0.280    18.653     5.831
     8   6 C        3.643     0.033    20.361     6.487
     9   6 C        2.866     0.046    26.960     8.511
    10   8 O        2.488    -0.134    16.291     5.451
    11   6 C        3.625    -0.021    21.394     6.665
    12   6 C        1.979    -0.218    37.455     9.883
    13   6 C        2.939    -0.041    29.029     8.836
    14   6 C        3.812    -0.061    21.671     6.626
    15   6 C        3.801    -0.065    21.748     6.640
    16   6 C        2.841    -0.004    28.107     8.688
    17   7 N        2.729     0.001    21.255     6.847
    18   6 C        3.755    -0.014    20.880     6.516
    19   6 C        3.808    -0.070    21.825     6.650
    20   6 C        2.969    -0.003    28.106     8.696
    21   6 C        2.922    -0.051    29.266     8.871
    22   6 C        2.915    -0.069    29.726     8.940
    23   6 C        2.865     0.130    25.150     8.220
    24   8 O        1.706    -0.232    17.843     5.703
    25   6 C        3.645     0.028    20.435     6.497
    26   6 C        2.863     0.130    25.161     8.222
    27   8 O        1.706    -0.234    17.883     5.709
    28   6 C        3.645     0.031    20.394     6.491
    29   6 C        2.920    -0.081    30.026     8.986
    30   6 C        3.699    -0.067    21.963     6.703
    31   6 C        3.853    -0.006    20.646     6.463
    32   6 C        3.756    -0.116    22.774     6.804
    33   6 C        3.755    -0.117    22.803     6.809
    34   1 H        0.926     0.043     2.408     2.427
    35   1 H        0.924     0.049     2.330     2.387
    36   1 H        0.925     0.069     2.099     2.266
    37   1 H        0.924     0.046     2.371     2.408
    38   1 H        0.924     0.097     1.811     2.104
    39   1 H        0.925     0.128     1.546     1.945
    40   1 H        0.925     0.101     1.779     2.086
    41   1 H        0.811     0.361     0.563     1.178
    42   1 H        0.926     0.031     2.574     2.509
    43   1 H        0.925     0.053     2.288     2.366
    44   1 H        0.924     0.050     2.319     2.381
    45   1 H        0.925     0.058     2.223     2.332
    46   1 H        0.923     0.069     2.099     2.265
    47   1 H        0.922     0.003     3.003     2.710
    48   1 H        0.926     0.061     2.183     2.311
    49   1 H        0.924     0.064     2.154     2.295
    50   1 H        0.924     0.065     2.145     2.290
    51   1 H        0.924     0.052     2.296     2.370
    52   1 H        0.924     0.051     2.309     2.376
    53   1 H        0.926     0.041     2.433     2.439
    54   1 H        0.926     0.054     2.273     2.358
    55   1 H        0.924     0.050     2.321     2.383
    56   1 H        0.924     0.051     2.304     2.374
    57   1 H        0.925     0.078     2.005     2.214
    58   1 H        0.925     0.077     2.012     2.218
    59   1 H        0.924     0.044     2.397     2.421
    60   1 H        0.924     0.047     2.353     2.399
    61   1 H        0.926     0.042     2.428     2.437
    62   1 H        0.924     0.066     2.128     2.281
    63   1 H        0.924     0.078     1.996     2.209
    64   1 H        0.925     0.075     2.036     2.231
    65   1 H        0.924     0.029     2.601     2.522
    66   1 H        0.925     0.068     2.102     2.267
    67   1 H        0.925     0.029     2.597     2.520
    68   1 H        0.925     0.044     2.391     2.418
    69   1 H        0.925     0.060     2.194     2.317
    70   1 H        0.925     0.032     2.557     2.501
    71   1 H        0.925     0.049     2.328     2.386
    72   1 H        0.860     0.151     1.395     1.850

Wiberg/Mayer (AO) data.
largest (>0.10) Wiberg bond orders for each atom

     #   Z sym  total        # sym  WBO       # sym  WBO       # sym  WBO
 ---------------------------------------------------------------------------
     1   7 N    3.027 --     2 C    1.946    72 H    0.945
     2   6 C    3.925 --     1 N    1.946     3 C    0.995    47 H    0.908
     3   6 C    3.975 --     2 C    0.995     4 C    0.968    14 C    0.957
                            31 C    0.945
     4   6 C    3.941 --    13 C    1.418     5 C    1.374     3 C    0.968
     5   6 C    3.967 --     6 C    1.388     4 C    1.374    34 H    0.957
                            12 C    0.102
     6   6 C    3.904 --     5 C    1.388     9 C    1.297     7 O    1.054
     7   8 O    2.217 --     6 C    1.054     8 C    0.975
     8   6 C    3.937 --    36 H    0.978    37 H    0.977    35 H    0.977
                             7 O    0.975
     9   6 C    3.719 --    12 C    1.451     6 C    1.297    10 O    0.749
    10   8 O    2.579 --    11 C    0.900    41 H    0.856     9 C    0.749
    11   6 C    3.856 --    38 H    0.978    40 H    0.975    39 H    0.970
                            10 O    0.900
    12   6 C    3.014 --     9 C    1.451    13 C    1.363     5 C    0.102
    13   6 C    3.951 --     4 C    1.418    12 C    1.363    42 H    0.957
    14   6 C    3.971 --    15 C    0.980    44 H    0.973    43 H    0.969
                             3 C    0.957
    15   6 C    3.989 --    16 C    1.056    14 C    0.980    45 H    0.964
                            46 H    0.934
    16   6 C    3.533 --    17 N    1.365    15 C    1.056    48 H    0.960
    17   7 N    3.439 --    16 C    1.365    30 C    1.000    18 C    0.991
    18   6 C    3.958 --    17 N    0.991    50 H    0.968    19 C    0.967
                            49 H    0.964
    19   6 C    3.976 --    20 C    1.008    51 H    0.973    52 H    0.972
                            18 C    0.967
    20   6 C    3.956 --    21 C    1.420    29 C    1.375    19 C    1.008
    21   6 C    3.962 --    20 C    1.420    22 C    1.411    53 H    0.969
    22   6 C    3.967 --    21 C    1.411    23 C    1.392    54 H    0.964
    23   6 C    3.908 --    22 C    1.392    26 C    1.231    24 O    1.097
    24   8 O    2.253 --    23 C    1.097    25 C    0.979
    25   6 C    3.934 --    24 O    0.979    57 H    0.978    55 H    0.974
                            56 H    0.974
    26   6 C    3.911 --    29 C    1.403    23 C    1.231    27 O    1.090
    27   8 O    2.252 --    26 C    1.090    28 C    0.982
    28   6 C    3.938 --    27 O    0.982    58 H    0.977    59 H    0.975
                            60 H    0.974
    29   6 C    3.965 --    26 C    1.403    20 C    1.375    61 H    0.963
    30   6 C    3.961 --    17 N    1.000    64 H    0.978    62 H    0.969
                            63 H    0.959
    31   6 C    3.981 --    33 C    1.009    32 C    1.009    65 H    0.963
                             3 C    0.945
    32   6 C    3.987 --    31 C    1.009    68 H    0.984    67 H    0.983
                            66 H    0.977
    33   6 C    3.987 --    31 C    1.009    70 H    0.984    71 H    0.982
                            69 H    0.978
    34   1 H    0.995 --     5 C    0.957
    35   1 H    0.997 --     8 C    0.977
    36   1 H    0.994 --     8 C    0.978
    37   1 H    0.997 --     8 C    0.977
    38   1 H    0.990 --    11 C    0.978
    39   1 H    0.983 --    11 C    0.970
    40   1 H    0.989 --    11 C    0.975
    41   1 H    0.869 --    10 O    0.856
    42   1 H    0.992 --    13 C    0.957
    43   1 H    0.996 --    14 C    0.969
    44   1 H    0.996 --    14 C    0.973
    45   1 H    0.996 --    15 C    0.964
    46   1 H    0.970 --    15 C    0.934
    47   1 H    0.991 --     2 C    0.908
    48   1 H    0.996 --    16 C    0.960
    49   1 H    0.991 --    18 C    0.964
    50   1 H    0.995 --    18 C    0.968
    51   1 H    0.996 --    19 C    0.973
    52   1 H    0.996 --    19 C    0.972
    53   1 H    0.998 --    21 C    0.969
    54   1 H    0.996 --    22 C    0.964
    55   1 H    0.994 --    25 C    0.974
    56   1 H    0.994 --    25 C    0.974
    57   1 H    0.993 --    25 C    0.978
    58   1 H    0.994 --    28 C    0.977
    59   1 H    0.995 --    28 C    0.975
    60   1 H    0.995 --    28 C    0.974
    61   1 H    0.997 --    29 C    0.963
    62   1 H    0.986 --    30 C    0.969
    63   1 H    0.986 --    30 C    0.959
    64   1 H    0.994 --    30 C    0.978
    65   1 H    0.996 --    31 C    0.963
    66   1 H    0.993 --    32 C    0.977
    67   1 H    0.998 --    32 C    0.983
    68   1 H    0.996 --    32 C    0.984
    69   1 H    0.995 --    33 C    0.978
    70   1 H    0.998 --    33 C    0.984
    71   1 H    0.995 --    33 C    0.982
    72   1 H    0.973 --     1 N    0.945
 ---------------------------------------------------------------------------

molecular dipole:
                 x           y           z       tot (Debye)
 q only:       -2.449      -2.703      -0.295
   full:       -2.346      -2.652      -0.826       9.242

           -------------------------------------------------
          | TOTAL ENERGY             -100.683436939289 Eh   |
          | GRADIENT NORM               0.002201226615 Eh/α |
          | HOMO-LUMO GAP               1.167105585992 eV   |
           -------------------------------------------------

 * finished run on 2024/04/06 at 11:13:21.702
