   * xtb version 6.6.1 (8d0f1dd) compiled by 'conda@1efc2f54142f' on 2023-08-01
          program call               : xtb xtbopt.xyz --opt crude --input .xc2 --gfn2

   ID    Z sym.   atoms
    1    7 N      1, 17
    2    6 C      2-6, 8, 9, 11-16, 18-23, 25, 26, 28-33
    3    8 O      7, 10, 24, 27
    4    1 H      34-72
########################################################################
[WARNING] Please study the warnings concerning your input carefully
-1- readin_getIntValue: could not parse ''
########################################################################

          :  Hamiltonian                  GFN2-xTB          :
 * total energy  :   -99.1837527 Eh     change       -0.2316369E-10 Eh
 * total energy  :   -99.2714898 Eh     change       -0.8773705E-01 Eh
 * total energy  :   -99.2722120 Eh     change       -0.7222727E-03 Eh
 * total energy  :   -99.2724586 Eh     change       -0.2465118E-03 Eh
   *** GEOMETRY OPTIMIZATION CONVERGED AFTER 4 ITERATIONS ***

 final structure:
================
72
 xtb: 6.6.1 (8d0f1dd)
N           -1.90929047016377        3.07196393650810        2.16024287511180
C           -1.81677585494414        2.29161449020989        1.18664348110613
C           -2.96148725682382        1.91444084870740        0.28604559768158
C           -3.27329289130416        0.43221841939507        0.43962025506159
C           -4.16872456508968       -0.16839444410487       -0.45072029330755
C           -4.51170796616552       -1.50682040718766       -0.32540347074995
O           -5.37703836362535       -2.20030991412830       -1.11806445884243
C           -5.98858365975016       -1.52762616927826       -2.19681594959786
C           -3.89721299054820       -2.19814040174427        0.72314656319903
O           -4.20784694157692       -3.64743301171457        0.88043069492721
C           -5.55799556333110       -3.92379593240966        1.32087291681382
C           -3.00766256976582       -1.67899175946136        1.61938222589147
C           -2.70371881386854       -0.32914277585747        1.45592914708748
C           -2.47716777446683        2.21355501374601       -1.15738330911768
C           -1.47834763805735        1.19192985529076       -1.73337693418502
C           -0.13461403428889        1.24841520826813       -1.11366922410615
N            0.56288320503617        0.19143835873996       -0.69254847059248
C            1.94709135516342        0.32930473577364       -0.31052187670637
C            2.89978515968819       -0.12985789288916       -1.43142948297402
C            4.32614286704741        0.00267378332918       -0.97746775647059
C            5.02029286047813        1.18597295103557       -1.15666245468249
C            6.32678353723212        1.31659642231832       -0.70923486540081
C            6.96239598667190        0.26429773363517       -0.06876110274916
O            8.22672791969386        0.27933739611087        0.40399979716345
C            9.00311526325323        1.44230888656596        0.23677411691011
C            6.25707301203494       -0.95286406455784        0.12268823185371
O            6.95123091523044       -1.92823792005347        0.75161957027104
C            6.34105180403152       -3.17881570013459        0.95499706330618
C            4.95303086424535       -1.06033349962675       -0.32997392703736
C            0.00483509833733       -1.13850249046562       -0.68365869311439
C           -4.26687824877317        2.71111265551594        0.57968131519057
C           -4.81251127113116        2.39714109799848        1.97118086297663
C           -4.09953518819112        4.22009001626640        0.42174655315454
H           -4.61111953753044        0.41856187236977       -1.23817809779403
H           -6.61534431924796       -0.70302190104663       -1.84638730003824
H           -6.61070053970440       -2.27184063773985       -2.69017300603362
H           -5.24449176436437       -1.15158954895069       -2.90407854553320
H           -5.80514697229566       -3.35522016141124        2.21838116874739
H           -6.22677809962010       -3.64309989185192        0.50733952067870
H           -5.63944564300161       -4.99208158266829        1.51084632873067
H           -3.57824060317030       -3.94561154678519        1.56766120648184
H           -2.02872257743268        0.14092081204530        2.15702271582619
H           -3.34335205682019        2.24357126670866       -1.81867999644236
H           -2.01855817720996        3.20310052340844       -1.17253727561125
H           -1.90256818551046        0.19167169203913       -1.66805335634688
H           -1.36311350012352        1.43876402889309       -2.79734545478701
H           -0.86700688828907        1.83651943307270        0.84956556144190
H            0.38565207479808        2.19371067244332       -1.12802988374241
H            2.13097717900421       -0.26705194381574        0.58761346533560
H            2.15636400162652        1.37423840896280       -0.07386106854698
H            2.72705356808279        0.48775235935673       -2.31434801757443
H            2.68392723952874       -1.16777660213083       -1.68882977590817
H            4.55076161763161        2.01783060531567       -1.65951538589978
H            6.84402198401713        2.24812304824427       -0.87026159642364
H            8.55894173945055        2.29927283651006        0.75275936194917
H            9.14050367506615        1.68406432423466       -0.82165123078999
H            9.96937721920868        1.21465610853600        0.68283751895517
H            7.09111973498326       -3.79310334145058        1.44950069162522
H            5.45994134460566       -3.09665961726718        1.60027753559434
H            6.05805553765532       -3.64769818128715        0.00698852597390
H            4.41000705467510       -1.98298489382658       -0.19545040854865
H           -0.20161472922887       -1.48963754785129       -1.69740397527113
H           -0.92269579833945       -1.15794377696209       -0.10452574896934
H            0.71339927278098       -1.81908964770397       -0.21902332726672
H           -5.00808726783695        2.37619138934836       -0.15589726599400
H           -4.12072821888333        2.75143039523999        2.72801048899324
H           -4.96112661985836        1.32778420757854        2.10322110062374
H           -5.76797886956633        2.89648305223841        2.11024674966163
H           -3.34252063699852        4.58816787638515        1.10671628926663
H           -3.82880807283820        4.49402055544269       -0.59456670922227
H           -5.04084222809554        4.70922352040496        0.65910313720414
H           -1.05664412645280        3.27734593065701        2.67266190416605

          :  Hamiltonian                  GFN2-xTB          :
         :: total energy             -99.272458554409 Eh    ::
         :: gradient norm              0.007403692979 Eh/a0 ::
         :: HOMO-LUMO gap              1.181860303067 eV    ::
         :: SCC energy              -100.640528071558 Eh    ::
         :: -> dispersion             -0.076122121886 Eh    ::
         :: repulsion energy           1.366830995466 Eh    ::

    * Orbital Energies and Occupations

         #    Occupation            Energy/Eh            Energy/eV
      -------------------------------------------------------------
         1        2.0000           -0.8896635             -24.2090
       ...           ...                  ...                  ...
        78        1.9992           -0.5173897             -14.0789
        79        1.9992           -0.5165478             -14.0560
        80        1.9990           -0.5133036             -13.9677
        81        1.9985           -0.5074031             -13.8071
        82        1.9982           -0.5043672             -13.7245
        83        1.9979           -0.5019471             -13.6587
        84        1.9978           -0.5006877             -13.6244
        85        1.9942           -0.4855576             -13.2127
        86        1.9865           -0.4720066             -12.8440
        87        1.9846           -0.4699507             -12.7880
        88        1.9609           -0.4550062             -12.3813
        89        1.9029           -0.4401302             -11.9766
        90        1.6592           -0.4180851             -11.3767 (HOMO)
        91        0.4773           -0.3746526             -10.1948 (LUMO)
        92        0.0210           -0.3210709              -8.7368
        93        0.0142           -0.3147822              -8.5657
        94        0.0054           -0.2993656              -8.1462
        95        0.0043           -0.2957889              -8.0488
        96        0.0036           -0.2929764              -7.9723
        97        0.0000           -0.2066894              -5.6243
        98        0.0000           -0.1777044              -4.8356
        99        0.0000           -0.1703015              -4.6341
       100                         -0.1170926              -3.1863
       101                         -0.0941994              -2.5633
       ...                                ...                  ...
       171                          0.5944540              16.1759
      -------------------------------------------------------------
                  HL-Gap            0.0434326 Eh            1.1819 eV

     #   Z          covCN         q      C6AA      α(0)
     1   7 N        1.774    -0.282    28.123     7.853
     2   6 C        2.827     0.101    25.763     8.317
     3   6 C        3.907     0.006    20.415     6.422
     4   6 C        2.971     0.005    27.919     8.667
     5   6 C        2.932    -0.084    30.095     8.997
     6   6 C        2.853     0.125    25.250     8.236
     7   8 O        1.704    -0.279    18.639     5.829
     8   6 C        3.643     0.034    20.343     6.484
     9   6 C        2.869     0.050    26.879     8.499
    10   8 O        2.486    -0.129    16.216     5.439
    11   6 C        3.626    -0.016    21.294     6.648
    12   6 C        1.978    -0.223    37.637     9.907
    13   6 C        2.939    -0.042    29.031     8.837
    14   6 C        3.812    -0.061    21.667     6.626
    15   6 C        3.802    -0.065    21.748     6.639
    16   6 C        2.841    -0.003    28.098     8.687
    17   7 N        2.729     0.001    21.250     6.846
    18   6 C        3.755    -0.014    20.880     6.515
    19   6 C        3.808    -0.070    21.825     6.650
    20   6 C        2.969    -0.003    28.106     8.696
    21   6 C        2.922    -0.051    29.265     8.871
    22   6 C        2.915    -0.069    29.725     8.940
    23   6 C        2.865     0.130    25.149     8.220
    24   8 O        1.706    -0.232    17.842     5.703
    25   6 C        3.645     0.028    20.436     6.497
    26   6 C        2.863     0.130    25.161     8.222
    27   8 O        1.706    -0.234    17.882     5.709
    28   6 C        3.645     0.031    20.394     6.491
    29   6 C        2.920    -0.081    30.027     8.986
    30   6 C        3.699    -0.068    21.966     6.703
    31   6 C        3.853    -0.006    20.646     6.463
    32   6 C        3.756    -0.116    22.770     6.804
    33   6 C        3.755    -0.117    22.801     6.809
    34   1 H        0.926     0.042     2.419     2.432
    35   1 H        0.924     0.048     2.340     2.392
    36   1 H        0.925     0.068     2.106     2.270
    37   1 H        0.924     0.045     2.383     2.414
    38   1 H        0.924     0.093     1.852     2.128
    39   1 H        0.925     0.125     1.573     1.961
    40   1 H        0.925     0.097     1.813     2.106
    41   1 H        0.803     0.365     0.554     1.170
    42   1 H        0.926     0.029     2.599     2.521
    43   1 H        0.925     0.053     2.287     2.365
    44   1 H        0.924     0.050     2.322     2.383
    45   1 H        0.925     0.058     2.219     2.330
    46   1 H        0.923     0.069     2.098     2.265
    47   1 H        0.922     0.003     3.005     2.711
    48   1 H        0.926     0.061     2.182     2.310
    49   1 H        0.924     0.064     2.155     2.296
    50   1 H        0.924     0.065     2.145     2.290
    51   1 H        0.924     0.052     2.296     2.370
    52   1 H        0.924     0.051     2.309     2.376
    53   1 H        0.926     0.041     2.432     2.439
    54   1 H        0.926     0.054     2.272     2.357
    55   1 H        0.924     0.050     2.321     2.382
    56   1 H        0.924     0.051     2.303     2.373
    57   1 H        0.925     0.078     2.004     2.214
    58   1 H        0.925     0.077     2.012     2.218
    59   1 H        0.924     0.044     2.398     2.422
    60   1 H        0.924     0.047     2.353     2.399
    61   1 H        0.926     0.042     2.429     2.437
    62   1 H        0.924     0.066     2.126     2.280
    63   1 H        0.924     0.079     1.993     2.208
    64   1 H        0.925     0.074     2.038     2.232
    65   1 H        0.924     0.029     2.598     2.521
    66   1 H        0.925     0.068     2.104     2.268
    67   1 H        0.925     0.029     2.596     2.520
    68   1 H        0.925     0.044     2.393     2.419
    69   1 H        0.925     0.060     2.196     2.317
    70   1 H        0.925     0.032     2.558     2.501
    71   1 H        0.925     0.049     2.329     2.386
    72   1 H        0.860     0.151     1.396     1.851

Wiberg/Mayer (AO) data.
largest (>0.10) Wiberg bond orders for each atom

     #   Z sym  total        # sym  WBO       # sym  WBO       # sym  WBO
 ---------------------------------------------------------------------------
     1   7 N    3.028 --     2 C    1.946    72 H    0.945
     2   6 C    3.925 --     1 N    1.946     3 C    0.995    47 H    0.908
     3   6 C    3.975 --     2 C    0.995     4 C    0.967    14 C    0.956
                            31 C    0.945
     4   6 C    3.942 --    13 C    1.418     5 C    1.376     3 C    0.967
     5   6 C    3.967 --     6 C    1.387     4 C    1.376    34 H    0.957
                            12 C    0.102
     6   6 C    3.905 --     5 C    1.387     9 C    1.296     7 O    1.055
     7   8 O    2.217 --     6 C    1.055     8 C    0.976
     8   6 C    3.938 --    36 H    0.979    37 H    0.977    35 H    0.977
                             7 O    0.976
     9   6 C    3.731 --    12 C    1.451     6 C    1.296    10 O    0.766
    10   8 O    2.582 --    11 C    0.907    41 H    0.834     9 C    0.766
    11   6 C    3.865 --    38 H    0.979    40 H    0.976    39 H    0.968
                            10 O    0.907
    12   6 C    3.024 --     9 C    1.451    13 C    1.363     5 C    0.102
    13   6 C    3.951 --     4 C    1.418    12 C    1.363    42 H    0.957
    14   6 C    3.971 --    15 C    0.981    44 H    0.973    43 H    0.969
                             3 C    0.956
    15   6 C    3.989 --    16 C    1.057    14 C    0.981    45 H    0.964
                            46 H    0.934
    16   6 C    3.535 --    17 N    1.366    15 C    1.057    48 H    0.959
    17   7 N    3.440 --    16 C    1.366    30 C    1.000    18 C    0.991
    18   6 C    3.958 --    17 N    0.991    50 H    0.968    19 C    0.967
                            49 H    0.964
    19   6 C    3.976 --    20 C    1.008    51 H    0.973    52 H    0.972
                            18 C    0.967
    20   6 C    3.956 --    21 C    1.420    29 C    1.375    19 C    1.008
    21   6 C    3.962 --    20 C    1.420    22 C    1.411    53 H    0.969
    22   6 C    3.967 --    21 C    1.411    23 C    1.392    54 H    0.964
    23   6 C    3.908 --    22 C    1.392    26 C    1.231    24 O    1.097
    24   8 O    2.253 --    23 C    1.097    25 C    0.979
    25   6 C    3.934 --    24 O    0.979    57 H    0.978    55 H    0.974
                            56 H    0.974
    26   6 C    3.911 --    29 C    1.403    23 C    1.231    27 O    1.090
    27   8 O    2.252 --    26 C    1.090    28 C    0.982
    28   6 C    3.938 --    27 O    0.982    58 H    0.978    59 H    0.975
                            60 H    0.974
    29   6 C    3.965 --    26 C    1.403    20 C    1.375    61 H    0.963
    30   6 C    3.961 --    17 N    1.000    64 H    0.978    62 H    0.969
                            63 H    0.958
    31   6 C    3.981 --    33 C    1.009    32 C    1.009    65 H    0.963
                             3 C    0.945
    32   6 C    3.987 --    31 C    1.009    68 H    0.984    67 H    0.983
                            66 H    0.977
    33   6 C    3.987 --    31 C    1.009    70 H    0.984    71 H    0.982
                            69 H    0.978
    34   1 H    0.995 --     5 C    0.957
    35   1 H    0.997 --     8 C    0.977
    36   1 H    0.995 --     8 C    0.979
    37   1 H    0.997 --     8 C    0.977
    38   1 H    0.991 --    11 C    0.979
    39   1 H    0.984 --    11 C    0.968
    40   1 H    0.990 --    11 C    0.976
    41   1 H    0.864 --    10 O    0.834
    42   1 H    0.992 --    13 C    0.957
    43   1 H    0.996 --    14 C    0.969
    44   1 H    0.996 --    14 C    0.973
    45   1 H    0.996 --    15 C    0.964
    46   1 H    0.970 --    15 C    0.934
    47   1 H    0.991 --     2 C    0.908
    48   1 H    0.996 --    16 C    0.959
    49   1 H    0.991 --    18 C    0.964
    50   1 H    0.995 --    18 C    0.968
    51   1 H    0.996 --    19 C    0.973
    52   1 H    0.996 --    19 C    0.972
    53   1 H    0.998 --    21 C    0.969
    54   1 H    0.996 --    22 C    0.964
    55   1 H    0.994 --    25 C    0.974
    56   1 H    0.994 --    25 C    0.974
    57   1 H    0.993 --    25 C    0.978
    58   1 H    0.994 --    28 C    0.978
    59   1 H    0.995 --    28 C    0.975
    60   1 H    0.995 --    28 C    0.974
    61   1 H    0.997 --    29 C    0.963
    62   1 H    0.986 --    30 C    0.969
    63   1 H    0.986 --    30 C    0.958
    64   1 H    0.994 --    30 C    0.978
    65   1 H    0.996 --    31 C    0.963
    66   1 H    0.993 --    32 C    0.977
    67   1 H    0.998 --    32 C    0.983
    68   1 H    0.996 --    32 C    0.984
    69   1 H    0.995 --    33 C    0.978
    70   1 H    0.998 --    33 C    0.984
    71   1 H    0.995 --    33 C    0.982
    72   1 H    0.973 --     1 N    0.945
 ---------------------------------------------------------------------------

molecular dipole:
                 x           y           z       tot (Debye)
 q only:       -2.319      -2.747      -0.194
   full:       -2.260      -2.660      -0.747       9.073

           -------------------------------------------------
          | TOTAL ENERGY              -99.272458554409 Eh   |
          | GRADIENT NORM               0.007403692979 Eh/α |
          | HOMO-LUMO GAP               1.181860303067 eV   |
           -------------------------------------------------

 * finished run on 2024/04/06 at 11:13:22.667
