   * xtb version 6.6.1 (8d0f1dd) compiled by 'conda@1efc2f54142f' on 2023-08-01
          program call               : xtb struc.xyz --opt loose --input .xc1 --gfn2

   ID    Z sym.   atoms
    1    6 C      1, 3, 5-7, 10, 11, 14
    2    7 N      2, 4, 9, 13
    3    8 O      8, 12
    4    1 H      15-25
constraining bond 3 16 to    3.7133300 Å, actual value:    2.7548643 Å

          :  Hamiltonian                  GFN2-xTB          :
 * total energy  :   -43.9003409 Eh     change       -0.2401990E-09 Eh
 * total energy  :   -47.2586036 Eh     change       -0.3358263E+01 Eh
 * total energy  :   -52.4359457 Eh     change       -0.5177342E+01 Eh
 * total energy  :   -58.9832268 Eh     change       -0.6547281E+01 Eh
 * total energy  :   -38.1203648 Eh     change        0.2086286E+02 Eh
 * total energy  :   -56.6482496 Eh     change       -0.1852788E+02 Eh
 * total energy  :   -56.8556857 Eh     change       -0.2074360E+00 Eh
 * total energy  :   -58.5527244 Eh     change       -0.1697039E+01 Eh
 * total energy  :   -58.0462508 Eh     change        0.5064736E+00 Eh
 * total energy  :   -59.3235750 Eh     change       -0.1277324E+01 Eh
 * total energy  :   -59.7703284 Eh     change       -0.1579124E-03 Eh
 * total energy  :   -59.7704539 Eh     change       -0.1255750E-03 Eh
 * total energy  :   -59.7705828 Eh     change       -0.1288938E-03 Eh
 * total energy  :   -59.7706810 Eh     change       -0.9816794E-04 Eh
 * total energy  :   -59.7707647 Eh     change       -0.8370233E-04 Eh
 * total energy  :   -59.7708420 Eh     change       -0.7731391E-04 Eh
 * total energy  :   -59.7618109 Eh     change        0.9031063E-02 Eh
 * total energy  :   -59.7708850 Eh     change       -0.9074003E-02 Eh
 * total energy  :   -59.7708959 Eh     change       -0.1099213E-04 Eh
   *** GEOMETRY OPTIMIZATION CONVERGED AFTER 46 ITERATIONS ***

 final structure:
================
25
 xtb: 6.6.1 (8d0f1dd)
C            3.24093566308284        1.20429869020818       -0.08227144575015
N            2.20881839296956        0.28480961502509        0.15575027665178
C            3.49033219167672       -0.30768518592505       -0.18890989346054
N            1.17891794375210       -2.20173257004740       -0.03836566408287
C            0.36045006208568       -1.22153538187815       -0.00593779329532
C            0.90754061936873        0.11262629778119        0.06845644892425
C            0.05099886331920        1.29183931879656        0.10966976580165
O            0.49721110200346        2.42317450568622        0.15105112896051
N           -1.30691713071866        1.02796047066299        0.09438057093844
C           -2.22954840030432        2.14475685852394        0.14746596750393
C           -1.87845962245145       -0.23090602433848        0.00988056628464
O           -3.07771067721926       -0.36625786629168       -0.01582323127827
N           -1.02100060813376       -1.32028221309031       -0.04732047495095
C           -1.62840506135578       -2.63308681124532       -0.15799174862185
H            3.60163006397059        1.76610946107204        0.77126915382765
H            3.55247593124340       -0.52011448207883       -0.55092196859622
H            3.18304680336403        1.79291294055565       -0.99314037641896
H            3.95976404764406       -0.66163378269954        0.77087846064140
H           -1.65425501306079        3.05927090199777        0.28598886554192
H           -2.80576473073322        2.20135024872679       -0.77890900712316
H           -2.93197910840222        2.00556334114356        0.97157933762605
H           -1.40813810473838       -3.23399543517962        0.72725316988777
H           -1.26498421008898       -3.14532182796072       -1.05125646006882
H           -2.70777199727202       -2.50199598987061       -0.23590797879581
H            0.84324449409842       -3.15188653797438       -0.08569605224651

          :  Hamiltonian                  GFN2-xTB          :
         :: total energy             -59.770895946207 Eh    ::
         :: gradient norm              0.003866028672 Eh/a0 ::
         :: HOMO-LUMO gap              1.775908559583 eV    ::
         :: SCC energy               -42.716521453040 Eh    ::
         :: -> dispersion             -0.021786606291 Eh    ::
         :: repulsion energy           2.260760643418 Eh    ::

    * Orbital Energies and Occupations

         #    Occupation            Energy/Eh            Energy/eV
      -------------------------------------------------------------
         1        2.0000           -0.8946969             -24.3459
       ...           ...                  ...                  ...
        25        1.9937           -0.6560725             -17.8526
        26        1.9932           -0.6542685             -17.8036
        27        1.9922           -0.6510317             -17.7155
        28        1.9878           -0.6402605             -17.4224
        29        1.9837           -0.6334825             -17.2379
        30        1.9823           -0.6314914             -17.1838
        31        1.9751           -0.6232234             -16.9588
        32        1.9733           -0.6215551             -16.9134
        33        1.9343           -0.5997024             -16.3187
        34        1.8954           -0.5881756             -16.0051
        35        1.8885           -0.5865790             -15.9616
        36        1.8389           -0.5771979             -15.7064
        37        1.8045           -0.5721552             -15.5691 (HOMO)
        38        0.7431           -0.5068918             -13.7932 (LUMO)
        39        0.0142           -0.4020768             -10.9411
        40        0.0088           -0.3905604             -10.6277
        41        0.0002           -0.3012789              -8.1982
        42        0.0001           -0.2927443              -7.9660
        43        0.0000           -0.2139215              -5.8211
        44        0.0000           -0.1683660              -4.5815
        45        0.0000           -0.1405031              -3.8233
        46                         -0.0898157              -2.4440
        47                         -0.0622432              -1.6937
        48                         -0.0501608              -1.3649
       ...                                ...                  ...
        67                         10.7716199             293.1107
      -------------------------------------------------------------
                  HL-Gap            0.0652634 Eh            1.7759 eV

     #   Z          covCN         q      C6AA      α(0)
     1   6 C        3.736    -0.014    20.902     6.524
     2   7 N        2.745     0.042    20.513     6.727
     3   6 C        3.730    -0.063    21.808     6.666
     4   7 N        1.791    -0.275    27.966     7.833
     5   6 C        2.826     0.161    24.524     8.115
     6   6 C        2.900     0.028    27.382     8.580
     7   6 C        2.772     0.262    22.592     7.785
     8   8 O        0.858    -0.331    20.348     6.048
     9   7 N        2.741    -0.060    22.402     7.030
    10   6 C        3.706    -0.061    21.821     6.678
    11   6 C        2.718     0.320    21.563     7.601
    12   8 O        0.860    -0.334    20.411     6.057
    13   7 N        2.741    -0.062    22.440     7.036
    14   6 C        3.702    -0.064    21.886     6.689
    15   1 H        0.925     0.125     1.574     1.962
    16   1 H        0.935     0.189     1.157     1.682
    17   1 H        0.925     0.120     1.611     1.985
    18   1 H        0.919     0.120     1.617     1.989
    19   1 H        0.925     0.127     1.555     1.950
    20   1 H        0.924     0.119     1.621     1.991
    21   1 H        0.924     0.121     1.608     1.983
    22   1 H        0.924     0.101     1.776     2.084
    23   1 H        0.924     0.099     1.790     2.092
    24   1 H        0.925     0.129     1.541     1.941
    25   1 H        0.860     0.201     1.098     1.642

Wiberg/Mayer (AO) data.
largest (>0.10) Wiberg bond orders for each atom

     #   Z sym  total        # sym  WBO       # sym  WBO       # sym  WBO
 ---------------------------------------------------------------------------
     1   6 C    3.869 --     2 N    0.985     3 C    0.953    15 H    0.944
                            17 H    0.940
     2   7 N    3.359 --     6 C    1.371     1 C    0.985     3 C    0.937
     3   6 C    3.819 --     1 C    0.953    16 H    0.942     2 N    0.937
                            18 H    0.926
     4   7 N    2.728 --     5 C    1.625    25 H    0.918
     5   6 C    3.915 --     4 N    1.625    13 N    1.103     6 C    1.095
     6   6 C    3.703 --     2 N    1.371     5 C    1.095     7 C    1.047
     7   6 C    3.894 --     8 O    1.642     9 N    1.112     6 C    1.047
     8   8 O    1.878 --     7 C    1.642     9 N    0.118
     9   7 N    3.473 --     7 C    1.112    11 C    1.097    10 C    0.980
                             8 O    0.118    12 O    0.102
    10   6 C    3.848 --     9 N    0.980    19 H    0.951    21 H    0.939
                            20 H    0.937
    11   6 C    3.933 --    12 O    1.657    13 N    1.098     9 N    1.097
    12   8 O    1.944 --    11 C    1.657    13 N    0.107     9 N    0.102
    13   7 N    3.451 --     5 C    1.103    11 C    1.098    14 C    0.983
                            12 O    0.107
    14   6 C    3.880 --    13 N    0.983    23 H    0.952    24 H    0.951
                            22 H    0.950
    15   1 H    0.965 --     1 C    0.944
    16   1 H    0.958 --     3 C    0.942
    17   1 H    0.963 --     1 C    0.940
    18   1 H    0.958 --     3 C    0.926
    19   1 H    0.969 --    10 C    0.951
    20   1 H    0.953 --    10 C    0.937
    21   1 H    0.956 --    10 C    0.939
    22   1 H    0.966 --    14 C    0.950
    23   1 H    0.969 --    14 C    0.952
    24   1 H    0.972 --    14 C    0.951
    25   1 H    0.946 --     4 N    0.918
 ---------------------------------------------------------------------------

molecular dipole:
                 x           y           z       tot (Debye)
 q only:        1.656      -0.709      -0.068
   full:        1.373      -0.906      -0.044       4.184

           -------------------------------------------------
          | TOTAL ENERGY              -59.770895946207 Eh   |
          | GRADIENT NORM               0.003866028672 Eh/α |
          | HOMO-LUMO GAP               1.775908559583 eV   |
           -------------------------------------------------

 * finished run on 2024/06/05 at 19:58:57.194
