   * xtb version 6.6.1 (8d0f1dd) compiled by 'conda@1efc2f54142f' on 2023-08-01
          program call               : xtb xtbopt.xyz --opt crude --input .xc2 --gfn2

   ID    Z sym.   atoms
    1    6 C      1, 3, 5-7, 10, 11, 14
    2    7 N      2, 4, 9, 13
    3    8 O      8, 12
    4    1 H      15-25
########################################################################
[WARNING] Please study the warnings concerning your input carefully
-1- readin_getIntValue: could not parse ''
########################################################################

          :  Hamiltonian                  GFN2-xTB          :
 * total energy  :   -40.4556559 Eh     change       -0.1634248E-12 Eh
 * total energy  :   -42.1614311 Eh     change       -0.1705775E+01 Eh
 * total energy  :   -42.1804390 Eh     change       -0.1900792E-01 Eh
 * total energy  :   -42.1834962 Eh     change       -0.3057149E-02 Eh
 * total energy  :   -42.1848406 Eh     change       -0.1344362E-02 Eh
 * total energy  :   -42.1853321 Eh     change       -0.4915538E-03 Eh
 * total energy  :   -42.1858225 Eh     change       -0.4904358E-03 Eh
 * total energy  :   -42.1860876 Eh     change       -0.2650801E-03 Eh
 * total energy  :   -42.1863044 Eh     change       -0.2167415E-03 Eh
 * total energy  :   -42.1864304 Eh     change       -0.1260112E-03 Eh
   *** GEOMETRY OPTIMIZATION CONVERGED AFTER 10 ITERATIONS ***

 final structure:
================
25
 xtb: 6.6.1 (8d0f1dd)
C            3.25264728327164        1.23456079494613       -0.00321357301615
N            2.19944015236374        0.31354753714214        0.16065758849389
C            3.47270564118313       -0.24238967209124       -0.06248920653529
N            1.18596422540521       -2.18017525450367       -0.03891100316461
C            0.36167622506330       -1.20535667786076       -0.00347435076698
C            0.90145813966625        0.13329735921525        0.07415106070288
C            0.03647465808263        1.30689319891473        0.10937354910211
O            0.47498681749965        2.44115101292587        0.15581166798896
N           -1.31970344579927        1.03459908046525        0.08305871780740
C           -2.25015010918592        2.14591112478715        0.12310986151914
C           -1.88363136830176       -0.22834727232648        0.00852526267660
O           -3.08186465882600       -0.37150725547690       -0.01608588704728
N           -1.01880555306341       -1.31279427473470       -0.03984221627227
C           -1.61777055293234       -2.63121486764870       -0.13135475627499
H            3.56950529137325        1.77706538128115        0.88239981669843
H            3.63624096174410       -0.75656886925191       -0.99982186378517
H            3.24978773195687        1.84240105512501       -0.90259557161940
H            3.93318080390303       -0.73483042828105        0.78760052689249
H           -1.68093993308722        3.06552831234409        0.25178755537464
H           -2.82540104878296        2.18739822309576       -0.80449702888374
H           -2.95221539826958        2.01162689995526        0.94816251496125
H           -1.35764142803781       -3.23083176310052        0.74369792883692
H           -1.28366281948082       -3.13861345898837       -1.03879597249064
H           -2.70032630956201       -2.51001016463938       -0.16888445196923
H            0.85847620791631       -3.13310147969420       -0.08719855132846

          :  Hamiltonian                  GFN2-xTB          :
         :: total energy             -42.186430383759 Eh    ::
         :: gradient norm              0.004492767116 Eh/a0 ::
         :: HOMO-LUMO gap              1.806682395972 eV    ::
         :: SCC energy               -42.707837178380 Eh    ::
         :: -> dispersion             -0.021768756193 Eh    ::
         :: repulsion energy           0.521299142580 Eh    ::

    * Orbital Energies and Occupations

         #    Occupation            Energy/Eh            Energy/eV
      -------------------------------------------------------------
         1        2.0000           -0.8930686             -24.3016
       ...           ...                  ...                  ...
        25        1.9939           -0.6546589             -17.8142
        26        1.9930           -0.6515236             -17.7289
        27        1.9924           -0.6495171             -17.6743
        28        1.9883           -0.6391461             -17.3921
        29        1.9844           -0.6322065             -17.2032
        30        1.9826           -0.6296058             -17.1324
        31        1.9755           -0.6214302             -16.9100
        32        1.9741           -0.6201077             -16.8740
        33        1.9356           -0.5980026             -16.2725
        34        1.8982           -0.5866811             -15.9644
        35        1.8915           -0.5850734             -15.9207
        36        1.8435           -0.5757729             -15.6676
        37        1.8064           -0.5702347             -15.5169 (HOMO)
        38        0.7262           -0.5038404             -13.7102 (LUMO)
        39        0.0146           -0.4005346             -10.8991
        40        0.0089           -0.3887277             -10.5778
        41        0.0002           -0.2986210              -8.1259
        42        0.0001           -0.2670647              -7.2672
        43        0.0000           -0.2103870              -5.7249
        44        0.0000           -0.1615770              -4.3967
        45        0.0000           -0.1370107              -3.7283
        46                         -0.0881671              -2.3991
        47                         -0.0578812              -1.5750
        48                         -0.0485770              -1.3218
       ...                                ...                  ...
        67                          0.5379673              14.6388
      -------------------------------------------------------------
                  HL-Gap            0.0663944 Eh            1.8067 eV

     #   Z          covCN         q      C6AA      α(0)
     1   6 C        3.737    -0.011    20.862     6.518
     2   7 N        2.744     0.069    20.049     6.650
     3   6 C        3.738    -0.016    20.942     6.530
     4   7 N        1.790    -0.279    28.069     7.847
     5   6 C        2.826     0.160    24.526     8.115
     6   6 C        2.899     0.025    27.450     8.591
     7   6 C        2.772     0.262    22.589     7.784
     8   8 O        0.858    -0.333    20.385     6.053
     9   7 N        2.741    -0.061    22.421     7.033
    10   6 C        3.706    -0.061    21.818     6.677
    11   6 C        2.718     0.320    21.565     7.602
    12   8 O        0.860    -0.336    20.433     6.061
    13   7 N        2.741    -0.063    22.452     7.037
    14   6 C        3.702    -0.064    21.884     6.689
    15   1 H        0.925     0.127     1.555     1.950
    16   1 H        0.925     0.120     1.615     1.987
    17   1 H        0.925     0.122     1.599     1.977
    18   1 H        0.925     0.125     1.571     1.960
    19   1 H        0.925     0.127     1.561     1.954
    20   1 H        0.924     0.118     1.630     1.996
    21   1 H        0.924     0.120     1.615     1.987
    22   1 H        0.924     0.100     1.788     2.091
    23   1 H        0.924     0.099     1.796     2.096
    24   1 H        0.925     0.129     1.544     1.943
    25   1 H        0.860     0.201     1.098     1.642

Wiberg/Mayer (AO) data.
largest (>0.10) Wiberg bond orders for each atom

     #   Z sym  total        # sym  WBO       # sym  WBO       # sym  WBO
 ---------------------------------------------------------------------------
     1   6 C    3.865 --     2 N    0.968     3 C    0.966    17 H    0.940
                            15 H    0.938
     2   7 N    3.380 --     6 C    1.378     1 C    0.968     3 C    0.966
     3   6 C    3.864 --     2 N    0.966     1 C    0.966    16 H    0.941
                            18 H    0.939
     4   7 N    2.731 --     5 C    1.626    25 H    0.919
     5   6 C    3.914 --     4 N    1.626    13 N    1.105     6 C    1.091
     6   6 C    3.711 --     2 N    1.378     5 C    1.091     7 C    1.048
     7   6 C    3.893 --     8 O    1.641     9 N    1.112     6 C    1.048
     8   8 O    1.879 --     7 C    1.641     9 N    0.119
     9   7 N    3.475 --     7 C    1.112    11 C    1.097    10 C    0.980
                             8 O    0.119    12 O    0.102
    10   6 C    3.851 --     9 N    0.980    19 H    0.951    21 H    0.940
                            20 H    0.938
    11   6 C    3.933 --    12 O    1.658     9 N    1.097    13 N    1.097
    12   8 O    1.946 --    11 C    1.658    13 N    0.108     9 N    0.102
    13   7 N    3.453 --     5 C    1.105    11 C    1.097    14 C    0.982
                            12 O    0.108
    14   6 C    3.882 --    13 N    0.982    23 H    0.952    24 H    0.952
                            22 H    0.951
    15   1 H    0.962 --     1 C    0.938
    16   1 H    0.965 --     3 C    0.941
    17   1 H    0.963 --     1 C    0.940
    18   1 H    0.963 --     3 C    0.939
    19   1 H    0.969 --    10 C    0.951
    20   1 H    0.954 --    10 C    0.938
    21   1 H    0.956 --    10 C    0.940
    22   1 H    0.968 --    14 C    0.951
    23   1 H    0.969 --    14 C    0.952
    24   1 H    0.973 --    14 C    0.952
    25   1 H    0.947 --     4 N    0.919
 ---------------------------------------------------------------------------

molecular dipole:
                 x           y           z       tot (Debye)
 q only:        1.733      -0.688      -0.054
   full:        1.473      -0.924      -0.088       4.424

           -------------------------------------------------
          | TOTAL ENERGY              -42.186430383759 Eh   |
          | GRADIENT NORM               0.004492767116 Eh/α |
          | HOMO-LUMO GAP               1.806682395972 eV   |
           -------------------------------------------------

 * finished run on 2024/06/05 at 19:58:57.580
