   * xtb version 6.6.1 (8d0f1dd) compiled by 'conda@1efc2f54142f' on 2023-08-01
          program call               : xtb struc.xyz --opt loose --input .xc1 --gfn2

   ID    Z sym.   atoms
    1    7 N      1, 17
    2    6 C      2-6, 8, 9, 11-16, 18-23, 25, 26, 28-33
    3    8 O      7, 10, 24, 27
    4    1 H      34-72
constraining bond 1 31 to    5.9200000 Å, actual value:    2.9191974 Å

          :  Hamiltonian                  GFN2-xTB          :
 * total energy  :   -97.7962921 Eh     change       -0.4035485E-08 Eh
 * total energy  :   -98.2016492 Eh     change       -0.4053571E+00 Eh
 * total energy  :   -98.4841564 Eh     change       -0.2825072E+00 Eh
 * total energy  :   -98.6943232 Eh     change       -0.2101667E+00 Eh
 * total energy  :   -98.8423411 Eh     change       -0.1480179E+00 Eh
 * total energy  :   -98.9385063 Eh     change       -0.9616526E-01 Eh
 * total energy  :   -99.0041615 Eh     change       -0.6565513E-01 Eh
 * total energy  :   -99.0430103 Eh     change       -0.3884879E-01 Eh
 * total energy  :   -99.0936270 Eh     change       -0.5061674E-01 Eh
 * total energy  :   -99.1279776 Eh     change       -0.3435059E-01 Eh
 * total energy  :   -99.3472688 Eh     change       -0.1859101E-03 Eh
 * total energy  :   -99.3474365 Eh     change       -0.1676665E-03 Eh
 * total energy  :   -99.3475990 Eh     change       -0.1625464E-03 Eh
 * total energy  :   -99.3477026 Eh     change       -0.1036165E-03 Eh
 * total energy  :   -99.3478628 Eh     change       -0.1602087E-03 Eh
 * total energy  :   -99.3479465 Eh     change       -0.8367938E-04 Eh
 * total energy  :   -99.3479702 Eh     change       -0.2368421E-04 Eh
 * total energy  :   -99.3480326 Eh     change       -0.6245206E-04 Eh
 * total energy  :   -99.3480787 Eh     change       -0.4607638E-04 Eh
   *** GEOMETRY OPTIMIZATION CONVERGED AFTER 71 ITERATIONS ***

 final structure:
================
72
 xtb: 6.6.1 (8d0f1dd)
N           -1.51863179980901        2.28524549337149        3.20510559765164
C           -2.08042928268633        1.96134160147344        2.18848584654888
C           -2.50156645287122        1.50449555008558        1.02620125233246
C           -3.29591184314695        0.28612221713450        0.94571883135301
C           -4.06043597352341       -0.01224457200086       -0.18957340587698
C           -4.79705745841492       -1.18023287812320       -0.26926594143873
O           -5.57208609381114       -1.54073914620742       -1.31692069833448
C           -5.66620855131511       -0.68477507698775       -2.42933292267800
C           -4.77455049434706       -2.10501631906799        0.80988823858905
O           -5.50807170355827       -3.22069142584206        0.63188879761240
C           -5.53320300705072       -4.19565250635660        1.64873824946460
C           -4.02093779868198       -1.79847623534207        1.93665761425653
C           -3.29899466048996       -0.62215752628063        2.00647812174085
C           -2.07175002929373        2.24243691297579       -0.22247525260651
C           -1.12220020935171        1.37133775672779       -1.05379564662895
C            0.19050085165345        1.13634135352222       -0.30261293023942
N            1.03998007629000        0.15427640049821       -0.94322614214177
C            2.44464805595379        0.25460245870485       -0.60553012311682
C            3.35235606725721       -0.19469965531101       -1.76395648556104
C            4.78639320844762       -0.10432598786226       -1.33296120719836
C            5.55011194880024        1.02093480100839       -1.60659265237771
C            6.85446684646577        1.12405957259864       -1.15008873508687
C            7.42469075380309        0.10357599063940       -0.40066245320238
O            8.67186756933984        0.10213602173097        0.10597193915278
C            9.50225623016200        1.22008211723844       -0.10705965645452
C            6.65332745771727       -1.05935153778221       -0.12136395608989
O            7.28264570757540       -2.00539604567417        0.60395470815602
C            6.60451846439664       -3.19981175331800        0.91285838347306
C            5.35146380171021       -1.13848480041097       -0.59067586108932
C            0.53158317237355       -1.19383386702603       -0.84600145605214
C           -6.42439714910671        3.22449851344843        0.02895168783423
C           -6.28113197489612        2.33693296465054        1.18814131835881
C           -5.58227849187822        4.40412214159122       -0.20099092641483
H           -4.08871884926051        0.68626669310673       -1.00893423483938
H           -6.09014481299899        0.28707232623308       -2.15482155998521
H           -6.33646355323610       -1.18474607857883       -3.12580626734423
H           -4.69323878315806       -0.53669917247756       -2.90841264224345
H           -5.94080814120309       -3.79357409022402        2.58088283609515
H           -6.18612557274184       -4.98471837432070        1.28022510886605
H           -4.53598919940342       -4.60704367068795        1.83284218073224
H           -3.98707415988989       -2.48204991197182        2.76924537509938
H           -2.71140920042931       -0.41064676313854        2.88680356195227
H           -2.94690233160563        2.50650704505455       -0.81867123481946
H           -1.56664597640715        3.16844415673788        0.05895429161331
H           -1.61106674038281        0.41970699721026       -1.25801346663088
H           -0.91281608812415        1.85851712037168       -2.00674418602164
H           -0.04408343050715        0.83083278029937        0.73096777383574
H            0.73411305918438        2.08255198816891       -0.25653158674013
H            2.68113604979994       -0.34552198921083        0.28704689043253
H            2.68205209789449        1.29522598141093       -0.37673882758285
H            3.16842273958519        0.44836516026621       -2.62405685626310
H            3.11558148953821       -1.22053952059130       -2.04656999585446
H            5.12871898662293        1.82786085993803       -2.18615145376702
H            7.42348748529623        2.00908403664355       -1.38371052435578
H            9.06544651658730        2.12923325822590        0.31704179835862
H            9.70273800472732        1.37302151785863       -1.17169218808310
H           10.43443382943385        0.99322578253839        0.40693765399670
H            7.31200155013831       -3.79896560930778        1.48272436527033
H            5.71636100855925       -3.01021159764292        1.52412649802160
H            6.31646536933108       -3.74273302380857        0.00738150253589
H            4.75758564187077       -2.01554876852779       -0.38556987611959
H           -0.41041177792549       -1.28082624197274       -1.38267993498896
H            0.36465799804510       -1.49330712126035        0.19920215883724
H            1.23765695971553       -1.88575374814516       -1.29700848912599
H           -7.24063567428452        3.04265994796782       -0.65237080601139
H           -5.41775093957864        2.59900050616599        1.79480993654472
H           -6.18899117069089        1.29199800121695        0.87613440047537
H           -7.17927444905885        2.37790492310225        1.81272456451498
H           -4.70102375959952        4.40287793694000        0.43660651052157
H           -5.28181570692123        4.47791862036356       -1.24823111196826
H           -6.15028265039930        5.31884265869422        0.00574901772362
H           -1.84363745964470        2.95325437204114        3.88761952593481

          :  Hamiltonian                  GFN2-xTB          :
         :: total energy             -99.348078719496 Eh    ::
         :: gradient norm              0.001636378270 Eh/a0 ::
         :: HOMO-LUMO gap              1.008770767229 eV    ::
         :: SCC energy              -100.768465327224 Eh    ::
         :: -> dispersion             -0.068097458313 Eh    ::
         :: repulsion energy           1.419185312226 Eh    ::

    * Orbital Energies and Occupations

         #    Occupation            Energy/Eh            Energy/eV
      -------------------------------------------------------------
         1        2.0000           -0.8068312             -21.9550
       ...           ...                  ...                  ...
        78        1.9988           -0.5308398             -14.4449
        79        1.9983           -0.5246616             -14.2768
        80        1.9982           -0.5239835             -14.2583
        81        1.9976           -0.5194159             -14.1340
        82        1.9971           -0.5164039             -14.0521
        83        1.9969           -0.5153558             -14.0235
        84        1.9952           -0.5084284             -13.8350
        85        1.9881           -0.4941548             -13.4466
        86        1.9668           -0.4777191             -12.9994
        87        1.9560           -0.4731699             -12.8756
        88        1.8413           -0.4519083             -12.2971
        89        1.7669           -0.4451693             -12.1137
        90        1.7253           -0.4421977             -12.0328 (HOMO)
        91        0.7534           -0.4051260             -11.0240 (LUMO)
        92        0.0133           -0.3338571              -9.0847
        93        0.0085           -0.3266906              -8.8897
        94        0.0030           -0.3099174              -8.4333
        95        0.0018           -0.3017227              -8.2103
        96        0.0015           -0.2989738              -8.1355
        97        0.0001           -0.2571080              -6.9963
        98        0.0000           -0.1767136              -4.8086
        99        0.0000           -0.1746925              -4.7536
       100                         -0.0862814              -2.3478
       101                         -0.0618029              -1.6817
       ...                                ...                  ...
       171                          0.9889430              26.9105
      -------------------------------------------------------------
                  HL-Gap            0.0370716 Eh            1.0088 eV

     #   Z          covCN         q      C6AA      α(0)
     1   7 N        1.772    -0.209    26.353     7.602
     2   6 C        1.916     0.104    28.528     8.626
     3   6 C        2.951    -0.027    28.685     8.784
     4   6 C        2.979     0.012    27.736     8.639
     5   6 C        2.919    -0.082    30.051     8.990
     6   6 C        2.862     0.128    25.202     8.229
     7   8 O        1.706    -0.235    17.894     5.711
     8   6 C        3.644     0.030    20.411     6.494
     9   6 C        2.864     0.131    25.140     8.219
    10   8 O        1.706    -0.225    17.737     5.686
    11   6 C        3.645     0.026    20.468     6.502
    12   6 C        2.912    -0.067    29.670     8.932
    13   6 C        2.923    -0.050    29.239     8.867
    14   6 C        3.814    -0.052    21.488     6.598
    15   6 C        3.804    -0.065    21.752     6.640
    16   6 C        3.755    -0.002    20.669     6.483
    17   7 N        2.726    -0.119    23.590     7.214
    18   6 C        3.758     0.003    20.580     6.468
    19   6 C        3.808    -0.071    21.854     6.655
    20   6 C        2.969     0.010    27.802     8.649
    21   6 C        2.922    -0.045    29.110     8.848
    22   6 C        2.913    -0.066    29.642     8.928
    23   6 C        2.864     0.133    25.080     8.209
    24   8 O        1.706    -0.220    17.654     5.673
    25   6 C        3.645     0.025    20.489     6.505
    26   6 C        2.862     0.134    25.072     8.207
    27   8 O        1.706    -0.223    17.700     5.680
    28   6 C        3.645     0.027    20.455     6.500
    29   6 C        2.920    -0.076    29.909     8.968
    30   6 C        3.708    -0.045    21.518     6.630
    31   6 C        2.883    -0.023    28.570     8.763
    32   6 C        3.752    -0.109    22.637     6.785
    33   6 C        3.752    -0.110    22.654     6.787
    34   1 H        0.926     0.052     2.299     2.371
    35   1 H        0.924     0.045     2.378     2.412
    36   1 H        0.925     0.080     1.981     2.201
    37   1 H        0.924     0.049     2.338     2.391
    38   1 H        0.924     0.054     2.271     2.357
    39   1 H        0.925     0.081     1.970     2.195
    40   1 H        0.924     0.054     2.277     2.360
    41   1 H        0.926     0.056     2.249     2.345
    42   1 H        0.926     0.043     2.403     2.424
    43   1 H        0.924     0.054     2.268     2.355
    44   1 H        0.924     0.043     2.414     2.430
    45   1 H        0.925     0.051     2.303     2.373
    46   1 H        0.924     0.053     2.287     2.365
    47   1 H        0.923     0.034     2.528     2.486
    48   1 H        0.924     0.046     2.365     2.405
    49   1 H        0.923     0.034     2.530     2.487
    50   1 H        0.924     0.047     2.352     2.398
    51   1 H        0.925     0.060     2.198     2.318
    52   1 H        0.925     0.054     2.272     2.357
    53   1 H        0.926     0.052     2.291     2.367
    54   1 H        0.926     0.059     2.216     2.328
    55   1 H        0.924     0.055     2.259     2.350
    56   1 H        0.924     0.057     2.235     2.338
    57   1 H        0.925     0.082     1.961     2.190
    58   1 H        0.925     0.081     1.970     2.195
    59   1 H        0.924     0.051     2.311     2.377
    60   1 H        0.924     0.054     2.270     2.356
    61   1 H        0.926     0.051     2.308     2.376
    62   1 H        0.925     0.053     2.286     2.364
    63   1 H        0.923     0.033     2.538     2.491
    64   1 H        0.925     0.057     2.230     2.335
    65   1 H        0.926     0.055     2.263     2.353
    66   1 H        0.925     0.054     2.265     2.354
    67   1 H        0.924     0.073     2.050     2.239
    68   1 H        0.924     0.085     1.933     2.174
    69   1 H        0.925     0.058     2.224     2.332
    70   1 H        0.924     0.071     2.073     2.252
    71   1 H        0.924     0.089     1.890     2.150
    72   1 H        0.860     0.200     1.107     1.648

Wiberg/Mayer (AO) data.
largest (>0.10) Wiberg bond orders for each atom

     #   Z sym  total        # sym  WBO       # sym  WBO       # sym  WBO
 ---------------------------------------------------------------------------
     1   7 N    3.254 --     2 C    2.108    72 H    0.904     3 C    0.132
     2   6 C    3.859 --     1 N    2.108     3 C    1.610
     3   6 C    3.882 --     2 C    1.610     4 C    1.081    14 C    0.967
                             1 N    0.132
     4   6 C    3.944 --    13 C    1.350     5 C    1.329     3 C    1.081
     5   6 C    3.951 --     6 C    1.412     4 C    1.329    34 H    0.958
     6   6 C    3.900 --     5 C    1.412     9 C    1.219     7 O    1.091
     7   8 O    2.247 --     6 C    1.091     8 C    0.981
     8   6 C    3.935 --     7 O    0.981    36 H    0.977    35 H    0.974
                            37 H    0.974
     9   6 C    3.872 --    12 C    1.368     6 C    1.219    10 O    1.107
    10   8 O    2.247 --     9 C    1.107    11 C    0.977
    11   6 C    3.930 --    39 H    0.977    10 O    0.977    40 H    0.973
                            38 H    0.973
    12   6 C    3.963 --    13 C    1.444     9 C    1.368    41 H    0.963
    13   6 C    3.930 --    12 C    1.444     4 C    1.350    42 H    0.967
    14   6 C    3.989 --    15 C    0.992    44 H    0.976     3 C    0.967
                            43 H    0.959
    15   6 C    3.980 --    16 C    0.998    14 C    0.992    46 H    0.973
                            45 H    0.968
    16   6 C    3.970 --    17 N    1.004    15 C    0.998    48 H    0.970
                            47 H    0.951
    17   7 N    3.093 --    30 C    1.017    16 C    1.004    18 C    1.004
    18   6 C    3.966 --    17 N    1.004    19 C    0.974    50 H    0.970
                            49 H    0.957
    19   6 C    3.980 --    20 C    1.014    18 C    0.974    51 H    0.972
                            52 H    0.964
    20   6 C    3.929 --    21 C    1.396    29 C    1.381    19 C    1.014
    21   6 C    3.932 --    22 C    1.422    20 C    1.396    53 H    0.967
    22   6 C    3.952 --    21 C    1.422    23 C    1.377    54 H    0.963
    23   6 C    3.876 --    22 C    1.377    26 C    1.214    24 O    1.110
    24   8 O    2.244 --    23 C    1.110    25 C    0.976
    25   6 C    3.928 --    57 H    0.977    24 O    0.976    55 H    0.972
                            56 H    0.972
    26   6 C    3.883 --    29 C    1.392    23 C    1.214    27 O    1.105
    27   8 O    2.245 --    26 C    1.105    28 C    0.978
    28   6 C    3.931 --    27 O    0.978    58 H    0.977    59 H    0.973
                            60 H    0.973
    29   6 C    3.953 --    26 C    1.392    20 C    1.381    61 H    0.962
    30   6 C    3.972 --    17 N    1.017    64 H    0.976    62 H    0.974
                            63 H    0.964
    31   6 C    3.238 --    32 C    1.112    33 C    1.111    65 H    0.972
    32   6 C    3.978 --    31 C    1.112    66 H    0.981    67 H    0.934
                            68 H    0.927
    33   6 C    3.979 --    31 C    1.111    69 H    0.979    70 H    0.949
                            71 H    0.918
    34   1 H    0.996 --     5 C    0.958
    35   1 H    0.994 --     8 C    0.974
    36   1 H    0.993 --     8 C    0.977
    37   1 H    0.994 --     8 C    0.974
    38   1 H    0.992 --    11 C    0.973
    39   1 H    0.993 --    11 C    0.977
    40   1 H    0.992 --    11 C    0.973
    41   1 H    0.995 --    12 C    0.963
    42   1 H    0.997 --    13 C    0.967
    43   1 H    0.992 --    14 C    0.959
    44   1 H    0.997 --    14 C    0.976
    45   1 H    0.997 --    15 C    0.968
    46   1 H    0.996 --    15 C    0.973
    47   1 H    0.978 --    16 C    0.951
    48   1 H    0.997 --    16 C    0.970
    49   1 H    0.980 --    18 C    0.957
    50   1 H    0.997 --    18 C    0.970
    51   1 H    0.994 --    19 C    0.972
    52   1 H    0.994 --    19 C    0.964
    53   1 H    0.996 --    21 C    0.967
    54   1 H    0.995 --    22 C    0.963
    55   1 H    0.990 --    25 C    0.972
    56   1 H    0.990 --    25 C    0.972
    57   1 H    0.993 --    25 C    0.977
    58   1 H    0.993 --    28 C    0.977
    59   1 H    0.992 --    28 C    0.973
    60   1 H    0.991 --    28 C    0.973
    61   1 H    0.996 --    29 C    0.962
    62   1 H    0.993 --    30 C    0.974
    63   1 H    0.980 --    30 C    0.964
    64   1 H    0.996 --    30 C    0.976
    65   1 H    0.997 --    31 C    0.972
    66   1 H    0.997 --    32 C    0.981
    67   1 H    0.958 --    32 C    0.934
    68   1 H    0.949 --    32 C    0.927
    69   1 H    0.994 --    33 C    0.979
    70   1 H    0.968 --    33 C    0.949
    71   1 H    0.941 --    33 C    0.918
    72   1 H    0.949 --     1 N    0.904
 ---------------------------------------------------------------------------

molecular dipole:
                 x           y           z       tot (Debye)
 q only:       -1.348       1.501       0.341
   full:       -1.597       1.702       0.599       6.125

           -------------------------------------------------
          | TOTAL ENERGY              -99.348078719496 Eh   |
          | GRADIENT NORM               0.001636378270 Eh/α |
          | HOMO-LUMO GAP               1.008770767229 eV   |
           -------------------------------------------------

 * finished run on 2024/04/06 at 11:11:42.358
