   * xtb version 6.6.1 (8d0f1dd) compiled by 'conda@1efc2f54142f' on 2023-08-01
          program call               : xtb xtbopt.xyz --opt crude --input .xc2 --gfn2

   ID    Z sym.   atoms
    1    7 N      1, 17
    2    6 C      2-6, 8, 9, 11-16, 18-23, 25, 26, 28-33
    3    8 O      7, 10, 24, 27
    4    1 H      34-72

          :  Hamiltonian                  GFN2-xTB          :
 * total energy  :   -99.3480788 Eh     change        0.2316369E-11 Eh
 * total energy  :   -99.3480598 Eh     change        0.1904663E-04 Eh
 * total energy  :   -99.3481165 Eh     change       -0.5673885E-04 Eh
   *** GEOMETRY OPTIMIZATION CONVERGED AFTER 3 ITERATIONS ***

 final structure:
================
72
 xtb: 6.6.1 (8d0f1dd)
N           -1.51742148005883        2.29844815330638        3.19836774506560
C           -2.08321163231235        1.96326891898998        2.18768036381351
C           -2.50402605507759        1.50611897090612        1.02545330019387
C           -3.29883461157385        0.28869430736332        0.94497230971665
C           -4.06179106648903       -0.01070082919060       -0.19135696562066
C           -4.79855698173319       -1.17831842012665       -0.27086910496999
O           -5.57288454882607       -1.53957851133223       -1.31871269405956
C           -5.66523556893094       -0.68467362790620       -2.43230004024820
C           -4.77783300347570       -2.10158029695793        0.81038221538762
O           -5.51146046336166       -3.21703086100048        0.63320242049886
C           -5.53655798516203       -4.19158026602329        1.65038016377242
C           -4.02604840830464       -1.79387679019461        1.93777232744489
C           -3.30333662054204       -0.61780734572377        2.00689664012107
C           -2.07091502610039        2.24331617083033       -0.22309088924261
C           -1.11994313473851        1.37261200458372       -1.05194304908322
C            0.18897234672351        1.13018676321201       -0.29688586254596
N            1.03941265255523        0.15198914188999       -0.94177808873313
C            2.44369969671495        0.25185390293425       -0.60173613664567
C            3.35353931159178       -0.19377601362675       -1.76057807177262
C            4.78757550749200       -0.10202570368493       -1.33030484623258
C            5.55032566252630        1.02387341178384       -1.60304647760847
C            6.85541335545384        1.12658186320954       -1.14798412916329
C            7.42668187606110        0.10475611872582       -0.40158640276726
O            8.67523273409603        0.10230616073777        0.10234474273094
C            9.50563275517422        1.21966505251220       -0.11249423811615
C            6.65588272185456       -1.05867513508135       -0.12251098034036
O            7.28640246440268       -2.00570981706465        0.60058664382020
C            6.60835009213487       -3.19964679674495        0.91073029213051
C            5.35351455435674       -1.13747237935329       -0.59023773840852
C            0.53098701512078       -1.19688709630125       -0.85004085374036
C           -6.42335389020228        3.21923587962452        0.02920108373964
C           -6.28326146005106        2.33408936238707        1.19047957470854
C           -5.57963381960037        4.39734471590874       -0.20132478837521
H           -4.08879942623808        0.68733142117761       -1.01111654829810
H           -6.08730285816059        0.28823201196347       -2.15914328310226
H           -6.33595057884878       -1.18433427581789       -3.12847530264309
H           -4.69168929561874       -0.53893517544070       -2.91125553002041
H           -5.94738392022495       -3.79000105734121        2.58154837661421
H           -6.18671074592235       -4.98211791816153        1.28090264764594
H           -4.53891747806630       -4.60033575167149        1.83760758119956
H           -3.99433134844157       -2.47652331058422        2.77109467927722
H           -2.71622975920616       -0.40644361486010        2.88754490025866
H           -2.94531283831649        2.50694858614878       -0.82100395507380
H           -1.56696012696746        3.16958537723785        0.05883567172892
H           -1.61016325155534        0.42338477436993       -1.26364349843763
H           -0.90276254689980        1.86321616302368       -2.00132175426731
H           -0.04857664975366        0.81879344416125        0.73500849825737
H            0.73333931718830        2.07574635023717       -0.24163127453527
H            2.68006479029030       -0.34914950279745        0.29040649682845
H            2.68039769848160        1.29245938428265       -0.37163278896526
H            3.16720360631032        0.45107770082808       -2.61911143432211
H            3.11821981860641       -1.21942342839239       -2.04539864371407
H            5.12791350927023        1.83127518729673       -2.18103107405586
H            7.42398939336444        2.01225681555813       -1.38017724457101
H            9.07099230232240        2.12903461385289        0.31374464824927
H            9.70257921790071        1.37340422506908       -1.17767433048394
H           10.43938083643612        0.99206574852066        0.39816121732638
H            7.31668669671409       -3.79883881585082        1.47972802952123
H            5.72127071705950       -3.00975026375070        1.52338711153880
H            6.31873476660678       -3.74313714591773        0.00612018829280
H            4.76022398398146       -2.01509331431288       -0.38631701004961
H           -0.41283035471106       -1.28052486510625       -1.38413609655398
H            0.36673202428680       -1.50118418095347        0.19435788408737
H            1.23529987947376       -1.88684487699328       -1.30610059689610
H           -7.23696559360997        3.03521334108113       -0.65453952857223
H           -5.41969323946682        2.59588313475890        1.79695523611022
H           -6.19416483569500        1.28858565744504        0.88060925663354
H           -7.18135932359049        2.37893064918356        1.81507823752340
H           -4.69887535970040        4.39486920309440        0.43700471692139
H           -5.27846425871346        4.47020489641246       -1.24852722389333
H           -6.14573815457724        5.31362748781772        0.00443435708505
H           -1.85464800713583        2.94964983833599        3.89130376043774

          :  Hamiltonian                  GFN2-xTB          :
         :: total energy             -99.348116532026 Eh    ::
         :: gradient norm              0.001202228914 Eh/a0 ::
         :: HOMO-LUMO gap              1.008029245423 eV    ::
         :: SCC energy              -100.768532253420 Eh    ::
         :: -> dispersion             -0.068110385558 Eh    ::
         :: repulsion energy           1.419213757244 Eh    ::

    * Orbital Energies and Occupations

         #    Occupation            Energy/Eh            Energy/eV
      -------------------------------------------------------------
         1        2.0000           -0.8068761             -21.9562
       ...           ...                  ...                  ...
        78        1.9988           -0.5308416             -14.4449
        79        1.9983           -0.5246508             -14.2765
        80        1.9982           -0.5239516             -14.2574
        81        1.9976           -0.5193415             -14.1320
        82        1.9971           -0.5164469             -14.0532
        83        1.9969           -0.5153180             -14.0225
        84        1.9952           -0.5084513             -13.8357
        85        1.9881           -0.4941945             -13.4477
        86        1.9667           -0.4777005             -12.9989
        87        1.9561           -0.4732233             -12.8771
        88        1.8416           -0.4519635             -12.2986
        89        1.7669           -0.4451914             -12.1143
        90        1.7249           -0.4421894             -12.0326 (HOMO)
        91        0.7534           -0.4051450             -11.0246 (LUMO)
        92        0.0131           -0.3336280              -9.0785
        93        0.0087           -0.3270413              -8.8992
        94        0.0030           -0.3099404              -8.4339
        95        0.0018           -0.3017282              -8.2104
        96        0.0015           -0.2989717              -8.1354
        97        0.0001           -0.2570377              -6.9944
        98        0.0000           -0.1767139              -4.8086
        99        0.0000           -0.1746933              -4.7536
       100                         -0.0862343              -2.3466
       101                         -0.0618274              -1.6824
       ...                                ...                  ...
       171                          0.9890465              26.9133
      -------------------------------------------------------------
                  HL-Gap            0.0370444 Eh            1.0080 eV

     #   Z          covCN         q      C6AA      α(0)
     1   7 N        1.772    -0.209    26.352     7.601
     2   6 C        1.917     0.104    28.526     8.626
     3   6 C        2.951    -0.027    28.684     8.784
     4   6 C        2.979     0.012    27.735     8.639
     5   6 C        2.919    -0.082    30.052     8.990
     6   6 C        2.861     0.128    25.202     8.229
     7   8 O        1.706    -0.235    17.894     5.711
     8   6 C        3.644     0.030    20.411     6.494
     9   6 C        2.864     0.130    25.141     8.219
    10   8 O        1.706    -0.225    17.736     5.686
    11   6 C        3.645     0.026    20.468     6.502
    12   6 C        2.912    -0.067    29.672     8.932
    13   6 C        2.923    -0.050    29.240     8.868
    14   6 C        3.814    -0.052    21.487     6.598
    15   6 C        3.804    -0.065    21.750     6.640
    16   6 C        3.755    -0.002    20.667     6.482
    17   7 N        2.726    -0.119    23.591     7.214
    18   6 C        3.758     0.003    20.581     6.468
    19   6 C        3.808    -0.071    21.855     6.655
    20   6 C        2.969     0.010    27.800     8.649
    21   6 C        2.922    -0.045    29.109     8.848
    22   6 C        2.913    -0.066    29.641     8.928
    23   6 C        2.864     0.133    25.080     8.209
    24   8 O        1.706    -0.220    17.655     5.673
    25   6 C        3.645     0.025    20.487     6.505
    26   6 C        2.862     0.134    25.071     8.207
    27   8 O        1.706    -0.223    17.699     5.680
    28   6 C        3.645     0.027    20.455     6.500
    29   6 C        2.920    -0.076    29.909     8.968
    30   6 C        3.708    -0.045    21.517     6.630
    31   6 C        2.883    -0.023    28.569     8.763
    32   6 C        3.752    -0.109    22.637     6.785
    33   6 C        3.752    -0.110    22.654     6.787
    34   1 H        0.926     0.052     2.300     2.371
    35   1 H        0.924     0.045     2.378     2.411
    36   1 H        0.925     0.080     1.981     2.201
    37   1 H        0.924     0.049     2.338     2.391
    38   1 H        0.924     0.054     2.272     2.357
    39   1 H        0.925     0.081     1.970     2.195
    40   1 H        0.924     0.054     2.277     2.360
    41   1 H        0.926     0.056     2.250     2.346
    42   1 H        0.926     0.043     2.407     2.426
    43   1 H        0.924     0.054     2.269     2.356
    44   1 H        0.924     0.043     2.412     2.429
    45   1 H        0.925     0.051     2.305     2.374
    46   1 H        0.924     0.053     2.284     2.363
    47   1 H        0.923     0.034     2.532     2.488
    48   1 H        0.924     0.046     2.366     2.406
    49   1 H        0.923     0.034     2.531     2.488
    50   1 H        0.924     0.047     2.352     2.398
    51   1 H        0.925     0.060     2.198     2.319
    52   1 H        0.925     0.054     2.273     2.358
    53   1 H        0.926     0.052     2.291     2.367
    54   1 H        0.926     0.059     2.215     2.327
    55   1 H        0.924     0.055     2.259     2.351
    56   1 H        0.924     0.057     2.236     2.338
    57   1 H        0.925     0.082     1.962     2.190
    58   1 H        0.925     0.081     1.970     2.195
    59   1 H        0.924     0.051     2.311     2.377
    60   1 H        0.924     0.054     2.271     2.357
    61   1 H        0.926     0.051     2.307     2.375
    62   1 H        0.925     0.053     2.286     2.364
    63   1 H        0.923     0.033     2.539     2.492
    64   1 H        0.925     0.057     2.229     2.335
    65   1 H        0.926     0.055     2.264     2.353
    66   1 H        0.925     0.054     2.266     2.354
    67   1 H        0.924     0.073     2.050     2.239
    68   1 H        0.924     0.085     1.933     2.174
    69   1 H        0.925     0.058     2.224     2.332
    70   1 H        0.924     0.071     2.074     2.252
    71   1 H        0.924     0.089     1.889     2.149
    72   1 H        0.860     0.200     1.106     1.648

Wiberg/Mayer (AO) data.
largest (>0.10) Wiberg bond orders for each atom

     #   Z sym  total        # sym  WBO       # sym  WBO       # sym  WBO
 ---------------------------------------------------------------------------
     1   7 N    3.254 --     2 C    2.109    72 H    0.904     3 C    0.132
     2   6 C    3.859 --     1 N    2.109     3 C    1.610
     3   6 C    3.882 --     2 C    1.610     4 C    1.082    14 C    0.967
                             1 N    0.132
     4   6 C    3.944 --    13 C    1.350     5 C    1.329     3 C    1.082
     5   6 C    3.951 --     6 C    1.413     4 C    1.329    34 H    0.958
     6   6 C    3.900 --     5 C    1.413     9 C    1.218     7 O    1.091
     7   8 O    2.247 --     6 C    1.091     8 C    0.981
     8   6 C    3.935 --     7 O    0.981    36 H    0.977    35 H    0.974
                            37 H    0.974
     9   6 C    3.872 --    12 C    1.369     6 C    1.218    10 O    1.107
    10   8 O    2.247 --     9 C    1.107    11 C    0.977
    11   6 C    3.930 --    39 H    0.977    10 O    0.977    40 H    0.973
                            38 H    0.973
    12   6 C    3.963 --    13 C    1.444     9 C    1.369    41 H    0.963
    13   6 C    3.930 --    12 C    1.444     4 C    1.350    42 H    0.967
    14   6 C    3.989 --    15 C    0.992    44 H    0.976     3 C    0.967
                            43 H    0.959
    15   6 C    3.980 --    16 C    0.998    14 C    0.992    46 H    0.973
                            45 H    0.968
    16   6 C    3.970 --    17 N    1.004    15 C    0.998    48 H    0.970
                            47 H    0.951
    17   7 N    3.093 --    30 C    1.017    16 C    1.004    18 C    1.004
    18   6 C    3.966 --    17 N    1.004    19 C    0.974    50 H    0.970
                            49 H    0.957
    19   6 C    3.980 --    20 C    1.014    18 C    0.974    51 H    0.972
                            52 H    0.964
    20   6 C    3.929 --    21 C    1.396    29 C    1.381    19 C    1.014
    21   6 C    3.932 --    22 C    1.421    20 C    1.396    53 H    0.967
    22   6 C    3.952 --    21 C    1.421    23 C    1.378    54 H    0.963
    23   6 C    3.876 --    22 C    1.378    26 C    1.214    24 O    1.110
    24   8 O    2.244 --    23 C    1.110    25 C    0.977
    25   6 C    3.928 --    57 H    0.977    24 O    0.977    55 H    0.972
                            56 H    0.972
    26   6 C    3.883 --    29 C    1.392    23 C    1.214    27 O    1.105
    27   8 O    2.245 --    26 C    1.105    28 C    0.978
    28   6 C    3.931 --    27 O    0.978    58 H    0.977    59 H    0.973
                            60 H    0.972
    29   6 C    3.953 --    26 C    1.392    20 C    1.381    61 H    0.962
    30   6 C    3.972 --    17 N    1.017    64 H    0.976    62 H    0.974
                            63 H    0.964
    31   6 C    3.238 --    32 C    1.112    33 C    1.111    65 H    0.972
    32   6 C    3.978 --    31 C    1.112    66 H    0.981    67 H    0.934
                            68 H    0.926
    33   6 C    3.979 --    31 C    1.111    69 H    0.979    70 H    0.949
                            71 H    0.918
    34   1 H    0.996 --     5 C    0.958
    35   1 H    0.994 --     8 C    0.974
    36   1 H    0.993 --     8 C    0.977
    37   1 H    0.994 --     8 C    0.974
    38   1 H    0.992 --    11 C    0.973
    39   1 H    0.993 --    11 C    0.977
    40   1 H    0.992 --    11 C    0.973
    41   1 H    0.995 --    12 C    0.963
    42   1 H    0.998 --    13 C    0.967
    43   1 H    0.992 --    14 C    0.959
    44   1 H    0.997 --    14 C    0.976
    45   1 H    0.997 --    15 C    0.968
    46   1 H    0.996 --    15 C    0.973
    47   1 H    0.978 --    16 C    0.951
    48   1 H    0.997 --    16 C    0.970
    49   1 H    0.980 --    18 C    0.957
    50   1 H    0.997 --    18 C    0.970
    51   1 H    0.994 --    19 C    0.972
    52   1 H    0.994 --    19 C    0.964
    53   1 H    0.996 --    21 C    0.967
    54   1 H    0.995 --    22 C    0.963
    55   1 H    0.990 --    25 C    0.972
    56   1 H    0.990 --    25 C    0.972
    57   1 H    0.993 --    25 C    0.977
    58   1 H    0.993 --    28 C    0.977
    59   1 H    0.992 --    28 C    0.973
    60   1 H    0.991 --    28 C    0.972
    61   1 H    0.996 --    29 C    0.962
    62   1 H    0.993 --    30 C    0.974
    63   1 H    0.980 --    30 C    0.964
    64   1 H    0.996 --    30 C    0.976
    65   1 H    0.997 --    31 C    0.972
    66   1 H    0.997 --    32 C    0.981
    67   1 H    0.959 --    32 C    0.934
    68   1 H    0.948 --    32 C    0.926
    69   1 H    0.994 --    33 C    0.979
    70   1 H    0.968 --    33 C    0.949
    71   1 H    0.941 --    33 C    0.918
    72   1 H    0.949 --     1 N    0.904
 ---------------------------------------------------------------------------

molecular dipole:
                 x           y           z       tot (Debye)
 q only:       -1.353       1.496       0.342
   full:       -1.605       1.690       0.605       6.120

           -------------------------------------------------
          | TOTAL ENERGY              -99.348116532026 Eh   |
          | GRADIENT NORM               0.001202228914 Eh/α |
          | HOMO-LUMO GAP               1.008029245423 eV   |
           -------------------------------------------------

 * finished run on 2024/04/06 at 11:11:43.126
