   * xtb version 6.6.1 (8d0f1dd) compiled by 'conda@1efc2f54142f' on 2023-08-01
          program call               : xtb struc.xyz --opt loose --input .xc1 --gfn2

   ID    Z sym.   atoms
    1    6 C      1, 3, 5-7, 10, 11, 14
    2    7 N      2, 4, 9, 13
    3    8 O      8, 12
    4    1 H      15-25
constraining bond 2 5 to    4.9200000 Å, actual value:    2.2205058 Å

          :  Hamiltonian                  GFN2-xTB          :
 * total energy  :   -16.2245531 Eh     change       -0.6650680E-10 Eh
 * total energy  :   -26.6051967 Eh     change       -0.1038064E+02 Eh
 * total energy  :   -32.8599706 Eh     change       -0.6254774E+01 Eh
 * total energy  :   -36.9324611 Eh     change       -0.4072491E+01 Eh
 * total energy  :   -39.9272802 Eh     change       -0.2994819E+01 Eh
 * total energy  :   -40.9871060 Eh     change       -0.1059826E+01 Eh
 * total energy  :   -41.1872182 Eh     change       -0.2001122E+00 Eh
 * total energy  :   -41.3006186 Eh     change       -0.1134004E+00 Eh
 * total energy  :   -41.3917988 Eh     change       -0.9118022E-01 Eh
 * total energy  :   -41.4334557 Eh     change       -0.4165681E-01 Eh
 * total energy  :   -42.1709480 Eh     change       -0.3295635E-03 Eh
 * total energy  :   -42.1715679 Eh     change       -0.6198232E-03 Eh
 * total energy  :   -42.1720110 Eh     change       -0.4431221E-03 Eh
 * total energy  :   -42.1722655 Eh     change       -0.2545210E-03 Eh
 * total energy  :   -42.1724199 Eh     change       -0.1544462E-03 Eh
 * total energy  :   -42.1725704 Eh     change       -0.1504478E-03 Eh
 * total energy  :   -42.1726751 Eh     change       -0.1047465E-03 Eh
 * total energy  :   -42.1727262 Eh     change       -0.5104121E-04 Eh
 * total energy  :   -42.1727681 Eh     change       -0.4191819E-04 Eh
   *** GEOMETRY OPTIMIZATION CONVERGED AFTER 50 ITERATIONS ***

 final structure:
================
25
 xtb: 6.6.1 (8d0f1dd)
C            3.45257173155267        1.79351654721167        0.10426916084513
N            3.40696670018073        0.79351745183390       -0.63986261187579
C            1.50856590592266       -1.12893881494950        0.29588457570767
N            0.91164212637170       -2.35480277234569        0.17872011688131
C           -0.41918367784792       -2.22657218940787        0.03417740026853
C            0.50407589802642       -0.20658859737913        0.21479207925902
C            0.15684384607374        1.22010737469811        0.21712937055909
O            0.85086961964323        2.19825615211730        0.31566745345062
N           -1.23210760524208        1.22344143250206        0.06242855174583
C           -2.01971726993637        2.43598150126285        0.01779909223687
C           -1.79484928497887       -0.02067050687855       -0.03757541540752
O           -2.93310798318436       -0.34539992072695       -0.17440110164416
N           -0.67447594594095       -0.91280936144496        0.05950475010415
C           -1.41031733942675       -3.30121456581757       -0.10701881196845
H            3.29813323557480        1.66035095469404        1.16702339733506
H            3.56954838967993        0.92417197389602       -1.63387345847708
H            3.64720205957379        2.81733473046736       -0.21415538038735
H            2.56726602483830       -0.98595677767850        0.38538932784779
H           -1.33415665054436        3.27923505026709        0.07252460887357
H           -2.59015737880088        2.47565556892778       -0.90976810440278
H           -2.71163059710836        2.46422537938929        0.85931870943795
H           -1.34408709516847       -4.00072369094604        0.72702182513956
H           -1.24139477787994       -3.86813263988909       -1.02330224727361
H           -2.41177513297237       -2.87700555389815       -0.13780560796579
H            1.40370671569445       -3.23874018430645        0.19728393761076

          :  Hamiltonian                  GFN2-xTB          :
         :: total energy             -42.172768093849 Eh    ::
         :: gradient norm              0.002337823687 Eh/a0 ::
         :: HOMO-LUMO gap              1.775507697875 eV    ::
         :: SCC energy               -42.726261079793 Eh    ::
         :: -> dispersion             -0.021469391060 Eh    ::
         :: repulsion energy           0.553395772072 Eh    ::

    * Orbital Energies and Occupations

         #    Occupation            Energy/Eh            Energy/eV
      -------------------------------------------------------------
         1        2.0000           -0.9065123             -24.6675
       ...           ...                  ...                  ...
        25        2.0000           -0.6612432             -17.9933
        26        1.9999           -0.6546175             -17.8130
        27        1.9999           -0.6534911             -17.7824
        28        1.9998           -0.6354296             -17.2909
        29        1.9998           -0.6348925             -17.2763
        30        1.9994           -0.6199635             -16.8701
        31        1.9992           -0.6154675             -16.7477
        32        1.9989           -0.6107217             -16.6186
        33        1.9966           -0.5923738             -16.1193
        34        1.9956           -0.5883408             -16.0096
        35        1.9864           -0.5705549             -15.5256
        36        1.9822           -0.5662320             -15.4080
        37        1.7867           -0.5252765             -14.2935 (HOMO)
        38        0.2393           -0.4600277             -12.5180 (LUMO)
        39        0.0141           -0.4133319             -11.2473
        40        0.0022           -0.3837575             -10.4426
        41        0.0002           -0.3419521              -9.3050
        42        0.0000           -0.3147620              -8.5651
        43                         -0.2051523              -5.5825
        44                         -0.1509749              -4.1082
        45                         -0.1362685              -3.7081
        46                         -0.0871076              -2.3703
        47                         -0.0581478              -1.5823
        48                         -0.0320645              -0.8725
       ...                                ...                  ...
        67                          0.6061697              16.4947
      -------------------------------------------------------------
                  HL-Gap            0.0652487 Eh            1.7755 eV

     #   Z          covCN         q      C6AA      α(0)
     1   6 C        2.760     0.064    26.539     8.436
     2   7 N        1.770    -0.236    26.997     7.694
     3   6 C        2.994     0.013    27.709     8.635
     4   7 N        2.844    -0.038    21.972     6.962
     5   6 C        3.016     0.144    24.853     8.178
     6   6 C        3.153     0.009    27.517     8.579
     7   6 C        2.814     0.274    22.369     7.749
     8   8 O        0.857    -0.342    20.559     6.079
     9   7 N        2.809    -0.073    22.661     7.070
    10   6 C        3.692    -0.061    21.859     6.690
    11   6 C        2.765     0.324    21.504     7.594
    12   8 O        0.857    -0.326    20.249     6.033
    13   7 N        2.942    -0.023    21.681     6.916
    14   6 C        3.754    -0.147    23.389     6.896
    15   1 H        0.925     0.102     1.763     2.076
    16   1 H        0.860     0.187     1.173     1.696
    17   1 H        0.925     0.092     1.862     2.134
    18   1 H        0.926     0.142     1.448     1.882
    19   1 H        0.925     0.109     1.705     2.042
    20   1 H        0.925     0.097     1.815     2.107
    21   1 H        0.925     0.097     1.816     2.107
    22   1 H        0.924     0.116     1.646     2.007
    23   1 H        0.924     0.118     1.627     1.995
    24   1 H        0.925     0.125     1.573     1.962
    25   1 H        0.860     0.232     0.957     1.533

Wiberg/Mayer (AO) data.
largest (>0.10) Wiberg bond orders for each atom

     #   Z sym  total        # sym  WBO       # sym  WBO       # sym  WBO
 ---------------------------------------------------------------------------
     1   6 C    3.895 --     2 N    2.017    15 H    0.942    17 H    0.919
     2   7 N    2.986 --     1 C    2.017    16 H    0.923
     3   6 C    3.890 --     6 C    1.537     4 N    1.220    18 H    0.943
     4   7 N    3.629 --     5 C    1.311     3 C    1.220    25 H    0.919
     5   6 C    3.859 --     4 N    1.311    13 N    1.288    14 C    1.060
     6   6 C    3.892 --     3 C    1.537    13 N    1.121     7 C    1.021
     7   6 C    3.903 --     8 O    1.716     9 N    1.091     6 C    1.021
     8   8 O    2.033 --     7 C    1.716     9 N    0.131
     9   7 N    3.566 --    11 C    1.153     7 C    1.091    10 C    0.974
                            12 O    0.145     8 O    0.131
    10   6 C    3.918 --     9 N    0.974    19 H    0.971    20 H    0.966
                            21 H    0.965
    11   6 C    3.907 --    12 O    1.742     9 N    1.153    13 N    0.942
    12   8 O    2.069 --    11 C    1.742     9 N    0.145
    13   7 N    3.633 --     5 C    1.288     6 C    1.121    11 C    0.942
    14   6 C    3.962 --     5 C    1.060    24 H    0.965    22 H    0.941
                            23 H    0.936
    15   1 H    0.967 --     1 C    0.942
    16   1 H    0.946 --     2 N    0.923
    17   1 H    0.937 --     1 C    0.919
    18   1 H    0.979 --     3 C    0.943
    19   1 H    0.987 --    10 C    0.971
    20   1 H    0.985 --    10 C    0.966
    21   1 H    0.985 --    10 C    0.965
    22   1 H    0.980 --    14 C    0.941
    23   1 H    0.979 --    14 C    0.936
    24   1 H    0.984 --    14 C    0.965
    25   1 H    0.946 --     4 N    0.919
 ---------------------------------------------------------------------------

molecular dipole:
                 x           y           z       tot (Debye)
 q only:        1.278      -2.078       0.019
   full:        1.513      -2.072      -0.074       6.524

           -------------------------------------------------
          | TOTAL ENERGY              -42.172768093849 Eh   |
          | GRADIENT NORM               0.002337823687 Eh/α |
          | HOMO-LUMO GAP               1.775507697875 eV   |
           -------------------------------------------------

 * finished run on 2024/06/05 at 19:59:06.897
