   * xtb version 6.6.1 (8d0f1dd) compiled by 'conda@1efc2f54142f' on 2023-08-01
          program call               : xtb xtbopt.xyz --opt crude --input .xc2 --gfn2

   ID    Z sym.   atoms
    1    6 C      1, 3, 5-7, 10, 11, 14
    2    7 N      2, 4, 9, 13
    3    8 O      8, 12
    4    1 H      15-25

          :  Hamiltonian                  GFN2-xTB          :
 * total energy  :   -42.1727706 Eh     change        0.4973799E-13 Eh
 * total energy  :   -42.1730906 Eh     change       -0.3199563E-03 Eh
   *** GEOMETRY OPTIMIZATION CONVERGED AFTER 2 ITERATIONS ***

 final structure:
================
25
 xtb: 6.6.1 (8d0f1dd)
C            3.47136422195412        1.80918318580930        0.09958862772840
N            3.46016092378651        0.81294022216684       -0.65026980984658
C            1.49986185069122       -1.13631078561384        0.30098504537863
N            0.90087161537493       -2.36135729896881        0.18377891574941
C           -0.43033074252496       -2.23281844075270        0.03891381594125
C            0.49684674013489       -0.21303920121966        0.21851202903690
C            0.15330410828739        1.21460517585946        0.21880921065675
O            0.84970288241467        2.19107844990254        0.31720529836723
N           -1.23549958430563        1.22063195112962        0.06341768310038
C           -2.02040699049590        2.43504115442944        0.01773640703998
C           -1.80031002884926       -0.02243177402134       -0.03686613488521
O           -2.93891581551361       -0.34517129839418       -0.17496507500258
N           -0.68257319212766       -0.91798696954761        0.06197896151835
C           -1.41913632873809       -3.30765959172445       -0.10674162825494
H            3.32153358735191        1.66293380044602        1.16217559650144
H            3.60157928963287        0.95386715524655       -1.64651739487998
H            3.63563059978007        2.84068752857373       -0.21386435185116
H            2.55868580853102       -0.99444351695473        0.39166599732667
H           -1.33321460314563        3.27700464319126        0.07260582859319
H           -2.59023046959644        2.47560916758797       -0.91010812040720
H           -2.71292974040463        2.46524176087727        0.85879607143869
H           -1.35320299989020       -4.00789680216199        0.72639385067121
H           -1.24523357867558       -3.87249207366775       -1.02359700727788
H           -2.42050099331609       -2.88395532315796       -0.14035114053989
H            1.39337495374476       -3.24502257743593        0.20188894179724

          :  Hamiltonian                  GFN2-xTB          :
         :: total energy             -42.173090592537 Eh    ::
         :: gradient norm              0.002988973917 Eh/a0 ::
         :: HOMO-LUMO gap              1.763494675814 eV    ::
         :: SCC energy               -42.726451665378 Eh    ::
         :: -> dispersion             -0.021385955162 Eh    ::
         :: repulsion energy           0.553267403166 Eh    ::

    * Orbital Energies and Occupations

         #    Occupation            Energy/Eh            Energy/eV
      -------------------------------------------------------------
         1        2.0000           -0.9065731             -24.6691
       ...           ...                  ...                  ...
        25        2.0000           -0.6614548             -17.9991
        26        1.9999           -0.6546332             -17.8135
        27        1.9999           -0.6536455             -17.7866
        28        1.9998           -0.6353561             -17.2889
        29        1.9998           -0.6350609             -17.2809
        30        1.9994           -0.6197369             -16.8639
        31        1.9992           -0.6151302             -16.7385
        32        1.9989           -0.6107304             -16.6188
        33        1.9966           -0.5923425             -16.1185
        34        1.9957           -0.5885230             -16.0145
        35        1.9867           -0.5706891             -15.5292
        36        1.9824           -0.5662174             -15.4076
        37        1.7834           -0.5248369             -14.2815 (HOMO)
        38        0.2417           -0.4600296             -12.5180 (LUMO)
        39        0.0145           -0.4135211             -11.2525
        40        0.0022           -0.3834430             -10.4340
        41        0.0002           -0.3419603              -9.3052
        42        0.0000           -0.3147943              -8.5660
        43                         -0.2053130              -5.5869
        44                         -0.1512396              -4.1154
        45                         -0.1362631              -3.7079
        46                         -0.0877304              -2.3873
        47                         -0.0576596              -1.5690
        48                         -0.0322444              -0.8774
       ...                                ...                  ...
        67                          0.6063308              16.4991
      -------------------------------------------------------------
                  HL-Gap            0.0648072 Eh            1.7635 eV

     #   Z          covCN         q      C6AA      α(0)
     1   6 C        2.760     0.064    26.547     8.438
     2   7 N        1.770    -0.234    26.935     7.685
     3   6 C        2.992     0.013    27.703     8.634
     4   7 N        2.845    -0.038    21.978     6.963
     5   6 C        3.013     0.144    24.853     8.178
     6   6 C        3.153     0.009    27.522     8.580
     7   6 C        2.814     0.274    22.373     7.750
     8   8 O        0.857    -0.343    20.567     6.080
     9   7 N        2.809    -0.073    22.662     7.070
    10   6 C        3.692    -0.061    21.858     6.690
    11   6 C        2.766     0.324    21.504     7.594
    12   8 O        0.857    -0.326    20.252     6.034
    13   7 N        2.941    -0.023    21.686     6.916
    14   6 C        3.754    -0.147    23.386     6.896
    15   1 H        0.925     0.103     1.762     2.076
    16   1 H        0.860     0.188     1.172     1.696
    17   1 H        0.924     0.092     1.860     2.133
    18   1 H        0.926     0.140     1.461     1.890
    19   1 H        0.925     0.109     1.706     2.042
    20   1 H        0.925     0.097     1.816     2.107
    21   1 H        0.925     0.097     1.816     2.108
    22   1 H        0.924     0.116     1.645     2.006
    23   1 H        0.924     0.118     1.626     1.994
    24   1 H        0.925     0.125     1.572     1.961
    25   1 H        0.860     0.232     0.958     1.533

Wiberg/Mayer (AO) data.
largest (>0.10) Wiberg bond orders for each atom

     #   Z sym  total        # sym  WBO       # sym  WBO       # sym  WBO
 ---------------------------------------------------------------------------
     1   6 C    3.895 --     2 N    2.019    15 H    0.942    17 H    0.919
     2   7 N    2.984 --     1 C    2.019    16 H    0.923
     3   6 C    3.891 --     6 C    1.538     4 N    1.220    18 H    0.945
     4   7 N    3.628 --     5 C    1.311     3 C    1.220    25 H    0.919
     5   6 C    3.858 --     4 N    1.311    13 N    1.288    14 C    1.061
     6   6 C    3.892 --     3 C    1.538    13 N    1.121     7 C    1.021
     7   6 C    3.903 --     8 O    1.716     9 N    1.091     6 C    1.021
     8   8 O    2.032 --     7 C    1.716     9 N    0.131
     9   7 N    3.567 --    11 C    1.153     7 C    1.091    10 C    0.974
                            12 O    0.145     8 O    0.131
    10   6 C    3.918 --     9 N    0.974    19 H    0.971    20 H    0.966
                            21 H    0.965
    11   6 C    3.907 --    12 O    1.742     9 N    1.153    13 N    0.942
    12   8 O    2.069 --    11 C    1.742     9 N    0.145
    13   7 N    3.632 --     5 C    1.288     6 C    1.121    11 C    0.942
    14   6 C    3.963 --     5 C    1.061    24 H    0.964    22 H    0.941
                            23 H    0.936
    15   1 H    0.966 --     1 C    0.942
    16   1 H    0.946 --     2 N    0.923
    17   1 H    0.936 --     1 C    0.919
    18   1 H    0.980 --     3 C    0.945
    19   1 H    0.987 --    10 C    0.971
    20   1 H    0.986 --    10 C    0.966
    21   1 H    0.985 --    10 C    0.965
    22   1 H    0.980 --    14 C    0.941
    23   1 H    0.979 --    14 C    0.936
    24   1 H    0.984 --    14 C    0.964
    25   1 H    0.946 --     4 N    0.919
 ---------------------------------------------------------------------------

molecular dipole:
                 x           y           z       tot (Debye)
 q only:        1.268      -2.075       0.016
   full:        1.490      -2.069      -0.073       6.484

           -------------------------------------------------
          | TOTAL ENERGY              -42.173090592537 Eh   |
          | GRADIENT NORM               0.002988973917 Eh/α |
          | HOMO-LUMO GAP               1.763494675814 eV   |
           -------------------------------------------------

 * finished run on 2024/06/05 at 19:59:07.108
