   * xtb version 6.6.1 (8d0f1dd) compiled by 'conda@1efc2f54142f' on 2023-08-01
          program call               : xtb struc.xyz --opt loose --input .xc1 --gfn2

   ID    Z sym.   atoms
    1    6 C      1, 3, 5-7, 10, 11, 14
    2    7 N      2, 4, 9, 13
    3    8 O      8, 12
    4    1 H      15-25
constraining bond 5 23 to    5.1400000 Å, actual value:    2.7817644 Å

          :  Hamiltonian                  GFN2-xTB          :
 * total energy  :   -32.3180233 Eh     change       -0.6650680E-10 Eh
 * total energy  :   -36.2932928 Eh     change       -0.3975270E+01 Eh
 * total energy  :   -39.1496863 Eh     change       -0.2856393E+01 Eh
 * total energy  :   -40.8582549 Eh     change       -0.1708569E+01 Eh
 * total energy  :   -41.6166602 Eh     change       -0.7584053E+00 Eh
 * total energy  :   -41.7965921 Eh     change       -0.1799319E+00 Eh
 * total energy  :   -41.8203518 Eh     change       -0.2375966E-01 Eh
 * total energy  :   -41.8637155 Eh     change       -0.4336369E-01 Eh
 * total energy  :   -41.9156875 Eh     change       -0.5197199E-01 Eh
 * total energy  :   -41.9523013 Eh     change       -0.3661384E-01 Eh
 * total energy  :   -42.0965425 Eh     change       -0.8184019E-03 Eh
 * total energy  :   -42.0997258 Eh     change       -0.3183308E-02 Eh
 * total energy  :   -42.1016467 Eh     change       -0.1920825E-02 Eh
 * total energy  :   -42.1022249 Eh     change       -0.5781956E-03 Eh
 * total energy  :   -42.1026680 Eh     change       -0.4431093E-03 Eh
 * total energy  :   -42.1028010 Eh     change       -0.1329972E-03 Eh
 * total energy  :   -42.1029341 Eh     change       -0.1331511E-03 Eh
 * total energy  :   -42.1029935 Eh     change       -0.5941956E-04 Eh
 * total energy  :   -42.1030177 Eh     change       -0.2411748E-04 Eh
   *** GEOMETRY OPTIMIZATION CONVERGED AFTER 29 ITERATIONS ***

 final structure:
================
25
 xtb: 6.6.1 (8d0f1dd)
C            3.25292907603951        1.24112325553460        0.01949152603994
N            2.31920768850104        0.14751901401306        0.04823300964910
C            2.61047770557839       -1.14792102343530        0.08277636342003
N            1.47549508597979       -1.87714800044876        0.11950068081248
C            0.41500975642835       -1.00512180355990        0.10259438039567
C            0.95107192172804        0.27598912897355        0.05870752608257
C            0.12216431344450        1.46133226987091        0.02000540668845
O            0.51907066252680        2.60344591229024       -0.01542688018274
N           -1.23674806366010        1.12626831955653        0.02377623463434
C           -2.19136971705745        2.22987756572127       -0.02646405776820
C           -1.81006182759943       -0.11409360891183        0.06061172869186
O           -2.99107085660681       -0.30692083908329        0.04740857448863
N           -0.91387673668775       -1.26572293749079        0.12130335326711
C           -1.47218847868074       -2.48322776307072        0.19282047490531
H            3.77414272424869        1.31912644777638        0.97462892978019
H            3.98899903336768        1.09057267244667       -0.76975944286766
H            2.70426151649260        2.16538894988815       -0.15806103224766
H            3.59947455620094       -1.56384480380925        0.08197190409113
H           -1.62944333560769        3.16027893978873       -0.01784405152071
H           -2.79025233778948        2.15936163312925       -0.93344557931452
H           -2.85673171081722        2.18099188815115        0.83395016852341
H           -0.87094415809276       -3.36471867544351        0.24350341667688
H           -2.70203378076480       -4.79599012726384       -1.42430496953473
H           -2.54341951430554       -2.53246654433209        0.20934465269681
H            1.43626799123341       -2.88586132869107        0.13584930049236

          :  Hamiltonian                  GFN2-xTB          :
         :: total energy             -42.103017666029 Eh    ::
         :: gradient norm              0.003427067354 Eh/a0 ::
         :: HOMO-LUMO gap              0.215569735771 eV    ::
         :: SCC energy               -42.626859808780 Eh    ::
         :: -> dispersion             -0.022649131538 Eh    ::
         :: repulsion energy           0.523757464593 Eh    ::

    * Orbital Energies and Occupations

         #    Occupation            Energy/Eh            Energy/eV
      -------------------------------------------------------------
         1        2.0000           -0.9188671             -25.0036
       ...           ...                  ...                  ...
        25        2.0000           -0.6705036             -18.2453
        26        2.0000           -0.6701194             -18.2349
        27        2.0000           -0.6612957             -17.9948
        28        1.9999           -0.6372846             -17.3414
        29        1.9998           -0.6333346             -17.2339
        30        1.9998           -0.6296036             -17.1324
        31        1.9996           -0.6211560             -16.9025
        32        1.9986           -0.6002340             -16.3332
        33        1.9976           -0.5913982             -16.0928
        34        1.9967           -0.5866857             -15.9645
        35        1.9879           -0.5658647             -15.3980
        36        1.9868           -0.5644451             -15.3593
        37        1.0866           -0.4878359             -13.2747 (HOMO)
        38        0.8381           -0.4799138             -13.0591 (LUMO)
        39        0.0968           -0.4379296             -11.9167
        40        0.0098           -0.4010298             -10.9126
        41        0.0019           -0.3752529             -10.2112
        42        0.0000           -0.2904113              -7.9025
        43                         -0.2152389              -5.8569
        44                         -0.2021968              -5.5021
        45                         -0.1524770              -4.1491
        46                         -0.1363201              -3.7095
        47                         -0.0701618              -1.9092
        48                         -0.0418906              -1.1399
       ...                                ...                  ...
        67                          0.5544653              15.0878
      -------------------------------------------------------------
                  HL-Gap            0.0079220 Eh            0.2156 eV

     #   Z          covCN         q      C6AA      α(0)
     1   6 C        3.691    -0.097    22.539     6.794
     2   7 N        2.831     0.086    19.750     6.600
     3   6 C        3.052     0.054    26.736     8.480
     4   7 N        2.790    -0.057    22.331     7.019
     5   6 C        3.038     0.093    25.898     8.347
     6   6 C        3.114    -0.016    28.249     8.707
     7   6 C        2.763     0.267    22.493     7.767
     8   8 O        0.858    -0.364    20.978     6.141
     9   7 N        2.744    -0.078    22.750     7.084
    10   6 C        3.713    -0.065    21.873     6.682
    11   6 C        2.734     0.311    21.722     7.631
    12   8 O        0.859    -0.336    20.443     6.062
    13   7 N        2.735     0.009    21.099     6.822
    14   6 C        2.797    -0.057    29.391     8.881
    15   1 H        0.924     0.111     1.688     2.032
    16   1 H        0.925     0.107     1.721     2.052
    17   1 H        0.925     0.139     1.465     1.893
    18   1 H        0.926     0.128     1.548     1.945
    19   1 H        0.925     0.117     1.641     2.003
    20   1 H        0.925     0.099     1.796     2.096
    21   1 H        0.925     0.100     1.789     2.092
    22   1 H        0.927     0.090     1.879     2.143
    23   1 H        0.000    -0.008     7.960     5.159
    24   1 H        0.926     0.135     1.497     1.913
    25   1 H        0.860     0.230     0.965     1.539

Wiberg/Mayer (AO) data.
largest (>0.10) Wiberg bond orders for each atom

     #   Z sym  total        # sym  WBO       # sym  WBO       # sym  WBO
 ---------------------------------------------------------------------------
     1   6 C    3.912 --     2 N    0.984    16 H    0.962    17 H    0.959
                            15 H    0.955
     2   7 N    3.674 --     3 C    1.386     6 C    1.165     1 C    0.984
     3   6 C    3.843 --     2 N    1.386     4 N    1.288    18 H    0.951
     4   7 N    3.555 --     3 C    1.288     5 C    1.166    25 H    0.918
     5   6 C    3.886 --     6 C    1.340     4 N    1.166    13 N    1.164
     6   6 C    3.858 --     5 C    1.340     2 N    1.165     7 C    1.074
     7   6 C    3.917 --     8 O    1.676     9 N    1.081     6 C    1.074
     8   8 O    1.989 --     7 C    1.676     9 N    0.138
     9   7 N    3.569 --    11 C    1.171     7 C    1.081    10 C    0.962
                            12 O    0.151     8 O    0.138
    10   6 C    3.910 --    19 H    0.967    21 H    0.966    20 H    0.965
                             9 N    0.962
    11   6 C    3.925 --    12 O    1.729     9 N    1.171    13 N    0.931
    12   8 O    2.057 --    11 C    1.729     9 N    0.151
    13   7 N    3.623 --    14 C    1.304     5 C    1.164    11 C    0.931
    14   6 C    3.350 --    13 N    1.304    22 H    0.969    24 H    0.957
    15   1 H    0.984 --     1 C    0.955
    16   1 H    0.986 --     1 C    0.962
    17   1 H    0.980 --     1 C    0.959
    18   1 H    0.982 --     3 C    0.951
    19   1 H    0.985 --    10 C    0.967
    20   1 H    0.986 --    10 C    0.965
    21   1 H    0.986 --    10 C    0.966
    22   1 H    0.991 --    14 C    0.969
    23   1 H    0.015
    24   1 H    0.981 --    14 C    0.957
    25   1 H    0.946 --     4 N    0.918
 ---------------------------------------------------------------------------

molecular dipole:
                 x           y           z       tot (Debye)
 q only:        2.703      -1.630       0.204
   full:        2.979      -2.217       0.221       9.455

           -------------------------------------------------
          | TOTAL ENERGY              -42.103017666029 Eh   |
          | GRADIENT NORM               0.003427067354 Eh/α |
          | HOMO-LUMO GAP               0.215569735771 eV   |
           -------------------------------------------------

 * finished run on 2024/06/05 at 19:57:54.217
