   * xtb version 6.6.1 (8d0f1dd) compiled by 'conda@1efc2f54142f' on 2023-08-01
          program call               : xtb xtbopt.xyz --opt crude --input .xc2 --gfn2

   ID    Z sym.   atoms
    1    6 C      1, 3, 5-7, 10, 11, 14
    2    7 N      2, 4, 9, 13
    3    8 O      8, 12
    4    1 H      15-25
########################################################################
[WARNING] Please study the warnings concerning your input carefully
-1- readin_getIntValue: could not parse ''
########################################################################

          :  Hamiltonian                  GFN2-xTB          :
 * total energy  :   -40.3072971 Eh     change       -0.7105427E-12 Eh
 * total energy  :   -42.1407898 Eh     change       -0.1833493E+01 Eh
 * total energy  :   -42.1593028 Eh     change       -0.1851301E-01 Eh
 * total energy  :   -42.1608701 Eh     change       -0.1567297E-02 Eh
 * total energy  :   -42.1616578 Eh     change       -0.7877010E-03 Eh
 * total energy  :   -42.1622617 Eh     change       -0.6039076E-03 Eh
 * total energy  :   -42.1632592 Eh     change       -0.9974226E-03 Eh
 * total energy  :   -42.1639578 Eh     change       -0.6986691E-03 Eh
 * total energy  :   -42.1642962 Eh     change       -0.3383624E-03 Eh
 * total energy  :   -42.1644126 Eh     change       -0.1164357E-03 Eh
   *** GEOMETRY OPTIMIZATION CONVERGED AFTER 10 ITERATIONS ***

 final structure:
================
25
 xtb: 6.6.1 (8d0f1dd)
C            3.25736503176834        1.05768637387660        0.01739308053349
N            2.31337000268918       -0.02417502832674       -0.01637321597477
C            2.57935516440199       -1.32582642999229        0.01235543755860
N            1.42294193760029       -2.03586064580584       -0.00612474097984
C            0.39272701904986       -1.15125330420611       -0.04603714798063
C            0.94594395894742        0.13383701872904       -0.05144845460567
C            0.14647507557468        1.28801981578958       -0.07453582969534
O           -1.72661775718523        3.02173834638253        1.00619547784206
N           -1.16397999579897        1.02183476483972       -0.09715125303441
C           -2.07364654981750        2.19285165215803       -0.02999189303399
C           -1.78840123175655       -0.23206654519808       -0.13014606972553
O           -2.97666358901187       -0.36972590380272       -0.20015637463289
N           -0.93238953762884       -1.35244716180888       -0.08573638839980
C           -1.51395098967917       -2.68064755098703       -0.08232546783653
H            3.67309863888980        1.16962985536208        1.02015486394557
H            4.07144110423984        0.87618840657504       -0.68282935307064
H            2.73444555815361        1.97334983417169       -0.25137644159021
H            3.55824747722989       -1.76064838480458        0.04344730839808
H           -2.04392592602207        2.68863256335345       -1.00705086533883
H           -3.08137605967332        1.81568065153108        0.16582129572947
H           -0.97298231402927        3.57609355290835        0.76436987444189
H           -1.22628200970938       -3.21829128672657        0.82144717805008
H           -1.20005845223292       -3.23601840522320       -0.96663575283536
H           -2.59697439795676       -2.56591115882490       -0.10058838465106
H            1.36226935605705       -3.04443248836967        0.00849473478450

          :  Hamiltonian                  GFN2-xTB          :
         :: total energy             -42.164412631946 Eh    ::
         :: gradient norm              0.004404142512 Eh/a0 ::
         :: HOMO-LUMO gap              1.765522435634 eV    ::
         :: SCC energy               -42.672285830844 Eh    ::
         :: -> dispersion             -0.022158150047 Eh    ::
         :: repulsion energy           0.507765779466 Eh    ::

    * Orbital Energies and Occupations

         #    Occupation            Energy/Eh            Energy/eV
      -------------------------------------------------------------
         1        2.0000           -0.9056272             -24.6434
       ...           ...                  ...                  ...
        25        2.0000           -0.6654660             -18.1083
        26        2.0000           -0.6612380             -17.9932
        27        2.0000           -0.6467298             -17.5984
        28        1.9999           -0.6348571             -17.2753
        29        1.9999           -0.6300689             -17.1450
        30        1.9998           -0.6237112             -16.9720
        31        1.9998           -0.6191937             -16.8491
        32        1.9995           -0.6089751             -16.5711
        33        1.9981           -0.5867935             -15.9675
        34        1.9947           -0.5703054             -15.5188
        35        1.9893           -0.5591155             -15.2143
        36        1.9850           -0.5537744             -15.0690
        37        1.7757           -0.5091419             -13.8545 (HOMO)
        38        0.2325           -0.4442601             -12.0889 (LUMO)
        39        0.0230           -0.4058230             -11.0430
        40        0.0028           -0.3723974             -10.1334
        41        0.0000           -0.2856832              -7.7738
        42                         -0.2016713              -5.4878
        43                         -0.1921948              -5.2299
        44                         -0.1380731              -3.7572
        45                         -0.1215424              -3.3073
        46                         -0.0737943              -2.0080
        47                         -0.0450024              -1.2246
        48                         -0.0383871              -1.0446
       ...                                ...                  ...
        67                          0.5379891              14.6394
      -------------------------------------------------------------
                  HL-Gap            0.0648818 Eh            1.7655 eV

     #   Z          covCN         q      C6AA      α(0)
     1   6 C        3.692    -0.089    22.397     6.772
     2   7 N        2.828     0.068    20.051     6.651
     3   6 C        3.052     0.051    26.816     8.493
     4   7 N        2.784    -0.062    22.445     7.036
     5   6 C        3.048     0.115    25.426     8.270
     6   6 C        3.122     0.022    27.342     8.563
     7   6 C        1.923    -0.115    34.312     9.460
     8   8 O        1.658    -0.387    20.598     6.127
     9   7 N        2.757    -0.032    21.863     6.945
    10   6 C        3.632     0.129    18.842     6.249
    11   6 C        2.722     0.314    21.670     7.621
    12   8 O        0.859    -0.364    20.965     6.139
    13   7 N        2.739    -0.044    22.097     6.982
    14   6 C        3.697    -0.071    22.027     6.713
    15   1 H        0.924     0.108     1.716     2.049
    16   1 H        0.925     0.103     1.756     2.072
    17   1 H        0.925     0.120     1.610     1.984
    18   1 H        0.926     0.118     1.631     1.997
    19   1 H        0.924     0.068     2.106     2.269
    20   1 H        0.924     0.111     1.686     2.030
    21   1 H        0.805     0.323     0.654     1.271
    22   1 H        0.924     0.082     1.958     2.188
    23   1 H        0.924     0.082     1.959     2.189
    24   1 H        0.925     0.125     1.570     1.960
    25   1 H        0.860     0.224     0.991     1.559

Wiberg/Mayer (AO) data.
largest (>0.10) Wiberg bond orders for each atom

     #   Z sym  total        # sym  WBO       # sym  WBO       # sym  WBO
 ---------------------------------------------------------------------------
     1   6 C    3.925 --     2 N    0.990    17 H    0.969    16 H    0.966
                            15 H    0.956
     2   7 N    3.647 --     3 C    1.387     6 C    1.135     1 C    0.990
     3   6 C    3.807 --     2 N    1.387     4 N    1.256    18 H    0.955
     4   7 N    3.585 --     3 C    1.256     5 C    1.203    25 H    0.919
     5   6 C    3.907 --     6 C    1.281    13 N    1.230     4 N    1.203
     6   6 C    3.898 --     5 C    1.281     7 C    1.238     2 N    1.135
     7   6 C    2.782 --     9 N    1.358     6 C    1.238
     8   8 O    2.019 --    10 C    1.059    21 H    0.878
     9   7 N    3.597 --     7 C    1.358    11 C    1.074    10 C    0.915
                            12 O    0.116
    10   6 C    3.915 --     8 O    1.059    19 H    0.951    20 H    0.951
                             9 N    0.915
    11   6 C    3.937 --    12 O    1.713     9 N    1.074    13 N    1.050
    12   8 O    2.053 --    11 C    1.713    13 N    0.131     9 N    0.116
    13   7 N    3.563 --     5 C    1.230    11 C    1.050    14 C    0.974
                            12 O    0.131
    14   6 C    3.925 --    13 N    0.974    22 H    0.970    23 H    0.970
                            24 H    0.965
    15   1 H    0.984 --     1 C    0.956
    16   1 H    0.986 --     1 C    0.966
    17   1 H    0.985 --     1 C    0.969
    18   1 H    0.985 --     3 C    0.955
    19   1 H    0.988 --    10 C    0.951
    20   1 H    0.985 --    10 C    0.951
    21   1 H    0.895 --     8 O    0.878
    22   1 H    0.991 --    14 C    0.970
    23   1 H    0.991 --    14 C    0.970
    24   1 H    0.984 --    14 C    0.965
    25   1 H    0.949 --     4 N    0.919
 ---------------------------------------------------------------------------

molecular dipole:
                 x           y           z       tot (Debye)
 q only:        3.046      -1.260      -0.301
   full:        3.355      -2.026      -0.465      10.032

           -------------------------------------------------
          | TOTAL ENERGY              -42.164412631946 Eh   |
          | GRADIENT NORM               0.004404142512 Eh/α |
          | HOMO-LUMO GAP               1.765522435634 eV   |
           -------------------------------------------------

 * finished run on 2024/06/05 at 20:00:29.713
