   * xtb version 6.6.1 (8d0f1dd) compiled by 'conda@1efc2f54142f' on 2023-08-01
          program call               : xtb xtbopt.xyz --opt crude --input .xc2 --gfn2

   ID    Z sym.   atoms
    1    6 C      1, 3, 5-7, 10, 11, 14
    2    7 N      2, 4, 9, 13
    3    8 O      8, 12
    4    1 H      15-25

          :  Hamiltonian                  GFN2-xTB          :
 * total energy  :   -42.1379097 Eh     change       -0.2202682E-12 Eh
   *** GEOMETRY OPTIMIZATION CONVERGED AFTER 1 ITERATIONS ***

 final structure:
================
25
 xtb: 6.6.1 (8d0f1dd)
C            3.16782590265399        1.16953088225293       -0.06957004261514
N            2.22615464537886        0.08394374718679       -0.06678587692138
C            2.50838465802544       -1.21908084718591       -0.16269886220715
N            1.36067442369869       -1.94270718083555       -0.10176765813581
C            0.32043607103295       -1.07186813808916        0.04004164227534
C            0.85952725009831        0.21130587469559        0.06195742771960
C            0.04681520076065        1.38193515368947        0.16664059577138
O            0.41158404268936        2.53930843231603        0.16934350146474
N           -1.34767847880451        1.04547965464939        0.27432831951383
C           -2.21547882509574        2.06963364236961        0.33792241049592
C           -1.89273388013928       -0.26577887931515        0.30429072351839
O           -3.07268660451780       -0.44706285779802        0.44932368591286
N           -1.00109156711858       -1.32748977671846        0.14927592298160
C           -1.52347231721353       -2.68012680751307        0.12398441528607
H            3.73352910915711        1.18522986113964        0.86401845341287
H            3.86481585250492        1.06324275407940       -0.90030306520893
H            2.62234001796301        2.10806572435570       -0.16355481363583
H            3.48808231392470       -1.63726338984186       -0.27194211874124
H           -1.81490178857862        3.06716302271650        0.32847182737832
H           -1.62390365493363        2.62476511662860       -2.22223488947750
H           -3.25481861677394        1.85285809919193        0.51547057956652
H           -1.08490120224459       -3.27422637644826        0.92621776673016
H           -1.32397068237987       -3.14685082943755       -0.84110242256291
H           -2.60079539049435       -2.62253706424383        0.27324664056014
H            1.30669503449599       -2.94923127625041       -0.15340254518272

          :  Hamiltonian                  GFN2-xTB          :
         :: total energy             -42.137909700130 Eh    ::
         :: gradient norm              0.004994615839 Eh/a0 ::
         :: HOMO-LUMO gap              0.641731741961 eV    ::
         :: SCC energy               -42.653610230163 Eh    ::
         :: -> dispersion             -0.023249887269 Eh    ::
         :: repulsion energy           0.515540806168 Eh    ::

    * Orbital Energies and Occupations

         #    Occupation            Energy/Eh            Energy/eV
      -------------------------------------------------------------
         1        2.0000           -0.9099255             -24.7603
       ...           ...                  ...                  ...
        25        1.9994           -0.6750889             -18.3701
        26        1.9993           -0.6715865             -18.2748
        27        1.9991           -0.6669899             -18.1497
        28        1.9966           -0.6349197             -17.2770
        29        1.9963           -0.6326827             -17.2162
        30        1.9960           -0.6311014             -17.1731
        31        1.9939           -0.6210537             -16.8997
        32        1.9928           -0.6169805             -16.7889
        33        1.9924           -0.6157548             -16.7555
        34        1.9780           -0.5902669             -16.0620
        35        1.9529           -0.5718220             -15.5601
        36        1.9270           -0.5611219             -15.2689
        37        1.1860           -0.4923110             -13.3965 (HOMO)
        38        0.7011           -0.4687278             -12.7547 (LUMO)
        39        0.2051           -0.4318457             -11.7511
        40        0.0635           -0.4021990             -10.9444
        41        0.0218           -0.3762945             -10.2395
        42        0.0006           -0.2912911              -7.9264
        43        0.0000           -0.2111289              -5.7451
        44        0.0000           -0.1984495              -5.4001
        45        0.0000           -0.1529260              -4.1613
        46        0.0000           -0.1477284              -4.0199
        47                         -0.0803264              -2.1858
        48                         -0.0552422              -1.5032
       ...                                ...                  ...
        67                          0.5374832              14.6257
      -------------------------------------------------------------
                  HL-Gap            0.0235832 Eh            0.6417 eV

     #   Z          covCN         q      C6AA      α(0)
     1   6 C        3.691    -0.092    22.458     6.782
     2   7 N        2.823     0.073    19.976     6.638
     3   6 C        3.039     0.042    27.016     8.525
     4   7 N        2.785    -0.061    22.415     7.032
     5   6 C        3.033     0.104    25.671     8.311
     6   6 C        3.101    -0.019    28.340     8.724
     7   6 C        2.776     0.253    22.750     7.812
     8   8 O        0.857    -0.349    20.684     6.098
     9   7 N        2.741    -0.028    21.790     6.933
    10   6 C        2.815    -0.015    28.377     8.728
    11   6 C        2.736     0.307    21.785     7.642
    12   8 O        0.859    -0.343    20.569     6.081
    13   7 N        2.736    -0.044    22.095     6.981
    14   6 C        3.698    -0.074    22.086     6.722
    15   1 H        0.924     0.109     1.706     2.042
    16   1 H        0.925     0.106     1.731     2.057
    17   1 H        0.925     0.134     1.501     1.916
    18   1 H        0.926     0.123     1.592     1.973
    19   1 H        0.926     0.141     1.451     1.884
    20   1 H        0.000    -0.038     9.482     5.631
    21   1 H        0.926     0.135     1.496     1.912
    22   1 H        0.924     0.088     1.903     2.157
    23   1 H        0.924     0.089     1.885     2.147
    24   1 H        0.925     0.130     1.536     1.938
    25   1 H        0.860     0.228     0.975     1.546

Wiberg/Mayer (AO) data.
largest (>0.10) Wiberg bond orders for each atom

     #   Z sym  total        # sym  WBO       # sym  WBO       # sym  WBO
 ---------------------------------------------------------------------------
     1   6 C    3.908 --     2 N    0.989    16 H    0.961    17 H    0.958
                            15 H    0.953
     2   7 N    3.607 --     3 C    1.346     6 C    1.145     1 C    0.989
     3   6 C    3.743 --     2 N    1.346     4 N    1.250    18 H    0.954
     4   7 N    3.546 --     3 C    1.250     5 C    1.190    25 H    0.920
     5   6 C    3.862 --     6 C    1.312     4 N    1.190    13 N    1.185
     6   6 C    3.868 --     5 C    1.312     2 N    1.145     7 C    1.122
     7   6 C    3.843 --     8 O    1.656     6 C    1.122     9 N    0.982
     8   8 O    1.915 --     7 C    1.656
     9   7 N    3.582 --    10 C    1.325    11 C    1.022     7 C    0.982
    10   6 C    3.351 --     9 N    1.325    21 H    0.956    19 H    0.952
    11   6 C    3.884 --    12 O    1.690    13 N    1.082     9 N    1.022
    12   8 O    1.983 --    11 C    1.690    13 N    0.124
    13   7 N    3.526 --     5 C    1.185    11 C    1.082    14 C    0.973
                            12 O    0.124
    14   6 C    3.913 --    13 N    0.973    22 H    0.967    23 H    0.966
                            24 H    0.961
    15   1 H    0.978 --     1 C    0.953
    16   1 H    0.981 --     1 C    0.961
    17   1 H    0.979 --     1 C    0.958
    18   1 H    0.984 --     3 C    0.954
    19   1 H    0.976 --    10 C    0.952
    20   1 H    0.061
    21   1 H    0.977 --    10 C    0.956
    22   1 H    0.985 --    14 C    0.967
    23   1 H    0.984 --    14 C    0.966
    24   1 H    0.980 --    14 C    0.961
    25   1 H    0.947 --     4 N    0.920
 ---------------------------------------------------------------------------

molecular dipole:
                 x           y           z       tot (Debye)
 q only:        2.242      -2.059       0.090
   full:        2.458      -2.486       0.047       8.886

           -------------------------------------------------
          | TOTAL ENERGY              -42.137909700130 Eh   |
          | GRADIENT NORM               0.004994615839 Eh/α |
          | HOMO-LUMO GAP               0.641731741961 eV   |
           -------------------------------------------------

 * finished run on 2024/06/05 at 19:58:56.684
