   * xtb version 6.6.1 (8d0f1dd) compiled by 'conda@1efc2f54142f' on 2023-08-01
          program call               : xtb struc.xyz --opt loose --input .xc1 --gfn2

   ID    Z sym.   atoms
    1    6 C      1, 3, 5-7, 10, 11, 14
    2    7 N      2, 4, 9, 13
    3    8 O      8, 12
    4    1 H      15-25
constraining bond 9 13 to    4.8400000 Å, actual value:    2.3869999 Å

          :  Hamiltonian                  GFN2-xTB          :
 * total energy  :     0.7278244 Eh     change       -0.6650680E-10 Eh
 * total energy  :   -19.5558452 Eh     change       -0.2028367E+02 Eh
 * total energy  :   -31.3994919 Eh     change       -0.1184365E+02 Eh
 * total energy  :   -37.9235340 Eh     change       -0.6524042E+01 Eh
 * total energy  :   -40.9073145 Eh     change       -0.2983781E+01 Eh
 * total energy  :   -41.4354625 Eh     change       -0.5281480E+00 Eh
 * total energy  :   -41.5002531 Eh     change       -0.6479053E-01 Eh
 * total energy  :   -41.5954934 Eh     change       -0.9524036E-01 Eh
 * total energy  :   -41.6468351 Eh     change       -0.5134166E-01 Eh
 * total energy  :   -41.6753841 Eh     change       -0.2854905E-01 Eh
 * total energy  :   -42.0982874 Eh     change       -0.1400482E-03 Eh
 * total energy  :   -42.0983955 Eh     change       -0.1080494E-03 Eh
 * total energy  :   -42.0985418 Eh     change       -0.1463174E-03 Eh
 * total energy  :   -42.0986699 Eh     change       -0.1280761E-03 Eh
 * total energy  :   -42.0987975 Eh     change       -0.1276239E-03 Eh
 * total energy  :   -42.0989408 Eh     change       -0.1432471E-03 Eh
 * total energy  :   -42.0990077 Eh     change       -0.6699289E-04 Eh
 * total energy  :   -42.0990449 Eh     change       -0.3712282E-04 Eh
 * total energy  :   -42.0990828 Eh     change       -0.3791622E-04 Eh
   *** GEOMETRY OPTIMIZATION CONVERGED AFTER 102 ITERATIONS ***

 final structure:
================
25
 xtb: 6.6.1 (8d0f1dd)
C            2.06177291622060        1.53421779381814       -0.31098111193087
N            1.64523480209221        0.15257290518586       -0.31459523009157
C            2.44673860621049       -0.81839010537826       -0.72114587767208
N            1.87906660618591       -1.99757308195798       -0.50109415842891
C            0.63686805436174       -1.84992537596595        0.12793575970442
C            0.47392248068089       -0.39004190309753        0.20946855906054
C           -0.58638302755534        0.38808549906537        0.80746912467326
O           -1.40067866401759       -0.09052754221942        1.57485425566004
N           -0.67365365724847        1.82295668763376        0.53757850097774
C           -1.11193129400791        2.24359640666572       -0.78396253987554
C           -2.47549790954358        1.82691796070831       -1.03158586201741
O           -3.47435997540604        1.28838696837451       -0.80607929154985
N            0.05026856713401       -2.95874009200519        0.42031862408555
C           -1.19325966918747       -3.13802538325617        1.06272405450457
H            1.52004561872030        2.08296595165891        0.45602000203642
H            3.12979528712516        1.58369389673665       -0.10145069135304
H            1.88396956743698        1.99937488527235       -1.28228400184877
H            3.41891334728782       -0.66623670539264       -1.15036090822448
H           -1.25437633230747        2.22299294180577        1.27193499728229
H           -0.46877170773110        1.80773175816085       -1.55769788217541
H           -1.03954586652199        3.33625453253206       -0.85672663525637
H           -1.08204374701771       -3.96032127698031        1.77293425011109
H           -1.93591902984918       -3.44886420689374        0.32143904299147
H           -1.55489956568097       -2.24232117306410        1.57800858708095
H            2.26515610673426       -2.91054279987045       -0.69154994985106

          :  Hamiltonian                  GFN2-xTB          :
         :: total energy             -42.099082786302 Eh    ::
         :: gradient norm              0.002128493121 Eh/a0 ::
         :: HOMO-LUMO gap              1.180615982807 eV    ::
         :: SCC energy               -42.619124317338 Eh    ::
         :: -> dispersion             -0.021670524878 Eh    ::
         :: repulsion energy           0.519752380830 Eh    ::

    * Orbital Energies and Occupations

         #    Occupation            Energy/Eh            Energy/eV
      -------------------------------------------------------------
         1        2.0000           -0.9277336             -25.2449
       ...           ...                  ...                  ...
        25        2.0000           -0.6660999             -18.1255
        26        2.0000           -0.6534375             -17.7809
        27        2.0000           -0.6424962             -17.4832
        28        1.9999           -0.6413885             -17.4531
        29        1.9999           -0.6330091             -17.2251
        30        1.9999           -0.6299237             -17.1411
        31        1.9995           -0.6041026             -16.4385
        32        1.9992           -0.5981552             -16.2766
        33        1.9963           -0.5735385             -15.6068
        34        1.9960           -0.5721885             -15.5700
        35        1.9786           -0.5454278             -14.8418
        36        1.8058           -0.5090345             -13.8515
        37        1.6141           -0.4963860             -13.5074 (HOMO)
        38        0.4253           -0.4529992             -12.3267 (LUMO)
        39        0.1419           -0.4329929             -11.7823
        40        0.0413           -0.4126081             -11.2276
        41        0.0022           -0.3660804              -9.9616
        42        0.0000           -0.3006675              -8.1816
        43                         -0.1762434              -4.7958
        44                         -0.1684705              -4.5843
        45                         -0.1223668              -3.3298
        46                         -0.0738187              -2.0087
        47                         -0.0652394              -1.7753
        48                         -0.0607558              -1.6532
       ...                                ...                  ...
        67                          0.7175599              19.5258
      -------------------------------------------------------------
                  HL-Gap            0.0433868 Eh            1.1806 eV

     #   Z          covCN         q      C6AA      α(0)
     1   6 C        3.696    -0.092    22.436     6.776
     2   7 N        2.817     0.049    20.376     6.704
     3   6 C        2.967     0.067    26.487     8.442
     4   7 N        2.802    -0.070    22.595     7.060
     5   6 C        2.931     0.140    24.950     8.192
     6   6 C        3.032    -0.038    28.916     8.820
     7   6 C        2.747     0.260    22.617     7.787
     8   8 O        0.858    -0.383    21.340     6.194
     9   7 N        2.683    -0.233    26.102     7.588
    10   6 C        3.738    -0.001    20.674     6.488
    11   6 C        1.842     0.222    25.945     8.229
    12   8 O        0.856    -0.075    16.147     5.388
    13   7 N        1.838    -0.194    26.039     7.562
    14   6 C        3.693    -0.045    21.566     6.645
    15   1 H        0.925     0.113     1.669     2.020
    16   1 H        0.925     0.099     1.799     2.097
    17   1 H        0.924     0.088     1.901     2.156
    18   1 H        0.926     0.109     1.705     2.042
    19   1 H        0.860     0.204     1.088     1.634
    20   1 H        0.924     0.125     1.573     1.962
    21   1 H        0.924     0.139     1.465     1.893
    22   1 H        0.924     0.097     1.809     2.103
    23   1 H        0.924     0.092     1.862     2.134
    24   1 H        0.924     0.095     1.828     2.114
    25   1 H        0.860     0.231     0.963     1.537

Wiberg/Mayer (AO) data.
largest (>0.10) Wiberg bond orders for each atom

     #   Z sym  total        # sym  WBO       # sym  WBO       # sym  WBO
 ---------------------------------------------------------------------------
     1   6 C    3.933 --     2 N    0.988    16 H    0.970    17 H    0.963
                            15 H    0.961
     2   7 N    3.657 --     3 C    1.379     6 C    1.129     1 C    0.988
                             4 N    0.103
     3   6 C    3.881 --     2 N    1.379     4 N    1.342    18 H    0.952
     4   7 N    3.555 --     3 C    1.342     5 C    1.084    25 H    0.918
                             2 N    0.103
     5   6 C    3.936 --    13 N    1.564     6 C    1.140     4 N    1.084
     6   6 C    3.732 --     7 C    1.154     5 C    1.140     2 N    1.129
     7   6 C    3.916 --     8 O    1.682     6 C    1.154     9 N    0.992
     8   8 O    1.974 --     7 C    1.682     9 N    0.102
     9   7 N    3.170 --     7 C    0.992    10 C    0.980    19 H    0.932
                             8 O    0.102
    10   6 C    3.949 --    11 C    1.066     9 N    0.980    20 H    0.916
                            21 H    0.915
    11   6 C    3.334 --    12 O    2.159    10 C    1.066
    12   8 O    2.293 --    11 C    2.159
    13   7 N    2.828 --     5 C    1.564    14 C    1.067
    14   6 C    3.902 --    13 N    1.067    22 H    0.940    24 H    0.927
                            23 H    0.927
    15   1 H    0.987 --     1 C    0.961
    16   1 H    0.989 --     1 C    0.970
    17   1 H    0.990 --     1 C    0.963
    18   1 H    0.986 --     3 C    0.952
    19   1 H    0.958 --     9 N    0.932
    20   1 H    0.974 --    10 C    0.916
    21   1 H    0.969 --    10 C    0.915
    22   1 H    0.961 --    14 C    0.940
    23   1 H    0.956 --    14 C    0.927
    24   1 H    0.948 --    14 C    0.927
    25   1 H    0.946 --     4 N    0.918
 ---------------------------------------------------------------------------

molecular dipole:
                 x           y           z       tot (Debye)
 q only:        1.780       0.934      -1.635
   full:        1.820       1.162      -1.765       7.089

           -------------------------------------------------
          | TOTAL ENERGY              -42.099082786302 Eh   |
          | GRADIENT NORM               0.002128493121 Eh/α |
          | HOMO-LUMO GAP               1.180615982807 eV   |
           -------------------------------------------------

 * finished run on 2024/06/05 at 20:00:17.943
