   * xtb version 6.6.1 (8d0f1dd) compiled by 'conda@1efc2f54142f' on 2023-08-01
          program call               : xtb xtbopt.xyz --opt crude --input .xc2 --gfn2

   ID    Z sym.   atoms
    1    6 C      1, 3, 5-7, 10, 11, 14
    2    7 N      2, 4, 9, 13
    3    8 O      8, 12
    4    1 H      15-25
########################################################################
[WARNING] Please study the warnings concerning your input carefully
-1- readin_getIntValue: could not parse ''
########################################################################

          :  Hamiltonian                  GFN2-xTB          :
 * total energy  :   -42.0991237 Eh     change       -0.1460165E-10 Eh
 * total energy  :   -42.1014733 Eh     change       -0.2349654E-02 Eh
 * total energy  :   -42.1024207 Eh     change       -0.9473849E-03 Eh
 * total energy  :   -42.1026285 Eh     change       -0.2077769E-03 Eh
   *** GEOMETRY OPTIMIZATION CONVERGED AFTER 4 ITERATIONS ***

 final structure:
================
25
 xtb: 6.6.1 (8d0f1dd)
C            2.08113377034526        1.55679958636629       -0.31623336100800
N            1.67318909634972        0.17338243172665       -0.31707372682078
C            2.46878213607757       -0.80387822313236       -0.72513483528754
N            1.89411102874566       -1.98264651440585       -0.50652231643788
C            0.65300662104062       -1.80800941924406        0.12069293435570
C            0.50978097077186       -0.37408809657924        0.21255299729867
C           -0.57250617091041        0.33016161501453        0.83323654492459
O           -1.35530717429762       -0.17006520041205        1.62089852638738
N           -0.69267335233130        1.72161311673400        0.54247023974003
C           -1.11168213718983        2.15768474714480       -0.78258500125857
C           -2.48278212398911        1.77909079101514       -1.04057981069990
O           -3.51761570586327        1.32159449147785       -0.78785532435983
N            0.00227678819296       -2.86609931169975        0.41269606286164
C           -1.23521261379060       -3.06372080583443        1.05153052498705
H            1.53925553939321        2.09951010473067        0.45433551588469
H            3.14912820420682        1.61483503887798       -0.11169817574565
H            1.89319763603491        2.02180887139487       -1.28538680072176
H            3.44028509354929       -0.65707718351997       -1.15693560966694
H           -1.26893007417315        2.14404618892435        1.26875653477821
H           -0.46745932782613        1.72090684846512       -1.55391622663624
H           -1.02235010430715        3.25058741963499       -0.84441745483831
H           -1.11149169437329       -3.89272706904188        1.75308877834828
H           -1.97257810151528       -3.37603934523024        0.30656443122852
H           -1.60608338183905       -2.18137424620772        1.58102833477607
H            2.27295659181370       -2.89805729466308       -0.69834116419664

          :  Hamiltonian                  GFN2-xTB          :
         :: total energy             -42.102628501956 Eh    ::
         :: gradient norm              0.006941423003 Eh/a0 ::
         :: HOMO-LUMO gap              1.178351346596 eV    ::
         :: SCC energy               -42.633974253887 Eh    ::
         :: -> dispersion             -0.021821794341 Eh    ::
         :: repulsion energy           0.531094844547 Eh    ::

    * Orbital Energies and Occupations

         #    Occupation            Energy/Eh            Energy/eV
      -------------------------------------------------------------
         1        2.0000           -0.9246720             -25.1616
       ...           ...                  ...                  ...
        25        2.0000           -0.6664250             -18.1343
        26        2.0000           -0.6552274             -17.8296
        27        2.0000           -0.6431022             -17.4997
        28        1.9999           -0.6393842             -17.3985
        29        1.9999           -0.6329293             -17.2229
        30        1.9999           -0.6309598             -17.1693
        31        1.9995           -0.6044449             -16.4478
        32        1.9994           -0.6009073             -16.3515
        33        1.9970           -0.5753043             -15.6548
        34        1.9959           -0.5704846             -15.5237
        35        1.9789           -0.5443854             -14.8135
        36        1.7605           -0.5040341             -13.7155
        37        1.6357           -0.4962264             -13.5030 (HOMO)
        38        0.4513           -0.4529228             -12.3247 (LUMO)
        39        0.1385           -0.4313086             -11.7365
        40        0.0413           -0.4113438             -11.1932
        41        0.0021           -0.3637020              -9.8968
        42        0.0000           -0.2935726              -7.9885
        43                         -0.1746757              -4.7532
        44                         -0.1489245              -4.0524
        45                         -0.1231804              -3.3519
        46                         -0.0650698              -1.7706
        47                         -0.0635755              -1.7300
        48                         -0.0490037              -1.3335
       ...                                ...                  ...
        67                          0.7096398              19.3103
      -------------------------------------------------------------
                  HL-Gap            0.0433036 Eh            1.1784 eV

     #   Z          covCN         q      C6AA      α(0)
     1   6 C        3.695    -0.091    22.413     6.773
     2   7 N        2.819     0.051    20.357     6.701
     3   6 C        2.983     0.067    26.486     8.442
     4   7 N        2.800    -0.073    22.662     7.070
     5   6 C        2.942     0.142    24.904     8.185
     6   6 C        3.051    -0.041    28.969     8.827
     7   6 C        2.750     0.265    22.537     7.773
     8   8 O        0.859    -0.390    21.486     6.215
     9   7 N        2.687    -0.227    25.970     7.569
    10   6 C        3.738    -0.002    20.703     6.493
    11   6 C        1.842     0.219    26.012     8.239
    12   8 O        0.856    -0.080    16.221     5.400
    13   7 N        1.834    -0.191    25.951     7.549
    14   6 C        3.689    -0.047    21.617     6.654
    15   1 H        0.925     0.111     1.688     2.032
    16   1 H        0.925     0.099     1.796     2.095
    17   1 H        0.924     0.088     1.898     2.154
    18   1 H        0.926     0.109     1.708     2.044
    19   1 H        0.860     0.203     1.090     1.635
    20   1 H        0.924     0.123     1.586     1.969
    21   1 H        0.923     0.140     1.463     1.891
    22   1 H        0.924     0.099     1.793     2.094
    23   1 H        0.924     0.092     1.861     2.133
    24   1 H        0.924     0.106     1.727     2.055
    25   1 H        0.860     0.229     0.972     1.544

Wiberg/Mayer (AO) data.
largest (>0.10) Wiberg bond orders for each atom

     #   Z sym  total        # sym  WBO       # sym  WBO       # sym  WBO
 ---------------------------------------------------------------------------
     1   6 C    3.935 --     2 N    0.989    16 H    0.970    15 H    0.964
                            17 H    0.963
     2   7 N    3.657 --     3 C    1.379     6 C    1.126     1 C    0.989
                             4 N    0.104
     3   6 C    3.877 --     2 N    1.379     4 N    1.340    18 H    0.953
     4   7 N    3.549 --     3 C    1.340     5 C    1.075    25 H    0.919
                             2 N    0.104
     5   6 C    3.940 --    13 N    1.565     6 C    1.155     4 N    1.075
     6   6 C    3.739 --     5 C    1.155     7 C    1.150     2 N    1.126
     7   6 C    3.920 --     8 O    1.658     6 C    1.150     9 N    1.023
     8   8 O    1.965 --     7 C    1.658     9 N    0.105
     9   7 N    3.190 --     7 C    1.023    10 C    0.974    19 H    0.931
                             8 O    0.105
    10   6 C    3.949 --    11 C    1.067     9 N    0.974    20 H    0.920
                            21 H    0.913
    11   6 C    3.324 --    12 O    2.150    10 C    1.067
    12   8 O    2.282 --    11 C    2.150
    13   7 N    2.831 --     5 C    1.565    14 C    1.069
    14   6 C    3.892 --    13 N    1.069    22 H    0.937    23 H    0.929
                            24 H    0.912
    15   1 H    0.987 --     1 C    0.964
    16   1 H    0.989 --     1 C    0.970
    17   1 H    0.990 --     1 C    0.963
    18   1 H    0.986 --     3 C    0.953
    19   1 H    0.958 --     9 N    0.931
    20   1 H    0.974 --    10 C    0.920
    21   1 H    0.969 --    10 C    0.913
    22   1 H    0.957 --    14 C    0.937
    23   1 H    0.958 --    14 C    0.929
    24   1 H    0.939 --    14 C    0.912
    25   1 H    0.947 --     4 N    0.919
 ---------------------------------------------------------------------------

molecular dipole:
                 x           y           z       tot (Debye)
 q only:        1.794       0.873      -1.622
   full:        1.876       1.086      -1.759       7.095

           -------------------------------------------------
          | TOTAL ENERGY              -42.102628501956 Eh   |
          | GRADIENT NORM               0.006941423003 Eh/α |
          | HOMO-LUMO GAP               1.178351346596 eV   |
           -------------------------------------------------

 * finished run on 2024/06/05 at 20:00:18.150
