   * xtb version 6.6.1 (8d0f1dd) compiled by 'conda@1efc2f54142f' on 2023-08-01
          program call               : xtb struc.xyz --opt loose --input .xc1 --gfn2

   ID    Z sym.   atoms
    1    6 C      1, 3, 5-7, 10, 11, 14
    2    7 N      2, 4, 9, 13
    3    8 O      8, 12
    4    1 H      15-25
constraining bond 4 24 to    4.6866700 Å, actual value:    4.0425547 Å

          :  Hamiltonian                  GFN2-xTB          :
 * total energy  :   -42.9886482 Eh     change       -0.6650680E-10 Eh
 * total energy  :   -45.3673918 Eh     change       -0.2378744E+01 Eh
 * total energy  :   -48.9324385 Eh     change       -0.3565047E+01 Eh
 * total energy  :   -54.0211027 Eh     change       -0.5088664E+01 Eh
 * total energy  :   -61.4890308 Eh     change       -0.7467928E+01 Eh
 * total energy  :   -70.2009198 Eh     change       -0.8711889E+01 Eh
 * total energy  :   -54.5787285 Eh     change        0.1562219E+02 Eh
 * total energy  :   -66.7352465 Eh     change       -0.1215652E+02 Eh
 * total energy  :   -67.8725562 Eh     change       -0.1137310E+01 Eh
 * total energy  :   -68.9480150 Eh     change       -0.1075459E+01 Eh
 * total energy  :   -72.7727134 Eh     change       -0.4265614E-04 Eh
 * total energy  :   -72.7727870 Eh     change       -0.7364435E-04 Eh
 * total energy  :   -72.7729057 Eh     change       -0.1186821E-03 Eh
 * total energy  :   -72.7730337 Eh     change       -0.1279825E-03 Eh
 * total energy  :   -72.7731584 Eh     change       -0.1247409E-03 Eh
 * total energy  :   -72.7732761 Eh     change       -0.1176667E-03 Eh
 * total energy  :   -72.7733295 Eh     change       -0.5341444E-04 Eh
 * total energy  :   -72.7733839 Eh     change       -0.5441497E-04 Eh
 * total energy  :   -72.7734313 Eh     change       -0.4740079E-04 Eh
   *** GEOMETRY OPTIMIZATION CONVERGED AFTER 82 ITERATIONS ***

 final structure:
================
25
 xtb: 6.6.1 (8d0f1dd)
C            3.32805314303370        1.94549726320501       -0.03791243407449
N            2.89713112174168        0.59154221296722       -0.28854888809255
C            3.76502630502844       -0.32550527371621       -0.56939977395139
N           -2.45048002866680       -3.86053558681476        0.98232797374174
C            1.01672359000852       -0.95777577313889       -0.29015700455181
C            1.55030794866357        0.28666860912234       -0.21514815176756
C            0.46341354940774        1.29337614522102       -0.05788553341858
O            0.70008183513904        2.47751740273124        0.03019723475469
N           -0.83046857844635        0.80128128638076       -0.02499717190597
C           -1.91210988096067        1.76778132096027        0.10646315773264
C           -1.22535503140712       -0.52924837682346       -0.10256426494402
O           -2.36303150183176       -0.89790479084216       -0.04866613493155
N           -0.14054378154293       -1.38529369557621       -0.24048759429205
C           -3.51437286433101       -3.72700661444607        0.35998074054420
H            2.96024732764485        2.28632858414173        0.92941523695240
H            4.41350037631488        1.99996199689926       -0.05684594838867
H            2.91529969611906        2.61783448063739       -0.79063444198751
H            4.81299808864294       -0.08773390483730       -0.60796249519091
H           -1.47378944792151        2.76268518847947        0.15939417782073
H           -2.57664113774794        1.69362919442359       -0.75412156832344
H           -2.48480270168689        1.55895831694277        1.00991701399247
H           -4.14731331964110       -4.57655864821528        0.08246183817815
H           -3.88763056926007       -2.74550508316863        0.04056433389847
H           -2.09812992140486       -3.83555048124127        1.17696946418525
H            3.44231729715878       -1.33620523150460       -0.76118814811856

          :  Hamiltonian                  GFN2-xTB          :
         :: total energy             -72.773431314662 Eh    ::
         :: gradient norm              0.003654130860 Eh/a0 ::
         :: HOMO-LUMO gap              1.035279352279 eV    ::
         :: SCC energy               -42.664524302039 Eh    ::
         :: -> dispersion             -0.019861490382 Eh    ::
         :: repulsion energy           2.650560829436 Eh    ::

    * Orbital Energies and Occupations

         #    Occupation            Energy/Eh            Energy/eV
      -------------------------------------------------------------
         1        2.0000           -0.8694120             -23.6579
       ...           ...                  ...                  ...
        25        1.9999           -0.6493084             -17.6686
        26        1.9999           -0.6467852             -17.5999
        27        1.9998           -0.6408542             -17.4385
        28        1.9996           -0.6294015             -17.1269
        29        1.9995           -0.6287366             -17.1088
        30        1.9990           -0.6163083             -16.7706
        31        1.9986           -0.6112906             -16.6341
        32        1.9962           -0.5952213             -16.1968
        33        1.9931           -0.5856992             -15.9377
        34        1.9704           -0.5623920             -15.3035
        35        1.9679           -0.5611101             -15.2686
        36        1.9126           -0.5447779             -14.8242
        37        1.5630           -0.5160971             -14.0437 (HOMO)
        38        0.4890           -0.4780513             -13.0084 (LUMO)
        39        0.1005           -0.4493805             -12.2283
        40        0.0086           -0.4096267             -11.1465
        41        0.0020           -0.3866268             -10.5207
        42        0.0005           -0.3654266              -9.9438
        43        0.0000           -0.2659772              -7.2376
        44                         -0.1738709              -4.7313
        45                         -0.1386547              -3.7730
        46                         -0.0735733              -2.0020
        47                         -0.0281786              -0.7668
        48                         -0.0193243              -0.5258
       ...                                ...                  ...
        67                          7.1463327             194.4616
      -------------------------------------------------------------
                  HL-Gap            0.0380458 Eh            1.0353 eV

     #   Z          covCN         q      C6AA      α(0)
     1   6 C        3.715    -0.094    22.421     6.765
     2   7 N        2.732     0.145    18.788     6.438
     3   6 C        2.827    -0.037    28.920     8.812
     4   7 N        1.773    -0.169    25.418     7.466
     5   6 C        1.995     0.065    29.405     8.757
     6   6 C        2.932    -0.013    28.331     8.729
     7   6 C        2.799     0.276    22.332     7.742
     8   8 O        0.858    -0.364    20.980     6.141
     9   7 N        2.743    -0.085    22.887     7.105
    10   6 C        3.707    -0.056    21.738     6.664
    11   6 C        2.755     0.346    21.121     7.526
    12   8 O        0.858    -0.346    20.621     6.088
    13   7 N        1.841    -0.160    25.264     7.449
    14   6 C        2.811     0.049    26.898     8.497
    15   1 H        0.925     0.123     1.588     1.971
    16   1 H        0.925     0.102     1.767     2.079
    17   1 H        0.924     0.130     1.533     1.936
    18   1 H        0.926     0.120     1.612     1.985
    19   1 H        0.925     0.114     1.665     2.018
    20   1 H        0.925     0.097     1.815     2.107
    21   1 H        0.925     0.096     1.819     2.109
    22   1 H        0.924     0.132     1.516     1.926
    23   1 H        0.924     0.149     1.397     1.848
    24   1 H        0.916     0.264     0.826     1.422
    25   1 H        0.926     0.115     1.656     2.013

Wiberg/Mayer (AO) data.
largest (>0.10) Wiberg bond orders for each atom

     #   Z sym  total        # sym  WBO       # sym  WBO       # sym  WBO
 ---------------------------------------------------------------------------
     1   6 C    3.919 --     2 N    0.987    16 H    0.972    15 H    0.951
                            17 H    0.944
     2   7 N    3.738 --     3 C    1.597     6 C    1.111     1 C    0.987
     3   6 C    3.792 --     2 N    1.597    18 H    0.961    25 H    0.958
     4   7 N    3.005 --    14 C    2.069    24 H    0.924
     5   6 C    3.480 --    13 N    1.843     6 C    1.387
     6   6 C    3.810 --     5 C    1.387     2 N    1.111     7 C    0.998
     7   6 C    3.925 --     8 O    1.656     9 N    1.145     6 C    0.998
     8   8 O    2.028 --     7 C    1.656     9 N    0.135
     9   7 N    3.536 --     7 C    1.145    11 C    1.096    10 C    0.964
                             8 O    0.135    12 O    0.123
    10   6 C    3.902 --    21 H    0.964     9 N    0.964    20 H    0.964
                            19 H    0.963
    11   6 C    3.906 --    12 O    1.702     9 N    1.096    13 N    1.019
    12   8 O    2.050 --    11 C    1.702     9 N    0.123    13 N    0.101
    13   7 N    3.177 --     5 C    1.843    11 C    1.019    12 O    0.101
    14   6 C    3.851 --     4 N    2.069    22 H    0.898    23 H    0.880
    15   1 H    0.982 --     1 C    0.951
    16   1 H    0.988 --     1 C    0.972
    17   1 H    0.979 --     1 C    0.944
    18   1 H    0.985 --     3 C    0.961
    19   1 H    0.984 --    10 C    0.963
    20   1 H    0.984 --    10 C    0.964
    21   1 H    0.984 --    10 C    0.964
    22   1 H    0.907 --    14 C    0.898
    23   1 H    0.892 --    14 C    0.880
    24   1 H    0.930 --     4 N    0.924
    25   1 H    0.987 --     3 C    0.958
 ---------------------------------------------------------------------------

molecular dipole:
                 x           y           z       tot (Debye)
 q only:        1.041      -1.477       0.043
   full:        1.307      -1.466      -0.029       4.992

           -------------------------------------------------
          | TOTAL ENERGY              -72.773431314662 Eh   |
          | GRADIENT NORM               0.003654130860 Eh/α |
          | HOMO-LUMO GAP               1.035279352279 eV   |
           -------------------------------------------------

 * finished run on 2024/06/05 at 19:58:09.150
