   * xtb version 6.6.1 (8d0f1dd) compiled by 'conda@1efc2f54142f' on 2023-08-01
          program call               : xtb xtbopt.xyz --opt crude --input .xc2 --gfn2

   ID    Z sym.   atoms
    1    6 C      1, 3, 5-7, 10, 11, 14
    2    7 N      2, 4, 9, 13
    3    8 O      8, 12
    4    1 H      15-25

          :  Hamiltonian                  GFN2-xTB          :
 * total energy  :   -40.0139890 Eh     change       -0.2557954E-12 Eh
 * total energy  :   -41.8423669 Eh     change       -0.1828378E+01 Eh
 * total energy  :   -42.0199278 Eh     change       -0.1775608E+00 Eh
 * total energy  :   -42.0299937 Eh     change       -0.1006590E-01 Eh
 * total energy  :   -42.0279137 Eh     change        0.2079911E-02 Eh
 * total energy  :   -42.0185248 Eh     change        0.9388979E-02 Eh
 * total energy  :   -42.0312710 Eh     change       -0.1274621E-01 Eh
 * total energy  :   -42.0372284 Eh     change       -0.5957393E-02 Eh
 * total energy  :   -42.0370292 Eh     change        0.1991497E-03 Eh
 * total energy  :   -42.0396055 Eh     change       -0.2576295E-02 Eh
 * total energy  :   -42.0494724 Eh     change       -0.3036905E-02 Eh
 * total energy  :   -42.0504643 Eh     change       -0.9919624E-03 Eh
 * total energy  :   -42.0515445 Eh     change       -0.1080177E-02 Eh
 * total energy  :   -42.0513996 Eh     change        0.1449533E-03 Eh
 * total energy  :   -42.0530498 Eh     change       -0.1650273E-02 Eh
 * total energy  :   -42.0530729 Eh     change       -0.2306599E-04 Eh
 * total energy  :   -42.0529122 Eh     change        0.1606838E-03 Eh
 * total energy  :   -42.0534676 Eh     change       -0.5554149E-03 Eh
 * total energy  :   -42.0535347 Eh     change       -0.6709794E-04 Eh
   *** GEOMETRY OPTIMIZATION CONVERGED AFTER 23 ITERATIONS ***

 final structure:
================
25
 xtb: 6.6.1 (8d0f1dd)
C            3.34235116083680        2.01522560508796       -0.14642189743471
N            2.91871233617590        0.64481443504771       -0.29742930253421
C            3.78827548658744       -0.28621189858099       -0.51676628215205
N           -2.97213396172607       -4.70603060480081        0.78847544607062
C            1.05153627366052       -0.91148019403982       -0.14400066905385
C            1.57450577718837        0.33778652320850       -0.18464321470030
C            0.47788482266438        1.34508989541577       -0.10961273475546
O            0.70314730063256        2.53387647672244       -0.15711045489180
N           -0.80867076634323        0.84664381778309        0.01102825465880
C           -1.89825685703477        1.81104806999818        0.07666003256899
C           -1.18596702786210       -0.48990645265946        0.07880643312768
O           -2.31632416057898       -0.86140531076270        0.21987849828597
N           -0.09925194407701       -1.34364649382782       -0.03047054595851
C           -3.56611378603407       -3.76568341981130        0.24618914033234
H            3.00478933702986        2.41040438202077        0.81249675497072
H            4.42634063243565        2.07827594555447       -0.20608050461865
H            2.89548267297588        2.63842441351874       -0.92256358189979
H            4.83532001386525       -0.04877689522646       -0.58097842751858
H           -1.46848777682610        2.81091837575862        0.05650627317480
H           -2.56500787525802        1.67191004547835       -0.77431477164212
H           -2.46679699416382        1.66121345755037        0.99401238575536
H           -4.36801276051018       -3.99412053757904       -0.44338806489880
H           -3.38357619330577       -2.69901282290608        0.42465085043263
H           -2.22726007482486       -4.57161548143485        1.46738178753751
H            3.46794587855444       -1.30950278973868       -0.63113378699099

          :  Hamiltonian                  GFN2-xTB          :
         :: total energy             -42.053534739125 Eh    ::
         :: gradient norm              0.007783196525 Eh/a0 ::
         :: HOMO-LUMO gap              1.087929245181 eV    ::
         :: SCC energy               -42.618905376668 Eh    ::
         :: -> dispersion             -0.019345513192 Eh    ::
         :: repulsion energy           0.565396812597 Eh    ::

    * Orbital Energies and Occupations

         #    Occupation            Energy/Eh            Energy/eV
      -------------------------------------------------------------
         1        2.0000           -0.8749498             -23.8086
       ...           ...                  ...                  ...
        25        1.9998           -0.6512190             -17.7206
        26        1.9995           -0.6342661             -17.2593
        27        1.9995           -0.6329545             -17.2236
        28        1.9993           -0.6275784             -17.0773
        29        1.9991           -0.6242049             -16.9855
        30        1.9989           -0.6212515             -16.9051
        31        1.9985           -0.6161543             -16.7664
        32        1.9960           -0.6004620             -16.3394
        33        1.9933           -0.5922036             -16.1147
        34        1.9683           -0.5674600             -15.4414
        35        1.9680           -0.5673172             -15.4375
        36        1.9107           -0.5506060             -14.9828
        37        1.5928           -0.5236941             -14.2504 (HOMO)
        38        0.4770           -0.4837134             -13.1625 (LUMO)
        39        0.0953           -0.4546792             -12.3724
        40        0.0019           -0.3922734             -10.6743
        41        0.0017           -0.3906002             -10.6288
        42        0.0005           -0.3715835             -10.1113
        43        0.0000           -0.2717757              -7.3954
        44                         -0.1795244              -4.8851
        45                         -0.1432839              -3.8990
        46                         -0.0792824              -2.1574
        47                         -0.0405067              -1.1022
        48                         -0.0333646              -0.9079
       ...                                ...                  ...
        67                          0.6130155              16.6810
      -------------------------------------------------------------
                  HL-Gap            0.0399807 Eh            1.0879 eV

     #   Z          covCN         q      C6AA      α(0)
     1   6 C        3.715    -0.095    22.442     6.768
     2   7 N        2.732     0.147    18.753     6.432
     3   6 C        2.828    -0.036    28.874     8.805
     4   7 N        1.770    -0.137    24.716     7.362
     5   6 C        1.997     0.068    29.324     8.745
     6   6 C        2.932    -0.011    28.301     8.725
     7   6 C        2.799     0.277    22.322     7.740
     8   8 O        0.858    -0.360    20.896     6.129
     9   7 N        2.743    -0.083    22.848     7.099
    10   6 C        3.707    -0.057    21.745     6.666
    11   6 C        2.757     0.348    21.099     7.522
    12   8 O        0.858    -0.345    20.607     6.086
    13   7 N        1.841    -0.156    25.175     7.436
    14   6 C        2.760     0.046    26.950     8.501
    15   1 H        0.924     0.122     1.595     1.975
    16   1 H        0.925     0.103     1.754     2.071
    17   1 H        0.924     0.134     1.507     1.920
    18   1 H        0.926     0.123     1.592     1.973
    19   1 H        0.925     0.115     1.656     2.012
    20   1 H        0.925     0.098     1.804     2.100
    21   1 H        0.925     0.099     1.793     2.094
    22   1 H        0.925     0.134     1.508     1.921
    23   1 H        0.924     0.140     1.460     1.889
    24   1 H        0.860     0.209     1.060     1.613
    25   1 H        0.926     0.117     1.641     2.003

Wiberg/Mayer (AO) data.
largest (>0.10) Wiberg bond orders for each atom

     #   Z sym  total        # sym  WBO       # sym  WBO       # sym  WBO
 ---------------------------------------------------------------------------
     1   6 C    3.918 --     2 N    0.987    16 H    0.972    15 H    0.950
                            17 H    0.942
     2   7 N    3.742 --     3 C    1.603     6 C    1.109     1 C    0.987
     3   6 C    3.795 --     2 N    1.603    18 H    0.960    25 H    0.957
     4   7 N    2.983 --    14 C    2.065    24 H    0.910
     5   6 C    3.488 --    13 N    1.842     6 C    1.393
     6   6 C    3.810 --     5 C    1.393     2 N    1.109     7 C    0.995
     7   6 C    3.925 --     8 O    1.658     9 N    1.145     6 C    0.995
     8   8 O    2.031 --     7 C    1.658     9 N    0.135
     9   7 N    3.536 --     7 C    1.145    11 C    1.098    10 C    0.964
                             8 O    0.135    12 O    0.122
    10   6 C    3.899 --     9 N    0.964    21 H    0.964    20 H    0.963
                            19 H    0.962
    11   6 C    3.906 --    12 O    1.692     9 N    1.098    13 N    1.025
    12   8 O    2.052 --    11 C    1.692     9 N    0.122    13 N    0.101
    13   7 N    3.183 --     5 C    1.842    11 C    1.025    12 O    0.101
    14   6 C    3.859 --     4 N    2.065    22 H    0.919    23 H    0.868
    15   1 H    0.982 --     1 C    0.950
    16   1 H    0.988 --     1 C    0.972
    17   1 H    0.979 --     1 C    0.942
    18   1 H    0.984 --     3 C    0.960
    19   1 H    0.984 --    10 C    0.962
    20   1 H    0.983 --    10 C    0.963
    21   1 H    0.983 --    10 C    0.964
    22   1 H    0.940 --    14 C    0.919
    23   1 H    0.889 --    14 C    0.868
    24   1 H    0.931 --     4 N    0.910
    25   1 H    0.986 --     3 C    0.957
 ---------------------------------------------------------------------------

molecular dipole:
                 x           y           z       tot (Debye)
 q only:        1.423      -1.075       0.014
   full:        1.781      -0.849       0.021       5.015

           -------------------------------------------------
          | TOTAL ENERGY              -42.053534739125 Eh   |
          | GRADIENT NORM               0.007783196525 Eh/α |
          | HOMO-LUMO GAP               1.087929245181 eV   |
           -------------------------------------------------

 * finished run on 2024/06/05 at 19:58:09.969
