   * xtb version 6.6.1 (8d0f1dd) compiled by 'conda@1efc2f54142f' on 2023-08-01
          program call               : xtb struc.xyz --opt loose --input .xc1 --gfn2

   ID    Z sym.   atoms
    1    7 N      1, 17
    2    6 C      2-6, 8, 9, 11-16, 18-23, 25, 26, 28-33
    3    8 O      7, 10, 24, 27
    4    1 H      34-72
constraining bond 1 4 to    5.9200000 Å, actual value:    3.3764939 Å

          :  Hamiltonian                  GFN2-xTB          :
 * total energy  :   -98.2489946 Eh     change       -0.4035485E-08 Eh
 * total energy  :   -98.5673507 Eh     change       -0.3183560E+00 Eh
 * total energy  :   -98.7685123 Eh     change       -0.2011616E+00 Eh
 * total energy  :   -98.8862853 Eh     change       -0.1177730E+00 Eh
 * total energy  :   -98.9548427 Eh     change       -0.6855745E-01 Eh
 * total energy  :   -98.9966597 Eh     change       -0.4181698E-01 Eh
 * total energy  :   -99.0196740 Eh     change       -0.2301431E-01 Eh
 * total energy  :   -99.0433347 Eh     change       -0.2366073E-01 Eh
 * total energy  :   -99.0609643 Eh     change       -0.1762956E-01 Eh
 * total energy  :   -99.0848547 Eh     change       -0.2389044E-01 Eh
 * total energy  :   -99.3673622 Eh     change       -0.2025021E-03 Eh
 * total energy  :   -99.3675098 Eh     change       -0.1475723E-03 Eh
 * total energy  :   -99.3676364 Eh     change       -0.1266150E-03 Eh
 * total energy  :   -99.3677291 Eh     change       -0.9272902E-04 Eh
 * total energy  :   -99.3677857 Eh     change       -0.5664751E-04 Eh
 * total energy  :   -99.3678507 Eh     change       -0.6493886E-04 Eh
 * total energy  :   -99.3679010 Eh     change       -0.5027474E-04 Eh
 * total energy  :   -99.3679621 Eh     change       -0.6118396E-04 Eh
 * total energy  :   -99.3680019 Eh     change       -0.3971009E-04 Eh
   *** GEOMETRY OPTIMIZATION CONVERGED AFTER 61 ITERATIONS ***

 final structure:
================
72
 xtb: 6.6.1 (8d0f1dd)
N           -1.34054861057887        4.43312743411953        2.22130994875882
C           -1.05200023049478        4.13517443642955        1.00042755544347
C           -1.96668634615845        3.55661304015494        0.11476210087498
C           -3.76372347880991       -0.52698101671996        0.05775472013834
C           -4.77220704045529       -0.91061289962211       -0.81429628967942
C           -5.38351187312525       -2.15032346699167       -0.68266669693042
O           -6.36159576949890       -2.63096193472026       -1.47117589910095
C           -6.86209878908919       -1.83431069543863       -2.51961429790861
C           -4.96835366402017       -3.02291186349906        0.36438866662323
O           -5.62011246087000       -4.19819068297950        0.41912737143642
C           -5.29937648339678       -5.12035201866812        1.43450932297687
C           -3.95708503885734       -2.61794667284984        1.22593861525442
C           -3.35720265512484       -1.37724151780657        1.07062656632400
C           -1.51610949951918        3.20240183152548       -1.26780216890201
C           -1.10216800891623        1.75148226615903       -1.25194416276199
C            0.02992388854163        1.35048986064839       -0.64542823112858
N            0.47221039206666        0.07636485519725       -0.49548164058022
C            1.83784538112076       -0.14405676732875       -0.10046695391584
C            2.79486941209081       -0.19808462369368       -1.31394923469396
C            4.21818503602056       -0.03677224275491       -0.87057644040084
C            4.86982397084195        1.17964945172126       -1.01562967542998
C            6.17803765530887        1.34226875266887       -0.58991020630340
C            6.86299864668364        0.29042742872771        0.00390022953401
O            8.13073734064145        0.33183410369829        0.44809660284338
C            8.88597502354251        1.50846437236565        0.26993797789147
C            6.19782022180537       -0.95820419078448        0.17351918190971
O            6.92982015981965       -1.91912960048667        0.76609161996779
C            6.36073339974695       -3.18895341629112        0.98071614206263
C            4.89094822174662       -1.09762365381816       -0.26874649176392
C           -0.23510570176213       -1.02380551529349       -1.10016510293942
C           -3.38630014737269        3.29640291854018        0.50303780926964
C           -3.51757910316374        2.58333379340226        1.85014991410635
C           -4.13387070926071        4.63920147359269        0.56083197150462
H           -5.08375613358711       -0.23554014472373       -1.59534455109441
H           -7.31266690725768       -0.91176059995028       -2.14078313729517
H           -7.62805918349785       -2.43760582723593       -3.00389276651448
H           -6.08073424614875       -1.58958852363597       -3.24602386826175
H           -5.48571224383773       -4.70215816198819        2.42840520282395
H           -5.95636831812509       -5.97271312654247        1.27265537885938
H           -4.25731772557562       -5.44686148002953        1.36468261641586
H           -3.63434544857320       -3.26344050167747        2.02653093306618
H           -2.57455794686224       -1.07775399751849        1.75099651193798
H           -2.32890437113711        3.34188115678108       -1.98241368409903
H           -0.67375407535198        3.83270158955031       -1.56780284023195
H           -3.30151806966014        0.43965516634228       -0.05539139733800
H           -1.77252422329107        1.04350323531031       -1.71075537658445
H           -0.05655100787396        4.34181621195989        0.58278385805928
H            0.67655123280013        2.09324686189591       -0.19788071556112
H            1.90026702207476       -1.07974959812726        0.45988727260328
H            2.14914205817148        0.66853549332493        0.55997654191687
H            2.52998286155048        0.61162111958693       -1.99628462381813
H            2.66333570693556       -1.14602543798230       -1.83790664701941
H            4.36018481991716        2.01130508648822       -1.47790280520141
H            6.65959340105881        2.29673808886028       -0.72585340330522
H            8.46043770979982        2.34628636208778        0.83051598178437
H            8.96277551846817        1.77748470695515       -0.78770365484062
H            9.87671376447577        1.28109774154334        0.65824524436688
H            7.13635889637151       -3.77847423332900        1.46578002133953
H            5.48690814096311       -3.12986612338460        1.63739851283992
H            6.07916811577817       -3.66698742832539        0.03744352088625
H            4.38295201050290       -2.04272135672146       -0.15939480256192
H           -0.21006780156978       -0.97214122625141       -2.19336471835703
H           -1.27796834670093       -1.02351285998127       -0.77643901543410
H            0.22201971396375       -1.95878326594798       -0.78362979655812
H           -3.85507442842265        2.68337130886879       -0.27610386412024
H           -3.11797878733131        3.21875701148274        2.63612950585008
H           -2.96509361379163        1.64639835953772        1.85302200817098
H           -4.56458476038149        2.37301455687780        2.05592251459545
H           -3.69623480874479        5.26534193368969        1.33316552333415
H           -4.07350851350705        5.15959511141637       -0.39213178487509
H           -5.18000361481901        4.46489749537404        0.79830696139414
H           -0.61688393955738        4.88180157862491        2.76914736104226

          :  Hamiltonian                  GFN2-xTB          :
         :: total energy             -99.368001854618 Eh    ::
         :: gradient norm              0.002966664096 Eh/a0 ::
         :: HOMO-LUMO gap              0.758346632568 eV    ::
         :: SCC energy              -100.773753692794 Eh    ::
         :: -> dispersion             -0.067679679776 Eh    ::
         :: repulsion energy           1.405004024552 Eh    ::

    * Orbital Energies and Occupations

         #    Occupation            Energy/Eh            Energy/eV
      -------------------------------------------------------------
         1        2.0000           -0.8111353             -22.0721
       ...           ...                  ...                  ...
        78        1.9973           -0.5305982             -14.4383
        79        1.9966           -0.5273484             -14.3499
        80        1.9954           -0.5221824             -14.2093
        81        1.9952           -0.5217538             -14.1976
        82        1.9948           -0.5203237             -14.1587
        83        1.9939           -0.5177668             -14.0892
        84        1.9922           -0.5140227             -13.9873
        85        1.9678           -0.4912966             -13.3689
        86        1.9671           -0.4909802             -13.3603
        87        1.8164           -0.4624756             -12.5846
        88        1.8048           -0.4614061             -12.5555
        89        1.7797           -0.4592669             -12.4973
        90        1.7076           -0.4541255             -12.3574 (HOMO)
        91        1.0022           -0.4262568             -11.5990 (LUMO)
        92        0.0018           -0.3154200              -8.5830
        93        0.0017           -0.3139079              -8.5419
        94        0.0015           -0.3127714              -8.5109
        95        0.0014           -0.3116401              -8.4802
        96        0.0006           -0.2974406              -8.0938
        97        0.0001           -0.2735879              -7.4447
        98        0.0000           -0.1896362              -5.1603
        99        0.0000           -0.1863017              -5.0695
       100                         -0.1027787              -2.7968
       101                         -0.0633148              -1.7229
       ...                                ...                  ...
       171                          0.5799093              15.7801
      -------------------------------------------------------------
                  HL-Gap            0.0278687 Eh            0.7583 eV

     #   Z          covCN         q      C6AA      α(0)
     1   7 N        1.781    -0.282    28.123     7.854
     2   6 C        2.820     0.073    26.357     8.412
     3   6 C        2.966     0.012    27.735     8.638
     4   6 C        2.917    -0.044    29.091     8.845
     5   6 C        2.914    -0.068    29.686     8.934
     6   6 C        2.863     0.136    25.031     8.201
     7   8 O        1.706    -0.219    17.640     5.671
     8   6 C        3.644     0.025    20.486     6.506
     9   6 C        2.864     0.136    25.020     8.199
    10   8 O        1.706    -0.219    17.628     5.669
    11   6 C        3.645     0.025    20.495     6.507
    12   6 C        2.914    -0.066    29.644     8.928
    13   6 C        2.917    -0.039    28.958     8.824
    14   6 C        3.812    -0.061    21.662     6.625
    15   6 C        2.899    -0.062    29.552     8.913
    16   6 C        2.846     0.011    27.771     8.637
    17   7 N        2.732    -0.039    21.994     6.965
    18   6 C        3.755    -0.009    20.791     6.502
    19   6 C        3.807    -0.071    21.857     6.655
    20   6 C        2.968     0.007    27.851     8.656
    21   6 C        2.922    -0.045    29.108     8.848
    22   6 C        2.913    -0.066    29.632     8.926
    23   6 C        2.864     0.135    25.039     8.202
    24   8 O        1.706    -0.215    17.577     5.660
    25   6 C        3.645     0.023    20.515     6.510
    26   6 C        2.862     0.136    25.035     8.201
    27   8 O        1.706    -0.218    17.622     5.668
    28   6 C        3.645     0.025    20.486     6.505
    29   6 C        2.919    -0.077    29.922     8.970
    30   6 C        3.698    -0.062    21.869     6.688
    31   6 C        3.853    -0.002    20.586     6.453
    32   6 C        3.756    -0.118    22.813     6.810
    33   6 C        3.759    -0.109    22.624     6.781
    34   1 H        0.926     0.052     2.295     2.369
    35   1 H        0.924     0.057     2.233     2.337
    36   1 H        0.925     0.083     1.944     2.180
    37   1 H        0.924     0.054     2.274     2.358
    38   1 H        0.924     0.058     2.222     2.331
    39   1 H        0.925     0.084     1.943     2.180
    40   1 H        0.924     0.055     2.262     2.352
    41   1 H        0.926     0.056     2.245     2.343
    42   1 H        0.926     0.045     2.378     2.411
    43   1 H        0.924     0.061     2.184     2.311
    44   1 H        0.924     0.055     2.254     2.348
    45   1 H        0.926     0.052     2.292     2.367
    46   1 H        0.926     0.048     2.345     2.395
    47   1 H        0.923     0.017     2.786     2.610
    48   1 H        0.925     0.053     2.278     2.360
    49   1 H        0.924     0.058     2.223     2.332
    50   1 H        0.924     0.061     2.193     2.316
    51   1 H        0.924     0.054     2.270     2.356
    52   1 H        0.924     0.056     2.247     2.344
    53   1 H        0.926     0.051     2.308     2.376
    54   1 H        0.926     0.061     2.188     2.313
    55   1 H        0.924     0.058     2.225     2.333
    56   1 H        0.924     0.059     2.215     2.328
    57   1 H        0.925     0.085     1.931     2.173
    58   1 H        0.925     0.084     1.938     2.177
    59   1 H        0.924     0.053     2.286     2.364
    60   1 H        0.924     0.056     2.250     2.346
    61   1 H        0.926     0.052     2.295     2.369
    62   1 H        0.924     0.061     2.185     2.312
    63   1 H        0.924     0.069     2.093     2.262
    64   1 H        0.925     0.066     2.131     2.283
    65   1 H        0.924     0.041     2.432     2.439
    66   1 H        0.925     0.083     1.946     2.181
    67   1 H        0.925     0.036     2.498     2.472
    68   1 H        0.925     0.051     2.314     2.379
    69   1 H        0.925     0.064     2.149     2.292
    70   1 H        0.925     0.043     2.407     2.426
    71   1 H        0.925     0.057     2.230     2.335
    72   1 H        0.860     0.155     1.368     1.832

Wiberg/Mayer (AO) data.
largest (>0.10) Wiberg bond orders for each atom

     #   Z sym  total        # sym  WBO       # sym  WBO       # sym  WBO
 ---------------------------------------------------------------------------
     1   7 N    2.636 --     2 C    1.624    72 H    0.944
     2   6 C    3.917 --     1 N    1.624     3 C    1.320    47 H    0.925
     3   6 C    3.492 --     2 C    1.320    31 C    1.030    14 C    1.016
     4   6 C    3.934 --    13 C    1.422     5 C    1.415    45 H    0.959
     5   6 C    3.952 --     4 C    1.415     6 C    1.380    34 H    0.964
     6   6 C    3.880 --     5 C    1.380     9 C    1.213     7 O    1.112
     7   8 O    2.249 --     6 C    1.112     8 C    0.976
     8   6 C    3.927 --    36 H    0.976     7 O    0.976    37 H    0.972
                            35 H    0.972
     9   6 C    3.880 --    12 C    1.379     6 C    1.213    10 O    1.113
    10   8 O    2.250 --     9 C    1.113    11 C    0.976
    11   6 C    3.926 --    39 H    0.976    10 O    0.976    40 H    0.972
                            38 H    0.971
    12   6 C    3.952 --    13 C    1.417     9 C    1.379    41 H    0.963
    13   6 C    3.937 --     4 C    1.422    12 C    1.417    42 H    0.969
    14   6 C    3.979 --     3 C    1.016    15 C    0.986    43 H    0.964
                            44 H    0.957
    15   6 C    3.778 --    16 C    1.665    14 C    0.986    46 H    0.962
    16   6 C    3.926 --    15 C    1.665    17 N    1.219    48 H    0.953
    17   7 N    3.368 --    16 C    1.219    30 C    1.006    18 C    1.004
    18   6 C    3.960 --    17 N    1.004    50 H    0.968    49 H    0.967
                            19 C    0.960
    19   6 C    3.972 --    20 C    1.015    51 H    0.973    52 H    0.968
                            18 C    0.960
    20   6 C    3.927 --    21 C    1.395    29 C    1.381    19 C    1.015
    21   6 C    3.930 --    22 C    1.422    20 C    1.395    53 H    0.967
    22   6 C    3.950 --    21 C    1.422    23 C    1.375    54 H    0.962
    23   6 C    3.875 --    22 C    1.375    26 C    1.209    24 O    1.117
    24   8 O    2.249 --    23 C    1.117    25 C    0.975
    25   6 C    3.924 --    57 H    0.976    24 O    0.975    56 H    0.971
                            55 H    0.971
    26   6 C    3.883 --    29 C    1.391    23 C    1.209    27 O    1.112
    27   8 O    2.251 --    26 C    1.112    28 C    0.977
    28   6 C    3.928 --    27 O    0.977    58 H    0.976    59 H    0.972
                            60 H    0.972
    29   6 C    3.950 --    26 C    1.391    20 C    1.381    61 H    0.962
    30   6 C    3.963 --    17 N    1.006    64 H    0.980    62 H    0.967
                            63 H    0.966
    31   6 C    3.970 --     3 C    1.030    32 C    0.987    33 C    0.959
                            65 H    0.956
    32   6 C    3.950 --    31 C    0.987    67 H    0.981    68 H    0.980
                            66 H    0.963
    33   6 C    3.943 --    70 H    0.985    69 H    0.980    71 H    0.977
                            31 C    0.959
    34   1 H    0.996 --     5 C    0.964
    35   1 H    0.990 --     8 C    0.972
    36   1 H    0.992 --     8 C    0.976
    37   1 H    0.990 --     8 C    0.972
    38   1 H    0.990 --    11 C    0.971
    39   1 H    0.992 --    11 C    0.976
    40   1 H    0.990 --    11 C    0.972
    41   1 H    0.995 --    12 C    0.963
    42   1 H    0.997 --    13 C    0.969
    43   1 H    0.986 --    14 C    0.964
    44   1 H    0.985 --    14 C    0.957
    45   1 H    0.996 --     4 C    0.959
    46   1 H    0.996 --    15 C    0.962
    47   1 H    0.961 --     2 C    0.925
    48   1 H    0.997 --    16 C    0.953
    49   1 H    0.991 --    18 C    0.967
    50   1 H    0.994 --    18 C    0.968
    51   1 H    0.996 --    19 C    0.973
    52   1 H    0.994 --    19 C    0.968
    53   1 H    0.996 --    21 C    0.967
    54   1 H    0.994 --    22 C    0.962
    55   1 H    0.989 --    25 C    0.971
    56   1 H    0.990 --    25 C    0.971
    57   1 H    0.992 --    25 C    0.976
    58   1 H    0.992 --    28 C    0.976
    59   1 H    0.991 --    28 C    0.972
    60   1 H    0.991 --    28 C    0.972
    61   1 H    0.996 --    29 C    0.962
    62   1 H    0.982 --    30 C    0.967
    63   1 H    0.988 --    30 C    0.966
    64   1 H    0.995 --    30 C    0.980
    65   1 H    0.988 --    31 C    0.956
    66   1 H    0.986 --    32 C    0.963
    67   1 H    0.996 --    32 C    0.981
    68   1 H    0.992 --    32 C    0.980
    69   1 H    0.992 --    33 C    0.980
    70   1 H    0.996 --    33 C    0.985
    71   1 H    0.990 --    33 C    0.977
    72   1 H    0.964 --     1 N    0.944
 ---------------------------------------------------------------------------

molecular dipole:
                 x           y           z       tot (Debye)
 q only:        0.339      -0.403      -0.483
   full:        0.677      -0.213      -0.702       2.537

           -------------------------------------------------
          | TOTAL ENERGY              -99.368001854618 Eh   |
          | GRADIENT NORM               0.002966664096 Eh/α |
          | HOMO-LUMO GAP               0.758346632568 eV   |
           -------------------------------------------------

 * finished run on 2024/04/06 at 11:11:41.113
