   * xtb version 6.6.1 (8d0f1dd) compiled by 'conda@1efc2f54142f' on 2023-08-01
          program call               : xtb xtbopt.xyz --opt crude --input .xc2 --gfn2

   ID    Z sym.   atoms
    1    7 N      1, 17
    2    6 C      2-6, 8, 9, 11-16, 18-23, 25, 26, 28-33
    3    8 O      7, 10, 24, 27
    4    1 H      34-72
########################################################################
[WARNING] Please study the warnings concerning your input carefully
-1- readin_getIntValue: could not parse ''
########################################################################

          :  Hamiltonian                  GFN2-xTB          :
 * total energy  :   -99.1897245 Eh     change       -0.7483436E-10 Eh
   *** GEOMETRY OPTIMIZATION CONVERGED AFTER 1 ITERATIONS ***

 final structure:
================
72
 xtb: 6.6.1 (8d0f1dd)
N           -1.59555127675430        2.70465352580799        2.20575146887613
C           -1.58204662775520        2.01254796566145        1.16673967855408
C           -2.76249514800421        1.80485278138371        0.25908458129903
C           -3.24793296426727        0.36675948162058        0.37204101394445
C           -4.20418141356194       -0.10998704998129       -0.52692163517795
C           -4.69206666680462       -1.40312788058931       -0.44723120775228
O           -5.61885863231514       -1.93804646238020       -1.26881801328694
C           -6.22325900576137       -1.12605697114035       -2.24763528836218
C           -4.20600373828634       -2.27299670389858        0.56623076912521
O           -4.73604050136995       -3.51212816593363        0.56797142072330
C           -4.37854590786987       -4.41002683722846        1.59273487051908
C           -3.25504956714045       -1.79437975634339        1.45333042749111
C           -2.78432759881708       -0.49078731522221        1.35739348365256
C           -2.24941680724885        2.06797806838119       -1.18005284266608
C           -1.31224913828952        0.97490626618856       -1.72086714959528
C            0.05816978050897        1.05271796033141       -1.16553038087684
N            0.81549336643985        0.01841916242600       -0.79454969958628
C            2.23789835195197        0.18400755231336       -0.68812412936341
C            2.94955492494270       -0.21287130551692       -2.02603739350970
C            4.28317801355758        0.28632291652081       -2.09222089704156
C            5.46335420962377        0.81503227348767       -2.05369297975721
C            6.36224480797423        1.00664151859487       -0.92832017816777
C            6.29732840054983        0.38580588617330        0.27028648173093
O            7.08541632284366        0.65350346361454        1.32586905196174
C            8.04120834852376        1.68733417401723        1.24246734242462
C            5.33766537538999       -0.71413379098411        0.60714041764865
O            5.23251640184443       -1.64674492953236       -0.38849694319503
C            4.59838073316197       -2.84514478458517       -0.01234992404286
C            4.68175177931383       -0.74597043307048        1.74603493704366
C            0.28697251057253       -1.32151395150533       -0.70412694861515
C           -3.95710135575482        2.75197407863703        0.57836749993457
C           -4.56358530458906        2.44562826252448        1.94547424482839
C           -3.58782869690090        4.23061404069374        0.49748850281525
H           -4.58373279712212        0.54612060566652       -1.29220490178127
H           -6.72792770772931       -0.26505769277317       -1.79903768602581
H           -6.96003043989204       -1.75942381313596       -2.73769743574082
H           -5.49587148194515       -0.77994425657218       -2.98931362129549
H           -4.62677314380172       -4.00982829188281        2.58012440109397
H           -4.96395006635415       -5.30896542439364        1.40992676055744
H           -3.31307720156877       -4.65838787926115        1.55591047681269
H           -2.87870657408723       -2.42719141174483        2.24061048840154
H           -2.06694248891394       -0.14537569663011        2.08570389980499
H           -3.10608265166940        2.14788893870541       -1.84796032073812
H           -1.72675719470840        3.02503174343624       -1.20061324741637
H           -1.75973771990830       -0.00596591364450       -1.56686503168506
H           -1.23048932937206        1.13528602887044       -2.80474807934470
H           -0.67594524062665        1.50846333175714        0.77489265455470
H            0.55648155838571        2.00992257980673       -1.21853179888722
H            2.63258402113648       -0.42492977119954        0.12790162841431
H            2.46670040487626        1.22978167087696       -0.47414318745069
H            2.35268926702596        0.21906357611284       -2.84181196223381
H            2.94875132938742       -1.29966914287943       -2.14051392365618
H            5.88605856677850        1.19663843397643       -2.98664592268219
H            7.16095489091485        1.70739132094107       -1.11283652164333
H            7.57116670761789        2.64730917152197        1.00704004352846
H            8.80728349147454        1.46327066194123        0.49379272287541
H            8.50409822512365        1.73882464633924        2.22543391462499
H            4.56928573693139       -3.47376952286087       -0.90100338354347
H            5.15885713130618       -3.35198023736790        0.77817932849897
H            3.58281452936112       -2.66007105199052        0.35760262451151
H            4.72429809321068       -0.11170666893471        2.60250954105825
H            0.11940131806189       -1.75668270937478       -1.69277366813093
H           -0.65909166276628       -1.31684578190153       -0.15949664994707
H            0.99309301040330       -1.94813293982140       -0.16363714578816
H           -4.72174924595764        2.55293288025103       -0.18117124651722
H           -3.83786972331944        2.64494418970439        2.72727469750342
H           -4.87849178371227        1.40709395348970        2.01199584556491
H           -5.43224092563967        3.07808620373902        2.10848335049901
H           -2.80999999669512        4.46572241674771        1.21745557349018
H           -3.25371972769132        4.51258023622492       -0.49755943278673
H           -4.46250439741734        4.82983484250798        0.73599391926512
H           -0.73090416145675        2.79609727127709        2.72956756448095

          :  Hamiltonian                  GFN2-xTB          :
         :: total energy             -99.189724457194 Eh    ::
         :: gradient norm              0.003709479715 Eh/a0 ::
         :: HOMO-LUMO gap              0.236917483732 eV    ::
         :: SCC energy              -100.574691373862 Eh    ::
         :: -> dispersion             -0.075893029233 Eh    ::
         :: repulsion energy           1.383250637914 Eh    ::

    * Orbital Energies and Occupations

         #    Occupation            Energy/Eh            Energy/eV
      -------------------------------------------------------------
         1        2.0000           -0.8146534             -22.1678
       ...           ...                  ...                  ...
        78        1.9984           -0.5291444             -14.3988
        79        1.9983           -0.5279640             -14.3666
        80        1.9982           -0.5273560             -14.3501
        81        1.9974           -0.5213611             -14.1870
        82        1.9959           -0.5142363             -13.9931
        83        1.9951           -0.5116208             -13.9219
        84        1.9942           -0.5087864             -13.8448
        85        1.9802           -0.4892827             -13.3141
        86        1.9483           -0.4738060             -12.8929
        87        1.9372           -0.4706390             -12.8067
        88        1.8955           -0.4622369             -12.5781
        89        1.8670           -0.4581781             -12.4677
        90        1.1515           -0.4211802             -11.4609 (HOMO)
        91        0.8783           -0.4124736             -11.2240 (LUMO)
        92        0.3341           -0.3909047             -10.6371
        93        0.0172           -0.3411850              -9.2841
        94        0.0144           -0.3383260              -9.2063
        95        0.0033           -0.3151248              -8.5750
        96        0.0028           -0.3121080              -8.4929
        97        0.0003           -0.2747892              -7.4774
        98        0.0000           -0.2295575              -6.2466
        99        0.0000           -0.1893766              -5.1532
       100                         -0.1324414              -3.6039
       101                         -0.0764618              -2.0806
       ...                                ...                  ...
       171                          0.8001611              21.7735
      -------------------------------------------------------------
                  HL-Gap            0.0087066 Eh            0.2369 eV

     #   Z          covCN         q      C6AA      α(0)
     1   7 N        1.774    -0.267    27.760     7.802
     2   6 C        2.826     0.101    25.753     8.316
     3   6 C        3.908     0.007    20.410     6.421
     4   6 C        2.974     0.003    27.960     8.674
     5   6 C        2.921    -0.080    29.993     8.981
     6   6 C        2.862     0.130    25.156     8.221
     7   8 O        1.706    -0.230    17.808     5.698
     8   6 C        3.644     0.028    20.445     6.499
     9   6 C        2.864     0.129    25.171     8.224
    10   8 O        1.706    -0.228    17.782     5.693
    11   6 C        3.645     0.027    20.460     6.501
    12   6 C        2.914    -0.074    29.844     8.958
    13   6 C        2.921    -0.053    29.318     8.879
    14   6 C        3.813    -0.065    21.740     6.637
    15   6 C        3.802    -0.067    21.787     6.646
    16   6 C        2.845    -0.000    28.030     8.677
    17   7 N        2.729     0.003    21.214     6.841
    18   6 C        3.757    -0.018    20.949     6.526
    19   6 C        3.799    -0.046    21.394     6.586
    20   6 C        1.970    -0.025    31.721     9.095
    21   6 C        2.888    -0.019    28.490     8.751
    22   6 C        2.893    -0.073    29.821     8.953
    23   6 C        2.843     0.141    24.928     8.183
    24   8 O        1.706    -0.231    17.831     5.701
    25   6 C        3.643     0.024    20.514     6.511
    26   6 C        2.851     0.134    25.057     8.204
    27   8 O        1.705    -0.264    18.372     5.787
    28   6 C        3.658     0.035    20.267     6.461
    29   6 C        1.915    -0.167    35.895     9.676
    30   6 C        3.699    -0.068    21.972     6.704
    31   6 C        3.853    -0.007    20.672     6.467
    32   6 C        3.756    -0.119    22.833     6.813
    33   6 C        3.755    -0.118    22.814     6.811
    34   1 H        0.926     0.052     2.298     2.370
    35   1 H        0.924     0.054     2.274     2.358
    36   1 H        0.925     0.081     1.968     2.194
    37   1 H        0.924     0.047     2.357     2.401
    38   1 H        0.924     0.055     2.255     2.348
    39   1 H        0.925     0.081     1.967     2.193
    40   1 H        0.924     0.049     2.335     2.390
    41   1 H        0.926     0.053     2.286     2.364
    42   1 H        0.926     0.040     2.455     2.450
    43   1 H        0.925     0.059     2.216     2.328
    44   1 H        0.924     0.053     2.288     2.366
    45   1 H        0.925     0.064     2.148     2.292
    46   1 H        0.923     0.076     2.022     2.224
    47   1 H        0.922     0.009     2.904     2.665
    48   1 H        0.926     0.064     2.148     2.292
    49   1 H        0.924     0.079     1.985     2.203
    50   1 H        0.924     0.069     2.094     2.263
    51   1 H        0.923     0.079     1.992     2.207
    52   1 H        0.924     0.085     1.924     2.169
    53   1 H        0.924     0.097     1.813     2.105
    54   1 H        0.926     0.064     2.153     2.295
    55   1 H        0.924     0.054     2.275     2.359
    56   1 H        0.924     0.060     2.202     2.320
    57   1 H        0.925     0.084     1.936     2.176
    58   1 H        0.925     0.066     2.132     2.283
    59   1 H        0.924     0.059     2.210     2.325
    60   1 H        0.924     0.036     2.510     2.477
    61   1 H        0.927     0.063     2.161     2.299
    62   1 H        0.924     0.073     2.057     2.243
    63   1 H        0.924     0.080     1.980     2.201
    64   1 H        0.925     0.077     2.012     2.218
    65   1 H        0.924     0.037     2.487     2.466
    66   1 H        0.925     0.070     2.089     2.260
    67   1 H        0.925     0.036     2.505     2.475
    68   1 H        0.925     0.051     2.307     2.375
    69   1 H        0.925     0.059     2.207     2.323
    70   1 H        0.925     0.034     2.532     2.488
    71   1 H        0.925     0.054     2.267     2.354
    72   1 H        0.860     0.157     1.352     1.821

Wiberg/Mayer (AO) data.
largest (>0.10) Wiberg bond orders for each atom

     #   Z sym  total        # sym  WBO       # sym  WBO       # sym  WBO
 ---------------------------------------------------------------------------
     1   7 N    3.041 --     2 C    1.957    72 H    0.941
     2   6 C    3.926 --     1 N    1.957     3 C    0.995    47 H    0.896
     3   6 C    3.975 --     2 C    0.995     4 C    0.968    14 C    0.958
                            31 C    0.942
     4   6 C    3.948 --    13 C    1.414     5 C    1.368     3 C    0.968
     5   6 C    3.962 --     6 C    1.402     4 C    1.368    34 H    0.957
     6   6 C    3.904 --     5 C    1.402     9 C    1.221     7 O    1.099
     7   8 O    2.253 --     6 C    1.099     8 C    0.978
     8   6 C    3.932 --     7 O    0.978    36 H    0.977    35 H    0.973
                            37 H    0.973
     9   6 C    3.901 --    12 C    1.392     6 C    1.221    10 O    1.102
    10   8 O    2.252 --     9 C    1.102    11 C    0.977
    11   6 C    3.931 --    10 O    0.977    39 H    0.977    40 H    0.973
                            38 H    0.973
    12   6 C    3.962 --    13 C    1.405     9 C    1.392    41 H    0.964
    13   6 C    3.954 --     4 C    1.414    12 C    1.405    42 H    0.963
    14   6 C    3.974 --    15 C    0.984    44 H    0.972    43 H    0.969
                             3 C    0.958
    15   6 C    3.985 --    16 C    1.058    14 C    0.984    45 H    0.961
                            46 H    0.927
    16   6 C    3.570 --    17 N    1.365    15 C    1.058    48 H    0.958
    17   7 N    3.469 --    16 C    1.365    18 C    1.004    30 C    0.999
    18   6 C    3.920 --    17 N    1.004    50 H    0.968    49 H    0.957
                            19 C    0.918
    19   6 C    3.974 --    20 C    1.132    52 H    0.944    51 H    0.925
                            18 C    0.918
    20   6 C    3.248 --    21 C    1.910    19 C    1.132
    21   6 C    3.960 --    20 C    1.910    22 C    1.079    53 H    0.882
    22   6 C    3.832 --    23 C    1.609    21 C    1.079    54 H    0.950
                            24 O    0.102
    23   6 C    3.826 --    22 C    1.609    24 O    1.115    26 C    0.948
    24   8 O    2.273 --    23 C    1.115    25 C    0.969    22 C    0.102
    25   6 C    3.925 --    57 H    0.976    55 H    0.974    56 H    0.972
                            24 O    0.969
    26   6 C    3.878 --    29 C    1.814    27 O    1.038    23 C    0.948
    27   8 O    2.186 --    26 C    1.038    28 C    0.982    29 C    0.103
    28   6 C    3.932 --    27 O    0.982    58 H    0.979    59 H    0.973
                            60 H    0.970
    29   6 C    2.981 --    26 C    1.814    61 H    0.954    27 O    0.103
    30   6 C    3.959 --    17 N    0.999    64 H    0.976    62 H    0.966
                            63 H    0.966
    31   6 C    3.972 --    33 C    1.009    32 C    1.008    65 H    0.960
                             3 C    0.942
    32   6 C    3.978 --    31 C    1.008    67 H    0.982    68 H    0.981
                            66 H    0.974
    33   6 C    3.983 --    31 C    1.009    70 H    0.983    71 H    0.980
                            69 H    0.977
    34   1 H    0.996 --     5 C    0.957
    35   1 H    0.993 --     8 C    0.973
    36   1 H    0.993 --     8 C    0.977
    37   1 H    0.994 --     8 C    0.973
    38   1 H    0.993 --    11 C    0.973
    39   1 H    0.993 --    11 C    0.977
    40   1 H    0.993 --    11 C    0.973
    41   1 H    0.996 --    12 C    0.964
    42   1 H    0.998 --    13 C    0.963
    43   1 H    0.995 --    14 C    0.969
    44   1 H    0.996 --    14 C    0.972
    45   1 H    0.995 --    15 C    0.961
    46   1 H    0.967 --    15 C    0.927
    47   1 H    0.986 --     2 C    0.896
    48   1 H    0.996 --    16 C    0.958
    49   1 H    0.990 --    18 C    0.957
    50   1 H    0.994 --    18 C    0.968
    51   1 H    0.956 --    19 C    0.925
    52   1 H    0.986 --    19 C    0.944
    53   1 H    0.917 --    21 C    0.882
    54   1 H    0.985 --    22 C    0.950
    55   1 H    0.994 --    25 C    0.974
    56   1 H    0.992 --    25 C    0.972
    57   1 H    0.992 --    25 C    0.976
    58   1 H    0.995 --    28 C    0.979
    59   1 H    0.993 --    28 C    0.973
    60   1 H    0.996 --    28 C    0.970
    61   1 H    0.974 --    29 C    0.954
    62   1 H    0.985 --    30 C    0.966
    63   1 H    0.989 --    30 C    0.966
    64   1 H    0.993 --    30 C    0.976
    65   1 H    0.992 --    31 C    0.960
    66   1 H    0.991 --    32 C    0.974
    67   1 H    0.997 --    32 C    0.982
    68   1 H    0.994 --    32 C    0.981
    69   1 H    0.993 --    33 C    0.977
    70   1 H    0.997 --    33 C    0.983
    71   1 H    0.994 --    33 C    0.980
    72   1 H    0.970 --     1 N    0.941
 ---------------------------------------------------------------------------

molecular dipole:
                 x           y           z       tot (Debye)
 q only:        0.972       0.319      -1.422
   full:        1.542       0.392      -1.589       5.716

           -------------------------------------------------
          | TOTAL ENERGY              -99.189724457194 Eh   |
          | GRADIENT NORM               0.003709479715 Eh/α |
          | HOMO-LUMO GAP               0.236917483732 eV   |
           -------------------------------------------------

 * finished run on 2024/04/06 at 11:14:02.789
