   * xtb version 6.6.1 (8d0f1dd) compiled by 'conda@1efc2f54142f' on 2023-08-01
          program call               : xtb struc.xyz --opt loose --input .xc1 --gfn2

   ID    Z sym.   atoms
    1    6 C      1, 3, 5-7, 10, 11, 14
    2    7 N      2, 4, 9, 13
    3    8 O      8, 12
    4    1 H      15-25
constraining bond 4 7 to    5.9200000 Å, actual value:    3.5994291 Å

          :  Hamiltonian                  GFN2-xTB          :
 * total energy  :    -3.7871445 Eh     change       -0.6650680E-10 Eh
 * total energy  :   -22.5735129 Eh     change       -0.1878637E+02 Eh
 * total energy  :   -33.0865812 Eh     change       -0.1051307E+02 Eh
 * total energy  :   -39.5020743 Eh     change       -0.6415493E+01 Eh
 * total energy  :   -41.6003209 Eh     change       -0.2098247E+01 Eh
 * total energy  :   -41.7433353 Eh     change       -0.1430144E+00 Eh
 * total energy  :   -41.7598238 Eh     change       -0.1648853E-01 Eh
 * total energy  :   -41.7940501 Eh     change       -0.3422629E-01 Eh
 * total energy  :   -41.8171971 Eh     change       -0.2314703E-01 Eh
 * total energy  :   -41.8335696 Eh     change       -0.1637251E-01 Eh
 * total energy  :   -42.1048158 Eh     change       -0.8782058E-03 Eh
 * total energy  :   -42.1056201 Eh     change       -0.8043653E-03 Eh
 * total energy  :   -42.1062186 Eh     change       -0.5985097E-03 Eh
 * total energy  :   -42.1063862 Eh     change       -0.1675295E-03 Eh
 * total energy  :   -42.1068521 Eh     change       -0.4658959E-03 Eh
 * total energy  :   -42.1071561 Eh     change       -0.3040498E-03 Eh
 * total energy  :   -42.1072940 Eh     change       -0.1379399E-03 Eh
 * total energy  :   -42.1073757 Eh     change       -0.8167512E-04 Eh
 * total energy  :   -42.1074180 Eh     change       -0.4231068E-04 Eh
   *** GEOMETRY OPTIMIZATION CONVERGED AFTER 48 ITERATIONS ***

 final structure:
================
25
 xtb: 6.6.1 (8d0f1dd)
C            3.06467872429208        0.61656819139705        0.05393387595107
N            2.42285142008126       -0.70586842074102       -0.01038972839719
C            3.37306323117915       -1.78486631265819       -0.02317042242304
N            3.34569853597508       -3.03420629908339       -0.04985526042084
C           -0.06522724899399       -0.08662935249232       -0.01891835965838
C            1.11096074444468       -0.71679010588696       -0.02598110055056
C           -0.51427925360586        1.45004386877194       -0.03607839638901
O            0.24003482610553        2.37667461113331       -0.05412705507476
N           -1.85802584791698        1.39611300787080       -0.01654174634358
C           -2.71864556004475        2.55836792367233       -0.01982475598951
C           -2.36162770839080        0.09314068365481        0.00906890425867
O           -3.51219268387128       -0.22589246745439        0.02826774719595
N           -1.26784600588051       -0.75667001431801        0.00786626990778
C           -1.42020551513784       -2.18503716427679        0.02574478885610
H            3.62948888997609        0.71021794488651        0.98277348834656
H            3.73746208405899        0.73883015032769       -0.79625932707886
H            2.31161291252680        1.40441232459304        0.01913746078278
H            4.37049339972809       -1.35101143327688        0.00147013131755
H           -2.10087575446464        3.45363021995406       -0.02174680921213
H           -3.35632272334252        2.54131395831807       -0.90495947522602
H           -3.35595002960880        2.54398213316842        0.86557285537913
H           -0.94906079565472       -2.60839266844943        0.91467362928656
H           -0.96812416022815       -2.62671986794549       -0.86424933080866
H           -2.48714867445530       -2.40568667477493        0.03959144479278
H            2.48961870732497       -3.57728569478228       -0.07482721059929

          :  Hamiltonian                  GFN2-xTB          :
         :: total energy             -42.107418034510 Eh    ::
         :: gradient norm              0.002402380791 Eh/a0 ::
         :: HOMO-LUMO gap              0.520848121144 eV    ::
         :: SCC energy               -42.638369273442 Eh    ::
         :: -> dispersion             -0.020386358286 Eh    ::
         :: repulsion energy           0.530828092733 Eh    ::

    * Orbital Energies and Occupations

         #    Occupation            Energy/Eh            Energy/eV
      -------------------------------------------------------------
         1        2.0000           -0.8989176             -24.4608
       ...           ...                  ...                  ...
        25        1.9995           -0.6567015             -17.8698
        26        1.9994           -0.6535163             -17.7831
        27        1.9992           -0.6495069             -17.6740
        28        1.9985           -0.6402764             -17.4228
        29        1.9985           -0.6400010             -17.4153
        30        1.9979           -0.6349275             -17.2773
        31        1.9964           -0.6262993             -17.0425
        32        1.9908           -0.6113971             -16.6370
        33        1.9867           -0.6054978             -16.4764
        34        1.9632           -0.5891494             -16.0316
        35        1.9439           -0.5823039             -15.8453
        36        1.8633           -0.5675333             -15.4434
        37        1.4141           -0.5401229             -14.6975 (HOMO)
        38        0.8376           -0.5209821             -14.1766 (LUMO)
        39        0.0107           -0.4434578             -12.0671
        40        0.0005           -0.3932731             -10.7015
        41        0.0000           -0.3471485              -9.4464
        42        0.0000           -0.3223424              -8.7714
        43                         -0.2174308              -5.9166
        44                         -0.1881210              -5.1190
        45                         -0.1766450              -4.8068
        46                         -0.0925558              -2.5186
        47                         -0.0903624              -2.4589
        48                         -0.0600565              -1.6342
       ...                                ...                  ...
        67                          0.6307751              17.1643
      -------------------------------------------------------------
                  HL-Gap            0.0191408 Eh            0.5208 eV

     #   Z          covCN         q      C6AA      α(0)
     1   6 C        3.717    -0.085    22.242     6.737
     2   7 N        2.725     0.047    20.429     6.713
     3   6 C        2.759     0.121    25.320     8.240
     4   7 N        1.771    -0.197    26.058     7.559
     5   6 C        2.929     0.019    27.588     8.614
     6   6 C        1.929     0.026    30.424     8.908
     7   6 C        2.812     0.282    22.239     7.726
     8   8 O        0.856    -0.302    19.817     5.968
     9   7 N        2.774    -0.055    22.300     7.014
    10   6 C        3.692    -0.060    21.844     6.688
    11   6 C        2.797     0.322    21.535     7.602
    12   8 O        0.857    -0.320    20.144     6.017
    13   7 N        2.781    -0.023    21.692     6.917
    14   6 C        3.692    -0.070    22.024     6.715
    15   1 H        0.924     0.108     1.713     2.047
    16   1 H        0.924     0.110     1.699     2.038
    17   1 H        0.924     0.116     1.645     2.006
    18   1 H        0.925     0.120     1.611     1.985
    19   1 H        0.925     0.110     1.694     2.035
    20   1 H        0.924     0.110     1.699     2.038
    21   1 H        0.924     0.110     1.697     2.037
    22   1 H        0.924     0.096     1.824     2.112
    23   1 H        0.924     0.096     1.824     2.112
    24   1 H        0.925     0.122     1.599     1.977
    25   1 H        0.860     0.197     1.122     1.659

Wiberg/Mayer (AO) data.
largest (>0.10) Wiberg bond orders for each atom

     #   Z sym  total        # sym  WBO       # sym  WBO       # sym  WBO
 ---------------------------------------------------------------------------
     1   6 C    3.849 --    17 H    0.961    15 H    0.955    16 H    0.954
                             2 N    0.933
     2   7 N    3.492 --     6 C    1.371     3 C    1.024     1 C    0.933
     3   6 C    3.917 --     4 N    1.917     2 N    1.024    18 H    0.923
     4   7 N    2.990 --     3 C    1.917    25 H    0.923
     5   6 C    3.759 --     6 C    1.596    13 N    1.144     7 C    0.807
     6   6 C    3.212 --     5 C    1.596     2 N    1.371
     7   6 C    3.858 --     8 O    1.748     9 N    1.211     5 C    0.807
     8   8 O    2.079 --     7 C    1.748     9 N    0.140
     9   7 N    3.537 --     7 C    1.211    11 C    1.048    10 C    0.968
                             8 O    0.140    12 O    0.105
    10   6 C    3.888 --    19 H    0.970     9 N    0.968    21 H    0.955
                            20 H    0.954
    11   6 C    3.941 --    12 O    1.721    13 N    1.086     9 N    1.048
    12   8 O    2.015 --    11 C    1.721    13 N    0.107     9 N    0.105
    13   7 N    3.418 --     5 C    1.144    11 C    1.086    14 C    0.991
                            12 O    0.107
    14   6 C    3.910 --    13 N    0.991    24 H    0.965    22 H    0.956
                            23 H    0.956
    15   1 H    0.971 --     1 C    0.955
    16   1 H    0.971 --     1 C    0.954
    17   1 H    0.983 --     1 C    0.961
    18   1 H    0.969 --     3 C    0.923
    19   1 H    0.983 --    10 C    0.970
    20   1 H    0.973 --    10 C    0.954
    21   1 H    0.973 --    10 C    0.955
    22   1 H    0.972 --    14 C    0.956
    23   1 H    0.972 --    14 C    0.956
    24   1 H    0.983 --    14 C    0.965
    25   1 H    0.950 --     4 N    0.923
 ---------------------------------------------------------------------------

molecular dipole:
                 x           y           z       tot (Debye)
 q only:        1.517      -0.744       0.020
   full:        1.310      -0.616       0.021       3.679

           -------------------------------------------------
          | TOTAL ENERGY              -42.107418034510 Eh   |
          | GRADIENT NORM               0.002402380791 Eh/α |
          | HOMO-LUMO GAP               0.520848121144 eV   |
           -------------------------------------------------

 * finished run on 2024/06/05 at 20:00:09.695
