   * xtb version 6.6.1 (8d0f1dd) compiled by 'conda@1efc2f54142f' on 2023-08-01
          program call               : xtb xtbopt.xyz --opt crude --input .xc2 --gfn2

   ID    Z sym.   atoms
    1    6 C      1, 3, 5-7, 10, 11, 14
    2    7 N      2, 4, 9, 13
    3    8 O      8, 12
    4    1 H      15-25
########################################################################
[WARNING] Please study the warnings concerning your input carefully
-1- readin_getIntValue: could not parse ''
########################################################################

          :  Hamiltonian                  GFN2-xTB          :
 * total energy  :   -42.1074927 Eh     change       -0.2728484E-11 Eh
 * total energy  :   -42.1127458 Eh     change       -0.5253053E-02 Eh
 * total energy  :   -42.1170626 Eh     change       -0.4316833E-02 Eh
 * total energy  :   -42.1181755 Eh     change       -0.1112946E-02 Eh
 * total energy  :   -42.1185860 Eh     change       -0.4104764E-03 Eh
   *** GEOMETRY OPTIMIZATION CONVERGED AFTER 5 ITERATIONS ***

 final structure:
================
25
 xtb: 6.6.1 (8d0f1dd)
C            3.05087287258418        0.74440130566069        0.07297610967493
N            2.43655222330997       -0.58118833138036       -0.00218679573331
C            3.31256353238133       -1.67044158428662       -0.03785612976623
N            3.05440937487179       -2.88766476360244       -0.07808341727324
C           -0.06510061788926       -0.18928417259768       -0.01493751048373
C            1.14032969743351       -0.74608237408912       -0.01335254217082
C           -0.41173736085083        1.29467626384085       -0.04683432371174
O            0.35771537705069        2.21657831395606       -0.07212483392065
N           -1.76916118904865        1.32407525325233       -0.02425388311469
C           -2.58838351039331        2.51350021899552       -0.02836140329032
C           -2.33112468661991        0.04716984070165        0.00828861105392
O           -3.49391393583142       -0.22448184898175        0.02906452413670
N           -1.26998318728864       -0.84759021239099        0.01373677771492
C           -1.45207232361759       -2.27043401130302        0.03621520345606
H            3.62434458822683        0.82994230623352        0.99682947766901
H            3.71644416783110        0.87866139968158       -0.78066570322365
H            2.28753952539631        1.52156333789470        0.05194310910556
H            4.35759856230398       -1.37152249640577       -0.02164303373568
H           -1.94272880866438        3.38930162203012       -0.03145999881163
H           -3.22735615105172        2.51352075104287       -0.91310850441116
H           -3.22541443239181        2.51736699681151        0.85779369955334
H           -0.99287493668655       -2.70152092011207        0.92781398840929
H           -1.00865775767038       -2.72506522270218       -0.85194129690460
H           -2.52370606824334       -2.46816630634908        0.04835441096674
H            2.12427655895546       -3.28907682429260       -0.09503491728591

          :  Hamiltonian                  GFN2-xTB          :
         :: total energy             -42.118586023403 Eh    ::
         :: gradient norm              0.008387982682 Eh/a0 ::
         :: HOMO-LUMO gap              0.454985049864 eV    ::
         :: SCC energy               -42.661777909370 Eh    ::
         :: -> dispersion             -0.020806235096 Eh    ::
         :: repulsion energy           0.543125990821 Eh    ::

    * Orbital Energies and Occupations

         #    Occupation            Energy/Eh            Energy/eV
      -------------------------------------------------------------
         1        2.0000           -0.8996951             -24.4820
       ...           ...                  ...                  ...
        25        1.9994           -0.6574388             -17.8898
        26        1.9992           -0.6537796             -17.7902
        27        1.9991           -0.6506788             -17.7059
        28        1.9985           -0.6434778             -17.5099
        29        1.9983           -0.6413575             -17.4522
        30        1.9976           -0.6357750             -17.3003
        31        1.9957           -0.6263836             -17.0448
        32        1.9879           -0.6098812             -16.5957
        33        1.9841           -0.6054732             -16.4758
        34        1.9563           -0.5892721             -16.0349
        35        1.9294           -0.5814678             -15.8225
        36        1.8155           -0.5652920             -15.3824
        37        1.4146           -0.5430567             -14.7773 (HOMO)
        38        0.9134           -0.5263363             -14.3223 (LUMO)
        39        0.0109           -0.4466067             -12.1528
        40        0.0003           -0.3890270             -10.5860
        41        0.0000           -0.3500580              -9.5256
        42        0.0000           -0.3150436              -8.5728
        43                         -0.1972033              -5.3662
        44                         -0.1712266              -4.6593
        45                         -0.1496119              -4.0711
        46                         -0.0805537              -2.1920
        47                         -0.0667875              -1.8174
        48                         -0.0506185              -1.3774
       ...                                ...                  ...
        67                          0.6390457              17.3893
      -------------------------------------------------------------
                  HL-Gap            0.0167204 Eh            0.4550 eV

     #   Z          covCN         q      C6AA      α(0)
     1   6 C        3.703    -0.091    22.404     6.768
     2   7 N        2.730     0.060    20.191     6.674
     3   6 C        2.783     0.126    25.225     8.227
     4   7 N        1.773    -0.203    26.206     7.581
     5   6 C        2.971     0.027    27.388     8.584
     6   6 C        1.937     0.014    30.718     8.950
     7   6 C        2.829     0.279    22.293     7.737
     8   8 O        0.857    -0.320    20.139     6.017
     9   7 N        2.790    -0.061    22.413     7.031
    10   6 C        3.691    -0.059    21.836     6.687
    11   6 C        2.815     0.321    21.549     7.606
    12   8 O        0.857    -0.318    20.108     6.012
    13   7 N        2.785    -0.023    21.690     6.917
    14   6 C        3.691    -0.069    22.020     6.715
    15   1 H        0.924     0.109     1.708     2.044
    16   1 H        0.924     0.111     1.692     2.034
    17   1 H        0.925     0.127     1.559     1.952
    18   1 H        0.925     0.122     1.599     1.977
    19   1 H        0.925     0.111     1.685     2.030
    20   1 H        0.924     0.111     1.688     2.032
    21   1 H        0.924     0.111     1.689     2.032
    22   1 H        0.924     0.098     1.803     2.100
    23   1 H        0.924     0.098     1.806     2.102
    24   1 H        0.925     0.122     1.594     1.975
    25   1 H        0.860     0.197     1.121     1.659

Wiberg/Mayer (AO) data.
largest (>0.10) Wiberg bond orders for each atom

     #   Z sym  total        # sym  WBO       # sym  WBO       # sym  WBO
 ---------------------------------------------------------------------------
     1   6 C    3.839 --    15 H    0.953    16 H    0.952    17 H    0.950
                             2 N    0.936
     2   7 N    3.514 --     6 C    1.364     3 C    1.061     1 C    0.936
     3   6 C    3.918 --     4 N    1.881     2 N    1.061    18 H    0.924
     4   7 N    2.936 --     3 C    1.881    25 H    0.922
     5   6 C    3.772 --     6 C    1.558    13 N    1.145     7 C    0.878
     6   6 C    3.167 --     5 C    1.558     2 N    1.364
     7   6 C    3.862 --     8 O    1.710     9 N    1.180     5 C    0.878
     8   8 O    2.040 --     7 C    1.710     9 N    0.134
     9   7 N    3.519 --     7 C    1.180    11 C    1.057    10 C    0.974
                             8 O    0.134    12 O    0.106
    10   6 C    3.885 --     9 N    0.974    19 H    0.969    21 H    0.952
                            20 H    0.951
    11   6 C    3.941 --    12 O    1.720    13 N    1.079     9 N    1.057
    12   8 O    2.009 --    11 C    1.720     9 N    0.106    13 N    0.106
    13   7 N    3.416 --     5 C    1.145    11 C    1.079    14 C    0.993
                            12 O    0.106
    14   6 C    3.908 --    13 N    0.993    24 H    0.965    22 H    0.954
                            23 H    0.954
    15   1 H    0.970 --     1 C    0.953
    16   1 H    0.969 --     1 C    0.952
    17   1 H    0.979 --     1 C    0.950
    18   1 H    0.968 --     3 C    0.924
    19   1 H    0.982 --    10 C    0.969
    20   1 H    0.969 --    10 C    0.951
    21   1 H    0.970 --    10 C    0.952
    22   1 H    0.970 --    14 C    0.954
    23   1 H    0.970 --    14 C    0.954
    24   1 H    0.982 --    14 C    0.965
    25   1 H    0.950 --     4 N    0.922
 ---------------------------------------------------------------------------

molecular dipole:
                 x           y           z       tot (Debye)
 q only:        1.533      -0.736       0.035
   full:        1.380      -0.561       0.043       3.787

           -------------------------------------------------
          | TOTAL ENERGY              -42.118586023403 Eh   |
          | GRADIENT NORM               0.008387982682 Eh/α |
          | HOMO-LUMO GAP               0.454985049864 eV   |
           -------------------------------------------------

 * finished run on 2024/06/05 at 20:00:09.937
