   * xtb version 6.6.1 (8d0f1dd) compiled by 'conda@1efc2f54142f' on 2023-08-01
          program call               : xtb struc.xyz --opt loose --input .xc1 --gfn2

   ID    Z sym.   atoms
    1    7 N      1, 17
    2    6 C      2-6, 8, 9, 11-16, 18-23, 25, 26, 28-33
    3    8 O      7, 10, 24, 27
    4    1 H      34-72
constraining bond 14 48 to    5.1400000 Å, actual value:    2.8585867 Å

          :  Hamiltonian                  GFN2-xTB          :
 * total energy  :   -98.4747889 Eh     change       -0.4035485E-08 Eh
 * total energy  :   -98.8003121 Eh     change       -0.3255232E+00 Eh
 * total energy  :   -99.0015037 Eh     change       -0.2011917E+00 Eh
 * total energy  :   -99.1000372 Eh     change       -0.9853344E-01 Eh
 * total energy  :   -99.1482774 Eh     change       -0.4824024E-01 Eh
 * total energy  :   -99.1773304 Eh     change       -0.2905295E-01 Eh
 * total energy  :   -99.2007348 Eh     change       -0.2340440E-01 Eh
 * total energy  :   -99.2182531 Eh     change       -0.1751837E-01 Eh
 * total energy  :   -99.2311389 Eh     change       -0.1288578E-01 Eh
 * total energy  :   -99.2423779 Eh     change       -0.1123898E-01 Eh
 * total energy  :   -99.2774073 Eh     change       -0.1010049E-03 Eh
 * total energy  :   -99.2775151 Eh     change       -0.1078725E-03 Eh
 * total energy  :   -99.2776361 Eh     change       -0.1210218E-03 Eh
 * total energy  :   -99.2777843 Eh     change       -0.1481702E-03 Eh
 * total energy  :   -99.2779418 Eh     change       -0.1575122E-03 Eh
 * total energy  :   -99.2780732 Eh     change       -0.1313739E-03 Eh
 * total energy  :   -99.2781749 Eh     change       -0.1017344E-03 Eh
 * total energy  :   -99.2782643 Eh     change       -0.8934543E-04 Eh
 * total energy  :   -99.2782894 Eh     change       -0.2507401E-04 Eh
   *** GEOMETRY OPTIMIZATION CONVERGED AFTER 44 ITERATIONS ***

 final structure:
================
72
 xtb: 6.6.1 (8d0f1dd)
N           -1.51384424843068        2.73952680046954        2.05775149088799
C           -1.62548134593198        2.17680160475719        0.95856875664450
C           -2.87652973480113        1.98599121846097        0.15948625053932
C           -3.34397297547837        0.54297297451301        0.27736154868857
C           -4.37383206664535        0.08588980458514       -0.54546067346434
C           -4.85145123514955       -1.21176019955661       -0.45371028315172
O           -5.84810594845633       -1.72855822486908       -1.19645594076169
C           -6.53438316953301       -0.90106243359747       -2.10713822630881
C           -4.27446838127777       -2.10457319381924        0.49252139127389
O           -4.80463182326788       -3.34082142422908        0.51794765167522
C           -4.36423354300026       -4.26057095906129        1.49016472319420
C           -3.24248956443490       -1.64520071075829        1.29722914597303
C           -2.78612563646283       -0.33865950196163        1.19147686195821
C           -2.44824313967904        2.27394995521834       -1.30283892595052
C           -1.52897402762507        1.17553871486212       -1.85132728600292
C           -0.32027481039926        0.99268164270691       -1.01912076367859
N            0.22835867251603       -0.15356941837972       -0.78256961726528
C            1.51246724189502       -0.18409746275279       -0.10060134991244
C            2.62102407310789       -0.67797326578669       -1.03819740728344
C            3.98909427794853       -0.30622890646614       -0.57899274353087
C            4.41100314322644        1.01944698779365       -0.61627474474619
C            5.69484981577998        1.36711037023667       -0.23611985224439
C            6.59052482870948        0.39810592935541        0.20207356976107
O            7.86084800390633        0.61492498332182        0.57684077093575
C            8.39445623113941        1.91808145476542        0.50649356092594
C            6.16202477912465       -0.96018244331510        0.26529814287705
O            7.08185442843853       -1.82914416491770        0.71931128170642
C            6.75361821325888       -3.19563026820181        0.81983246819391
C            4.87483995604614       -1.28595007331591       -0.13520526750515
C           -0.26083254229262       -1.45096283894980       -1.22939912756214
C           -4.03779209781148        2.92417321139835        0.60297557277467
C           -4.52216875350865        2.58082901430342        2.00877777384432
C           -3.66982579159597        4.40227972179697        0.52583841607618
H           -4.81882349260517        0.75873785980849       -1.25956885305186
H           -6.99465654524457       -0.04628971733015       -1.60274185085483
H           -7.31312031423352       -1.52607378680562       -2.53937037387110
H           -5.87365146261393       -0.54585675770920       -2.90434463205188
H           -4.52014995102463       -3.87684793980336        2.50269878188650
H           -4.97088800233352       -5.15211305686611        1.34412506441380
H           -3.30854470240041       -4.51521980255438        1.35376382156454
H           -2.79095469566838       -2.29798835952719        2.02647832410944
H           -1.99767457170529       -0.01051118781540        1.85078538217172
H           -3.32807052614884        2.35652479821707       -1.93915036103771
H           -1.92244981594598        3.22858194219239       -1.33263751672350
H           -2.10501936521977        0.25368495140667       -1.99685501416388
H           -1.16175966695105        1.48869736213009       -2.83450635893268
H           -0.74024559794489        1.76623465640916        0.33437631942061
H            1.95327747971284        0.48208264777905       -3.25843729366627
H            1.44250925481138       -0.83773354434790        0.77588147988174
H            1.74317332832255        0.82938493285838        0.23365126191926
H            2.42853829508315       -0.17911866510669       -2.04472690467280
H            2.54611583336884       -1.75491406881766       -1.18999435432730
H            3.73969197817764        1.78330961409036       -0.97749719230842
H            5.99988706451392        2.39927016830209       -0.29432268758522
H            7.85705627963932        2.60704975584122        1.16454204346215
H            8.37756951262286        2.30117851554162       -0.51793229038771
H            9.42602007881472        1.82857848054018        0.84197147641624
H            7.64154118707873       -3.68078979354356        1.22045214921031
H            5.91388226953576       -3.35560471879770        1.50323820267747
H            6.51740376783237       -3.62357993419322       -0.15908311749262
H            4.54776295434087       -2.31341376153884       -0.10883151548594
H            0.03122683971674       -1.63603308098102       -2.26402178059095
H           -1.34683580329918       -1.48679652218771       -1.15382897927101
H            0.15757756846595       -2.22844385366796       -0.59456830280714
H           -4.86274885224698        2.74312223580094       -0.09502971543215
H           -3.73018003382233        2.75770635182068        2.73035193437667
H           -4.83234725143572        1.54074349329511        2.07557698294400
H           -5.37078767516093        3.20889293340029        2.26665470686486
H           -2.82997287717803        4.62184344594555        1.17875434387664
H           -3.42257313304790        4.70507097821863       -0.48798777388149
H           -4.51694184199471        4.99878365263981        0.85431914739721
H           -0.60562474617231        2.84863039932083        2.49254312004351

          :  Hamiltonian                  GFN2-xTB          :
         :: total energy             -99.278289356053 Eh    ::
         :: gradient norm              0.001565010331 Eh/a0 ::
         :: HOMO-LUMO gap              0.302783046325 eV    ::
         :: SCC energy              -100.642289222342 Eh    ::
         :: -> dispersion             -0.077363202002 Eh    ::
         :: repulsion energy           1.362625979593 Eh    ::

    * Orbital Energies and Occupations

         #    Occupation            Energy/Eh            Energy/eV
      -------------------------------------------------------------
         1        2.0000           -0.8175743             -22.2473
       ...           ...                  ...                  ...
        78        1.9975           -0.5361169             -14.5885
        79        1.9969           -0.5327630             -14.4972
        80        1.9963           -0.5296307             -14.4120
        81        1.9949           -0.5245677             -14.2742
        82        1.9944           -0.5230520             -14.2330
        83        1.9931           -0.5197889             -14.1442
        84        1.9914           -0.5163196             -14.0498
        85        1.9743           -0.4989047             -13.5759
        86        1.9697           -0.4962573             -13.5038
        87        1.9671           -0.4949160             -13.4673
        88        1.8205           -0.4668216             -12.7029
        89        1.7774           -0.4630349             -12.5998
        90        1.4172           -0.4442118             -12.0876 (HOMO)
        91        1.0926           -0.4330847             -11.7848 (LUMO)
        92        0.0137           -0.3513601              -9.5610
        93        0.0124           -0.3497967              -9.5185
        94        0.0024           -0.3239952              -8.8164
        95        0.0020           -0.3210300              -8.7357
        96        0.0016           -0.3170897              -8.6285
        97        0.0015           -0.3157538              -8.5921
        98        0.0000           -0.1985465              -5.4027
        99        0.0000           -0.1934159              -5.2631
       100                         -0.1208956              -3.2897
       101                         -0.0718481              -1.9551
       ...                                ...                  ...
       171                          0.5670395              15.4299
      -------------------------------------------------------------
                  HL-Gap            0.0111271 Eh            0.3028 eV

     #   Z          covCN         q      C6AA      α(0)
     1   7 N        1.773    -0.237    27.003     7.695
     2   6 C        2.820     0.095    25.892     8.337
     3   6 C        3.909     0.010    20.346     6.411
     4   6 C        2.975     0.008    27.834     8.654
     5   6 C        2.920    -0.077    29.913     8.969
     6   6 C        2.862     0.132    25.110     8.214
     7   8 O        1.706    -0.223    17.697     5.680
     8   6 C        3.644     0.026    20.478     6.504
     9   6 C        2.864     0.131    25.128     8.217
    10   8 O        1.706    -0.222    17.677     5.677
    11   6 C        3.645     0.025    20.485     6.505
    12   6 C        2.913    -0.071    29.773     8.948
    13   6 C        2.921    -0.049    29.212     8.863
    14   6 C        3.819    -0.065    21.725     6.633
    15   6 C        3.804    -0.056    21.570     6.612
    16   6 C        2.002    -0.068    32.891     9.262
    17   7 N        2.730     0.024    20.839     6.780
    18   6 C        3.766    -0.013    20.840     6.506
    19   6 C        3.801    -0.072    21.883     6.660
    20   6 C        2.967     0.011    27.767     8.643
    21   6 C        2.921    -0.044    29.084     8.844
    22   6 C        2.912    -0.064    29.596     8.921
    23   6 C        2.864     0.137    25.006     8.197
    24   8 O        1.706    -0.211    17.516     5.651
    25   6 C        3.645     0.022    20.539     6.514
    26   6 C        2.862     0.137    25.011     8.197
    27   8 O        1.706    -0.216    17.581     5.661
    28   6 C        3.645     0.024    20.507     6.509
    29   6 C        2.918    -0.076    29.897     8.966
    30   6 C        3.697    -0.067    21.954     6.702
    31   6 C        3.852    -0.007    20.667     6.466
    32   6 C        3.756    -0.119    22.840     6.814
    33   6 C        3.755    -0.118    22.809     6.810
    34   1 H        0.926     0.056     2.245     2.343
    35   1 H        0.924     0.056     2.243     2.342
    36   1 H        0.925     0.084     1.935     2.175
    37   1 H        0.924     0.052     2.293     2.368
    38   1 H        0.924     0.058     2.228     2.334
    39   1 H        0.925     0.084     1.936     2.176
    40   1 H        0.924     0.052     2.300     2.372
    41   1 H        0.926     0.055     2.259     2.350
    42   1 H        0.926     0.039     2.457     2.451
    43   1 H        0.925     0.055     2.256     2.349
    44   1 H        0.924     0.060     2.202     2.321
    45   1 H        0.924     0.045     2.385     2.415
    46   1 H        0.924     0.086     1.921     2.167
    47   1 H        0.984     0.075     2.024     2.223
    48   1 H        0.000    -0.179    23.243     8.815
    49   1 H        0.924     0.058     2.228     2.334
    50   1 H        0.924     0.074     2.047     2.238
    51   1 H        0.915     0.110     1.699     2.039
    52   1 H        0.925     0.056     2.244     2.343
    53   1 H        0.926     0.057     2.232     2.336
    54   1 H        0.926     0.063     2.168     2.302
    55   1 H        0.924     0.059     2.212     2.326
    56   1 H        0.924     0.061     2.189     2.314
    57   1 H        0.925     0.086     1.917     2.165
    58   1 H        0.925     0.085     1.925     2.170
    59   1 H        0.924     0.054     2.266     2.354
    60   1 H        0.924     0.058     2.224     2.332
    61   1 H        0.926     0.054     2.266     2.354
    62   1 H        0.924     0.076     2.022     2.223
    63   1 H        0.925     0.064     2.152     2.294
    64   1 H        0.925     0.067     2.118     2.276
    65   1 H        0.924     0.044     2.402     2.424
    66   1 H        0.925     0.069     2.100     2.266
    67   1 H        0.925     0.037     2.486     2.465
    68   1 H        0.925     0.055     2.263     2.352
    69   1 H        0.925     0.055     2.257     2.349
    70   1 H        0.925     0.041     2.436     2.441
    71   1 H        0.925     0.057     2.230     2.335
    72   1 H        0.860     0.173     1.257     1.756

Wiberg/Mayer (AO) data.
largest (>0.10) Wiberg bond orders for each atom

     #   Z sym  total        # sym  WBO       # sym  WBO       # sym  WBO
 ---------------------------------------------------------------------------
     1   7 N    3.080 --     2 C    1.982    72 H    0.931
     2   6 C    3.851 --     1 N    1.982     3 C    0.995    47 H    0.730
     3   6 C    3.963 --     2 C    0.995     4 C    0.966    14 C    0.955
                            31 C    0.933
     4   6 C    3.938 --    13 C    1.406     5 C    1.373     3 C    0.966
     5   6 C    3.955 --     6 C    1.394     4 C    1.373    34 H    0.957
     6   6 C    3.895 --     5 C    1.394     9 C    1.214     7 O    1.108
     7   8 O    2.254 --     6 C    1.108     8 C    0.976
     8   6 C    3.927 --    36 H    0.976     7 O    0.976    35 H    0.972
                            37 H    0.972
     9   6 C    3.889 --    12 C    1.385     6 C    1.214    10 O    1.110
    10   8 O    2.252 --     9 C    1.110    11 C    0.976
    11   6 C    3.927 --    39 H    0.976    10 O    0.976    38 H    0.972
                            40 H    0.972
    12   6 C    3.956 --    13 C    1.411     9 C    1.385    41 H    0.963
    13   6 C    3.943 --    12 C    1.411     4 C    1.406    42 H    0.963
    14   6 C    3.982 --    15 C    0.993    44 H    0.971    43 H    0.970
                             3 C    0.955
    15   6 C    3.969 --    16 C    1.053    14 C    0.993    45 H    0.937
                            46 H    0.927
    16   6 C    3.064 --    17 N    1.562    15 C    1.053    47 H    0.202
    17   7 N    3.617 --    16 C    1.562    18 C    0.976    30 C    0.970
    18   6 C    3.950 --    19 C    0.976    17 N    0.976    50 H    0.968
                            49 H    0.960
    19   6 C    3.839 --    20 C    1.031    18 C    0.976    52 H    0.969
                            51 H    0.796
    20   6 C    3.927 --    29 C    1.375    21 C    1.372    19 C    1.031
    21   6 C    3.917 --    22 C    1.437    20 C    1.372    53 H    0.966
    22   6 C    3.951 --    21 C    1.437    23 C    1.365    54 H    0.962
    23   6 C    3.864 --    22 C    1.365    26 C    1.205    24 O    1.123
    24   8 O    2.251 --    23 C    1.123    25 C    0.973
    25   6 C    3.923 --    57 H    0.976    24 O    0.973    55 H    0.971
                            56 H    0.971
    26   6 C    3.878 --    29 C    1.388    23 C    1.205    27 O    1.115
    27   8 O    2.251 --    26 C    1.115    28 C    0.976
    28   6 C    3.926 --    58 H    0.976    27 O    0.976    59 H    0.972
                            60 H    0.971
    29   6 C    3.938 --    26 C    1.388    20 C    1.375    61 H    0.961
    30   6 C    3.938 --    64 H    0.977    63 H    0.970    17 N    0.970
                            62 H    0.968
    31   6 C    3.961 --    33 C    1.009    32 C    1.009    65 H    0.956
                             3 C    0.933
    32   6 C    3.974 --    31 C    1.009    67 H    0.981    68 H    0.980
                            66 H    0.972
    33   6 C    3.981 --    31 C    1.009    70 H    0.982    71 H    0.979
                            69 H    0.978
    34   1 H    0.995 --     5 C    0.957
    35   1 H    0.991 --     8 C    0.972
    36   1 H    0.992 --     8 C    0.976
    37   1 H    0.992 --     8 C    0.972
    38   1 H    0.991 --    11 C    0.972
    39   1 H    0.992 --    11 C    0.976
    40   1 H    0.991 --    11 C    0.972
    41   1 H    0.995 --    12 C    0.963
    42   1 H    0.998 --    13 C    0.963
    43   1 H    0.996 --    14 C    0.970
    44   1 H    0.994 --    14 C    0.971
    45   1 H    0.969 --    15 C    0.937
    46   1 H    0.990 --    15 C    0.927
    47   1 H    0.968 --     2 C    0.730    16 C    0.202
    48   1 H    0.198 --    51 H    0.162
    49   1 H    0.988 --    18 C    0.960
    50   1 H    0.994 --    18 C    0.968
    51   1 H    0.983 --    19 C    0.796    48 H    0.162
    52   1 H    0.993 --    19 C    0.969
    53   1 H    0.995 --    21 C    0.966
    54   1 H    0.994 --    22 C    0.962
    55   1 H    0.989 --    25 C    0.971
    56   1 H    0.988 --    25 C    0.971
    57   1 H    0.992 --    25 C    0.976
    58   1 H    0.992 --    28 C    0.976
    59   1 H    0.990 --    28 C    0.972
    60   1 H    0.990 --    28 C    0.971
    61   1 H    0.995 --    29 C    0.961
    62   1 H    0.992 --    30 C    0.968
    63   1 H    0.995 --    30 C    0.970
    64   1 H    0.993 --    30 C    0.977
    65   1 H    0.988 --    31 C    0.956
    66   1 H    0.990 --    32 C    0.972
    67   1 H    0.996 --    32 C    0.981
    68   1 H    0.992 --    32 C    0.980
    69   1 H    0.993 --    33 C    0.978
    70   1 H    0.996 --    33 C    0.982
    71   1 H    0.992 --    33 C    0.979
    72   1 H    0.960 --     1 N    0.931
 ---------------------------------------------------------------------------

molecular dipole:
                 x           y           z       tot (Debye)
 q only:        0.360      -0.110       0.502
   full:        0.423      -0.408       0.238       1.610

           -------------------------------------------------
          | TOTAL ENERGY              -99.278289356053 Eh   |
          | GRADIENT NORM               0.001565010331 Eh/α |
          | HOMO-LUMO GAP               0.302783046325 eV   |
           -------------------------------------------------

 * finished run on 2024/04/06 at 11:13:15.098
