   * xtb version 6.6.1 (8d0f1dd) compiled by 'conda@1efc2f54142f' on 2023-08-01
          program call               : xtb xtbopt.xyz --opt crude --input .xc2 --gfn2

   ID    Z sym.   atoms
    1    6 C      1, 3, 5-7, 10, 11, 14
    2    7 N      2, 4, 9, 13
    3    8 O      8, 12
    4    1 H      15-25
########################################################################
[WARNING] Please study the warnings concerning your input carefully
-1- readin_getIntValue: could not parse ''
########################################################################

          :  Hamiltonian                  GFN2-xTB          :
 * total energy  :   -42.0996381 Eh     change       -0.3112177E-11 Eh
 * total energy  :   -42.1015771 Eh     change       -0.1938975E-02 Eh
 * total energy  :   -42.1023114 Eh     change       -0.7343382E-03 Eh
 * total energy  :   -42.1024570 Eh     change       -0.1455820E-03 Eh
   *** GEOMETRY OPTIMIZATION CONVERGED AFTER 4 ITERATIONS ***

 final structure:
================
25
 xtb: 6.6.1 (8d0f1dd)
C            2.07846044645730        1.54950277139319       -0.32309730276997
N            1.69215253255897        0.16103694851697       -0.30252465218211
C            2.50670924800189       -0.81157097290485       -0.68052669828475
N            1.93665023914264       -1.99424405671450       -0.47152927142807
C            0.67338500948607       -1.82776510198137        0.11205526890722
C            0.51728196905515       -0.39273543305153        0.19712389301193
C           -0.57706676888069        0.30617444512484        0.79618232703990
O           -1.40361770235434       -0.20372227469087        1.53160843908004
N           -0.65732191679962        1.71441572749744        0.54539197422499
C           -1.13540891322138        2.17069850886966       -0.75375135099311
C           -2.54698069451375        1.90815125418504       -0.90400948328090
O           -3.61085659626321        1.57799093245891       -0.59285897249723
N            0.02095015665739       -2.89051368530974        0.37935669234541
C           -1.24034489253053       -3.09867966611268        0.96669838183908
H            1.59098781437820        2.08018901105899        0.49125663479612
H            3.15837035604104        1.62063747590107       -0.20487284644134
H            1.80520993922935        2.01822687466978       -1.26978137104736
H            3.48878436076299       -0.66000331324215       -1.08622829245568
H           -1.19781985480342        2.13520092015052        1.29967488203124
H           -0.58164484521864        1.67403588827847       -1.55861355872537
H           -0.96598420467855        3.25335186337729       -0.83856251233399
H           -1.13366151742619       -3.90941252531714        1.69200571773968
H           -1.93497134486507       -3.44291449385021        0.19521554150334
H           -1.65240758578763       -2.21297231121225        1.45856699377927
H            2.32957627967128       -2.90684024549544       -0.64760881595629

          :  Hamiltonian                  GFN2-xTB          :
         :: total energy             -42.102457028622 Eh    ::
         :: gradient norm              0.004132944538 Eh/a0 ::
         :: HOMO-LUMO gap              1.225131524448 eV    ::
         :: SCC energy               -42.634850303272 Eh    ::
         :: -> dispersion             -0.021740513704 Eh    ::
         :: repulsion energy           0.532161577892 Eh    ::

    * Orbital Energies and Occupations

         #    Occupation            Energy/Eh            Energy/eV
      -------------------------------------------------------------
         1        2.0000           -0.9261411             -25.2016
       ...           ...                  ...                  ...
        25        2.0000           -0.6656358             -18.1129
        26        2.0000           -0.6546333             -17.8135
        27        2.0000           -0.6423778             -17.4800
        28        1.9999           -0.6387882             -17.3823
        29        1.9999           -0.6321312             -17.2012
        30        1.9999           -0.6302614             -17.1503
        31        1.9995           -0.6031900             -16.4136
        32        1.9994           -0.6002039             -16.3324
        33        1.9970           -0.5745718             -15.6349
        34        1.9959           -0.5693089             -15.4917
        35        1.9785           -0.5430559             -14.7773
        36        1.7635           -0.5032515             -13.6942
        37        1.6481           -0.4958909             -13.4939 (HOMO)
        38        0.4286           -0.4508681             -12.2687 (LUMO)
        39        0.1448           -0.4310636             -11.7298
        40        0.0428           -0.4109143             -11.1815
        41        0.0021           -0.3629022              -9.8751
        42        0.0000           -0.2917405              -7.9387
        43                         -0.1740863              -4.7371
        44                         -0.1481605              -4.0317
        45                         -0.1217353              -3.3126
        46                         -0.0653321              -1.7778
        47                         -0.0648538              -1.7648
        48                         -0.0502235              -1.3667
       ...                                ...                  ...
        67                          0.7284854              19.8231
      -------------------------------------------------------------
                  HL-Gap            0.0450228 Eh            1.2251 eV

     #   Z          covCN         q      C6AA      α(0)
     1   6 C        3.695    -0.090    22.410     6.772
     2   7 N        2.818     0.052    20.330     6.697
     3   6 C        2.982     0.068    26.472     8.440
     4   7 N        2.799    -0.074    22.669     7.071
     5   6 C        2.941     0.142    24.898     8.184
     6   6 C        3.050    -0.041    28.980     8.829
     7   6 C        2.750     0.264    22.545     7.775
     8   8 O        0.858    -0.392    21.526     6.221
     9   7 N        2.687    -0.233    26.104     7.588
    10   6 C        3.738    -0.001    20.678     6.489
    11   6 C        1.842     0.223    25.921     8.225
    12   8 O        0.856    -0.073    16.129     5.384
    13   7 N        1.835    -0.191    25.953     7.549
    14   6 C        3.689    -0.047    21.618     6.654
    15   1 H        0.925     0.111     1.685     2.030
    16   1 H        0.925     0.098     1.803     2.100
    17   1 H        0.924     0.088     1.895     2.153
    18   1 H        0.926     0.108     1.711     2.045
    19   1 H        0.860     0.201     1.103     1.645
    20   1 H        0.924     0.123     1.587     1.970
    21   1 H        0.923     0.140     1.464     1.892
    22   1 H        0.924     0.099     1.798     2.097
    23   1 H        0.924     0.091     1.865     2.136
    24   1 H        0.924     0.105     1.736     2.060
    25   1 H        0.860     0.228     0.973     1.545

Wiberg/Mayer (AO) data.
largest (>0.10) Wiberg bond orders for each atom

     #   Z sym  total        # sym  WBO       # sym  WBO       # sym  WBO
 ---------------------------------------------------------------------------
     1   6 C    3.935 --     2 N    0.990    16 H    0.972    15 H    0.963
                            17 H    0.963
     2   7 N    3.658 --     3 C    1.382     6 C    1.123     1 C    0.990
                             4 N    0.105
     3   6 C    3.879 --     2 N    1.382     4 N    1.339    18 H    0.952
     4   7 N    3.550 --     3 C    1.339     5 C    1.074    25 H    0.920
                             2 N    0.105
     5   6 C    3.940 --    13 N    1.570     6 C    1.150     4 N    1.074
     6   6 C    3.744 --     7 C    1.162     5 C    1.150     2 N    1.123
     7   6 C    3.918 --     8 O    1.658     6 C    1.162     9 N    1.008
     8   8 O    1.963 --     7 C    1.658
     9   7 N    3.167 --     7 C    1.008    10 C    0.973    19 H    0.931
    10   6 C    3.950 --    11 C    1.072     9 N    0.973    20 H    0.921
                            21 H    0.910
    11   6 C    3.337 --    12 O    2.157    10 C    1.072
    12   8 O    2.292 --    11 C    2.157
    13   7 N    2.839 --     5 C    1.570    14 C    1.069
    14   6 C    3.893 --    13 N    1.069    22 H    0.937    23 H    0.930
                            24 H    0.913
    15   1 H    0.987 --     1 C    0.963
    16   1 H    0.989 --     1 C    0.972
    17   1 H    0.989 --     1 C    0.963
    18   1 H    0.986 --     3 C    0.952
    19   1 H    0.959 --     9 N    0.931
    20   1 H    0.974 --    10 C    0.921
    21   1 H    0.969 --    10 C    0.910
    22   1 H    0.957 --    14 C    0.937
    23   1 H    0.959 --    14 C    0.930
    24   1 H    0.939 --    14 C    0.913
    25   1 H    0.947 --     4 N    0.920
 ---------------------------------------------------------------------------

molecular dipole:
                 x           y           z       tot (Debye)
 q only:        1.799       0.894      -1.581
   full:        1.875       1.106      -1.703       7.026

           -------------------------------------------------
          | TOTAL ENERGY              -42.102457028622 Eh   |
          | GRADIENT NORM               0.004132944538 Eh/α |
          | HOMO-LUMO GAP               1.225131524448 eV   |
           -------------------------------------------------

 * finished run on 2024/06/05 at 19:58:01.260
