   * xtb version 6.6.1 (8d0f1dd) compiled by 'conda@1efc2f54142f' on 2023-08-01
          program call               : xtb xtbopt.xyz --opt crude --input .xc2 --gfn2

   ID    Z sym.   atoms
    1    6 C      1, 3, 5-7, 10, 11, 14
    2    7 N      2, 4, 9, 13
    3    8 O      8, 12
    4    1 H      15-25
########################################################################
[WARNING] Please study the warnings concerning your input carefully
-1- readin_getIntValue: could not parse ''
########################################################################

          :  Hamiltonian                  GFN2-xTB          :
 * total energy  :   -42.1990434 Eh     change       -0.7105427E-13 Eh
   *** GEOMETRY OPTIMIZATION CONVERGED AFTER 1 ITERATIONS ***

 final structure:
================
25
 xtb: 6.6.1 (8d0f1dd)
C            3.41787148103928        0.70346955998808        0.07558508241206
N            2.45322176910491       -0.20125297286962        0.02832008401105
C            2.57667780724842       -1.54818205835647       -0.03735737724295
N            1.33585251482156       -2.13342265183893       -0.06753186666751
C            0.40669525435822       -1.16745572205088       -0.02784195347882
C            1.07358873054177        0.07327214628097        0.03166446666265
C            0.32157415656815        1.24549622027821        0.06213887038280
O            0.86366782825198        2.45473210964072        0.13895800515164
N           -1.04675553005236        1.09913770902332        0.01258284121401
C           -1.88221724647901        2.29311139420181       -0.01250241015232
C           -1.73051519057488       -0.12637238609377       -0.03224620004568
O           -2.92861092258198       -0.17794948962524       -0.06736890034221
N           -0.94671762719237       -1.27490137954935       -0.03051581138025
C           -1.59419655374643       -2.57230583474612       -0.04396639145201
H            3.16207594267004        1.74087738139998        0.13228024728286
H            4.43870414178974        0.37769086143066        0.05690199512549
H            0.20761212319481        3.17536377457875        0.17815471125925
H            3.50211991673122       -2.07950568733295       -0.05016662486496
H           -1.64000463326538        2.91321143479932       -0.87491569796194
H           -2.91624598711302        1.96328093241225       -0.10456603042228
H           -1.78572038405226        2.86123309561647        0.91701727502311
H           -1.31257674995874       -3.14260439545632        0.84210885685523
H           -1.32593282279204       -3.12437700845425       -0.94559335966910
H           -2.67008124190679       -2.40636687266504       -0.03557024269594
H            1.18034473749240       -3.12794161899154       -0.11439795109507

          :  Hamiltonian                  GFN2-xTB          :
         :: total energy             -42.199043442122 Eh    ::
         :: gradient norm              0.007982522049 Eh/a0 ::
         :: HOMO-LUMO gap              1.417264644159 eV    ::
         :: SCC energy               -42.719737308160 Eh    ::
         :: -> dispersion             -0.023004463082 Eh    ::
         :: repulsion energy           0.520576543974 Eh    ::

    * Orbital Energies and Occupations

         #    Occupation            Energy/Eh            Energy/eV
      -------------------------------------------------------------
         1        2.0000           -0.8972363             -24.4150
       ...           ...                  ...                  ...
        25        2.0000           -0.6644888             -18.0817
        26        2.0000           -0.6596599             -17.9503
        27        2.0000           -0.6564140             -17.8619
        28        2.0000           -0.6498578             -17.6835
        29        2.0000           -0.6456276             -17.5684
        30        2.0000           -0.6227084             -16.9448
        31        1.9999           -0.6183989             -16.8275
        32        1.9999           -0.6086159             -16.5613
        33        1.9998           -0.6035582             -16.4237
        34        1.9996           -0.5899594             -16.0536
        35        1.9990           -0.5746629             -15.6374
        36        1.9966           -0.5543560             -15.0848
        37        1.6657           -0.4789676             -13.0334 (HOMO)
        38        0.3133           -0.4268841             -11.6161 (LUMO)
        39        0.0231           -0.3830668             -10.4238
        40        0.0031           -0.3509728              -9.5505
        41        0.0001           -0.2886530              -7.8546
        42        0.0000           -0.2080806              -5.6622
        43                         -0.1666933              -4.5360
        44                         -0.1359812              -3.7002
        45                         -0.1224012              -3.3307
        46                         -0.1155587              -3.1445
        47                         -0.0643322              -1.7506
        48                         -0.0456434              -1.2420
       ...                                ...                  ...
        67                          0.5305735              14.4376
      -------------------------------------------------------------
                  HL-Gap            0.0520835 Eh            1.4173 eV

     #   Z          covCN         q      C6AA      α(0)
     1   6 C        2.790    -0.103    30.577     9.058
     2   7 N        2.795     0.117    19.243     6.515
     3   6 C        3.028    -0.009    28.218     8.713
     4   7 N        2.768    -0.061    22.421     7.033
     5   6 C        3.021     0.099    25.789     8.330
     6   6 C        3.084    -0.020    28.405     8.737
     7   6 C        2.774     0.200    23.747     7.981
     8   8 O        1.659    -0.329    19.515     5.964
     9   7 N        2.743    -0.084    22.885     7.105
    10   6 C        3.702    -0.071    22.030     6.711
    11   6 C        2.723     0.315    21.642     7.616
    12   8 O        0.859    -0.372    21.132     6.163
    13   7 N        2.737    -0.058    22.358     7.023
    14   6 C        3.698    -0.071    22.032     6.713
    15   1 H        0.927     0.099     1.791     2.093
    16   1 H        0.926     0.088     1.895     2.152
    17   1 H        0.804     0.353     0.582     1.199
    18   1 H        0.927     0.105     1.742     2.064
    19   1 H        0.925     0.083     1.951     2.184
    20   1 H        0.925     0.130     1.534     1.937
    21   1 H        0.924     0.082     1.957     2.188
    22   1 H        0.924     0.083     1.949     2.183
    23   1 H        0.924     0.083     1.949     2.183
    24   1 H        0.925     0.124     1.583     1.968
    25   1 H        0.860     0.218     1.018     1.581

Wiberg/Mayer (AO) data.
largest (>0.10) Wiberg bond orders for each atom

     #   Z sym  total        # sym  WBO       # sym  WBO       # sym  WBO
 ---------------------------------------------------------------------------
     1   6 C    3.580 --     2 N    1.347    16 H    0.970    15 H    0.968
                             3 C    0.161
     2   7 N    3.733 --     1 C    1.347     3 C    1.232     6 C    1.065
     3   6 C    3.680 --     2 N    1.232     4 N    1.176    18 H    0.960
                             1 C    0.161
     4   7 N    3.550 --     5 C    1.261     3 C    1.176    25 H    0.924
     5   6 C    3.849 --     4 N    1.261     6 C    1.233    13 N    1.162
     6   6 C    3.906 --     7 C    1.309     5 C    1.233     2 N    1.065
     7   6 C    3.748 --     6 C    1.309     9 N    1.161     8 O    1.159
     8   8 O    2.176 --     7 C    1.159    17 H    0.837
     9   7 N    3.499 --     7 C    1.161    11 C    1.067    10 C    0.976
                            12 O    0.128
    10   6 C    3.928 --     9 N    0.976    19 H    0.968    21 H    0.967
                            20 H    0.959
    11   6 C    3.944 --    12 O    1.697    13 N    1.089     9 N    1.067
    12   8 O    2.057 --    11 C    1.697    13 N    0.134     9 N    0.128
    13   7 N    3.509 --     5 C    1.162    11 C    1.089    14 C    0.974
                            12 O    0.134
    14   6 C    3.927 --    13 N    0.974    22 H    0.971    23 H    0.971
                            24 H    0.966
    15   1 H    0.990 --     1 C    0.968
    16   1 H    0.991 --     1 C    0.970
    17   1 H    0.875 --     8 O    0.837
    18   1 H    0.988 --     3 C    0.960
    19   1 H    0.989 --    10 C    0.968
    20   1 H    0.982 --    10 C    0.959
    21   1 H    0.989 --    10 C    0.967
    22   1 H    0.989 --    14 C    0.971
    23   1 H    0.989 --    14 C    0.971
    24   1 H    0.984 --    14 C    0.966
    25   1 H    0.952 --     4 N    0.924
 ---------------------------------------------------------------------------

molecular dipole:
                 x           y           z       tot (Debye)
 q only:        1.429      -0.491       0.019
   full:        1.513      -0.576       0.021       4.115

           -------------------------------------------------
          | TOTAL ENERGY              -42.199043442122 Eh   |
          | GRADIENT NORM               0.007982522049 Eh/α |
          | HOMO-LUMO GAP               1.417264644159 eV   |
           -------------------------------------------------

 * finished run on 2024/06/05 at 20:00:10.188
