   * xtb version 6.6.1 (8d0f1dd) compiled by 'conda@1efc2f54142f' on 2023-08-01
          program call               : xtb xtbopt.xyz --opt crude --input .xc2 --gfn2

   ID    Z sym.   atoms
    1    7 N      1, 17
    2    6 C      2-6, 8, 9, 11-16, 18-23, 25, 26, 28-33
    3    8 O      7, 10, 24, 27
    4    1 H      34-72

          :  Hamiltonian                  GFN2-xTB          :
 * total energy  :   -99.3163151 Eh     change       -0.2651745E-10 Eh
   *** GEOMETRY OPTIMIZATION CONVERGED AFTER 1 ITERATIONS ***

 final structure:
================
72
 xtb: 6.6.1 (8d0f1dd)
N           -1.42339463566487        2.63295739474249        2.44020338286893
C           -1.36726511200976        1.76938220521924        1.53719808943480
C           -2.42000915355801        1.64826341372072        0.43079374461399
C           -3.06905212520061        0.27458470088599        0.50713362705961
C           -4.01295711217916       -0.07833616504318       -0.46209766053894
C           -4.66512950351877       -1.29958946253130       -0.42298411339635
O           -5.58314298792490       -1.72152124929730       -1.31609635858242
C           -5.94399526658853       -0.87964099726907       -2.38591250027859
C           -4.38246755920028       -2.20901080141412        0.63312063477803
O           -5.06839813063623       -3.36720170773104        0.59973696224196
C           -4.90359772767651       -4.29203257084867        1.65023522146492
C           -3.46050564266569       -1.84041022884810        1.60042586853926
C           -2.81503972867625       -0.61254018964971        1.53998909092833
C           -1.62359358300625        1.85501180132234       -0.87110254532235
C           -1.62310802498545        0.93382318282677       -2.05881625920725
C           -0.36390796962315        1.08765271660303       -1.26331940694047
N            0.18115765724424        0.02962157550653       -0.46975186374578
C            1.58640155442254        0.16809499420690       -0.16019286190248
C            2.54661540030797       -0.18737119184374       -1.31929151136677
C            3.96889094331759        0.01847082466717       -0.89233505272255
C            4.58966584331565        1.24934683131295       -1.05384203895686
C            5.89519501852453        1.45021669155026       -0.63540126837716
C            6.61183887082816        0.42170449247890       -0.03846679628188
O            7.87835491385130        0.50055024278620        0.40755487677515
C            8.58940053642248        1.70797501554056        0.25919591534600
C            5.98528861919131       -0.84545210782199        0.13309828002290
O            6.75467185509908       -1.78755618133263        0.71122387720132
C            6.23726761945483       -3.08226121713545        0.90519019689352
C            4.67733208688698       -1.02020234254704       -0.29230886390587
C           -0.24648915894373       -1.32077404723312       -0.76580137801464
C           -3.45766268918946        2.72319863188071        0.64445919083090
C           -4.66475124573137        2.40504921494025        1.43738152256711
C           -3.07437194143906        4.14674424250303        0.58445870525207
H           -4.25196474503679        0.63156153480395       -1.23773415246267
H           -6.39088613207238        0.05391049164201       -2.03007257464258
H           -6.68270837192377       -1.43761340187492       -2.95801687109390
H           -5.08600828969718       -0.65266445135769       -3.02667008345416
H           -5.16936396527563       -3.85197619757453        2.61593768972822
H           -5.58441562650638       -5.11088510525447        1.42759407280517
H           -3.87893405787562       -4.67392593245317        1.69162923709421
H           -3.23905222130839       -2.50424267378476        2.41963359495419
H           -2.12174537364861       -0.35815144067940        2.32539147225127
H           -1.55621181240137        2.90429626553044       -1.12816142923393
H           -5.01427868501380        3.14912841837955       -2.00552545697240
H           -2.14427628448975       -0.00557341399031       -1.98775332813525
H           -1.67014601830431        1.38003825562704       -3.04119113148877
H           -0.56548741426613        1.03792669355815        1.40913955901461
H            0.40681113113805        1.71680120083079       -1.69979967665657
H            1.80814062386506       -0.48570099756407        0.68815476757377
H            1.77215021406400        1.19945351925589        0.15064746180558
H            2.32005995541013        0.44605283544811       -2.17844139401402
H            2.39016061731487       -1.22769119383613       -1.60555582839584
H            4.05717864873493        2.06370758213758       -1.52139534203434
H            6.35136952088956        2.41554852295951       -0.78291957570705
H            8.11096732709289        2.52482789352458        0.80814830283079
H            8.69150493827397        1.98558034073383       -0.79407569837572
H            9.57524793605063        1.51937872039005        0.68009247521333
H            7.04120479726569       -3.65106831249648        1.36845843247465
H            5.37006582620537       -3.07196679865087        1.57300167189386
H            5.96288781867293       -3.55134462857200       -0.04471270877768
H            4.19662102642667       -1.97853215571900       -0.17183950202771
H           -0.07931573428883       -1.59542266690012       -1.81325883877533
H           -1.30582091983881       -1.43093880151076       -0.53802440026468
H            0.30572445079668       -2.00812672171980       -0.12858690940780
H           -4.60050398018813        2.97547892343474       -1.35676333619527
H           -4.36740007707512        2.30002980668745        2.48784903676651
H           -5.13392744200075        1.46722039788259        1.14897593963966
H           -5.39425606948083        3.20892289636112        1.38171881856060
H           -2.46637539462683        4.34998065769917        1.47734455786682
H           -2.46961915598290        4.41336885838467       -0.27890674658887
H           -3.94868580728474        4.79213054878580        0.61757850143393
H           -0.66543727708135        2.64587234023155        3.11569552810828

          :  Hamiltonian                  GFN2-xTB          :
         :: total energy             -99.316315087051 Eh    ::
         :: gradient norm              0.002372673413 Eh/a0 ::
         :: HOMO-LUMO gap              1.125678575804 eV    ::
         :: SCC energy              -100.706657992558 Eh    ::
         :: -> dispersion             -0.076997008260 Eh    ::
         :: repulsion energy           1.388816446023 Eh    ::

    * Orbital Energies and Occupations

         #    Occupation            Energy/Eh            Energy/eV
      -------------------------------------------------------------
         1        2.0000           -0.8115487             -22.0834
       ...           ...                  ...                  ...
        78        1.9985           -0.5346920             -14.5497
        79        1.9983           -0.5328807             -14.5004
        80        1.9980           -0.5298428             -14.4178
        81        1.9974           -0.5261262             -14.3166
        82        1.9973           -0.5254851             -14.2992
        83        1.9966           -0.5218288             -14.1997
        84        1.9956           -0.5177042             -14.0874
        85        1.9790           -0.4928028             -13.4098
        86        1.9744           -0.4896250             -13.3234
        87        1.9688           -0.4864635             -13.2373
        88        1.8657           -0.4625172             -12.5857
        89        1.8462           -0.4602011             -12.5227
        90        1.7290           -0.4501942             -12.2504 (HOMO)
        91        0.6376           -0.4088263             -11.1247 (LUMO)
        92        0.0179           -0.3463000              -9.4233
        93        0.0034           -0.3197340              -8.7004
        94        0.0027           -0.3160997              -8.6015
        95        0.0019           -0.3103096              -8.4440
        96        0.0016           -0.3081821              -8.3861
        97        0.0000           -0.1936062              -5.2683
        98        0.0000           -0.1857732              -5.0551
        99        0.0000           -0.1741116              -4.7378
       100                         -0.1050660              -2.8590
       101                         -0.0750288              -2.0416
       ...                                ...                  ...
       171                          0.5766700              15.6920
      -------------------------------------------------------------
                  HL-Gap            0.0413679 Eh            1.1257 eV

     #   Z          covCN         q      C6AA      α(0)
     1   7 N        1.773    -0.290    28.334     7.882
     2   6 C        2.833     0.096    25.871     8.335
     3   6 C        3.910     0.015    20.267     6.399
     4   6 C        2.973     0.002    27.967     8.675
     5   6 C        2.920    -0.081    30.029     8.986
     6   6 C        2.862     0.129    25.178     8.225
     7   8 O        1.706    -0.228    17.788     5.694
     8   6 C        3.644     0.027    20.465     6.502
     9   6 C        2.864     0.131    25.133     8.218
    10   8 O        1.706    -0.225    17.732     5.685
    11   6 C        3.645     0.026    20.478     6.504
    12   6 C        2.914    -0.071    29.771     8.947
    13   6 C        2.920    -0.048    29.204     8.862
    14   6 C        3.867    -0.034    21.129     6.536
    15   6 C        3.806    -0.077    21.964     6.672
    16   6 C        3.805     0.035    19.985     6.364
    17   7 N        2.725    -0.121    23.628     7.219
    18   6 C        3.755     0.001    20.618     6.474
    19   6 C        3.806    -0.071    21.858     6.655
    20   6 C        2.968     0.006    27.874     8.660
    21   6 C        2.922    -0.045    29.126     8.850
    22   6 C        2.913    -0.066    29.646     8.928
    23   6 C        2.864     0.134    25.063     8.206
    24   8 O        1.706    -0.218    17.621     5.668
    25   6 C        3.645     0.024    20.500     6.508
    26   6 C        2.862     0.134    25.059     8.205
    27   8 O        1.706    -0.221    17.668     5.675
    28   6 C        3.644     0.026    20.469     6.503
    29   6 C        2.919    -0.077    29.923     8.970
    30   6 C        3.698    -0.046    21.571     6.643
    31   6 C        2.947     0.041    27.084     8.536
    32   6 C        3.756    -0.120    22.860     6.817
    33   6 C        3.756    -0.125    22.957     6.832
    34   1 H        0.926     0.057     2.230     2.335
    35   1 H        0.924     0.052     2.290     2.366
    36   1 H        0.925     0.083     1.949     2.183
    37   1 H        0.924     0.049     2.330     2.387
    38   1 H        0.924     0.055     2.258     2.350
    39   1 H        0.925     0.082     1.954     2.186
    40   1 H        0.924     0.053     2.286     2.364
    41   1 H        0.926     0.057     2.239     2.340
    42   1 H        0.926     0.044     2.394     2.420
    43   1 H        0.925     0.049     2.330     2.387
    44   1 H        0.774     0.009     2.981     2.719
    45   1 H        0.926     0.060     2.200     2.319
    46   1 H        0.926     0.052     2.289     2.366
    47   1 H        0.924     0.045     2.379     2.412
    48   1 H        0.925     0.039     2.462     2.454
    49   1 H        0.924     0.050     2.325     2.385
    50   1 H        0.924     0.047     2.360     2.403
    51   1 H        0.924     0.048     2.345     2.395
    52   1 H        0.924     0.052     2.291     2.367
    53   1 H        0.926     0.048     2.347     2.395
    54   1 H        0.926     0.059     2.210     2.325
    55   1 H        0.924     0.056     2.248     2.345
    56   1 H        0.924     0.058     2.227     2.334
    57   1 H        0.925     0.083     1.946     2.181
    58   1 H        0.925     0.083     1.953     2.185
    59   1 H        0.924     0.051     2.304     2.374
    60   1 H        0.924     0.055     2.261     2.351
    61   1 H        0.926     0.051     2.308     2.376
    62   1 H        0.924     0.046     2.374     2.410
    63   1 H        0.925     0.055     2.253     2.347
    64   1 H        0.925     0.056     2.244     2.342
    65   1 H        0.774    -0.003     3.203     2.818
    66   1 H        0.924     0.095     1.828     2.114
    67   1 H        0.925     0.068     2.108     2.270
    68   1 H        0.925     0.073     2.058     2.243
    69   1 H        0.923     0.118     1.633     1.998
    70   1 H        0.925     0.064     2.151     2.294
    71   1 H        0.925     0.074     2.037     2.232
    72   1 H        0.860     0.165     1.306     1.790

Wiberg/Mayer (AO) data.
largest (>0.10) Wiberg bond orders for each atom

     #   Z sym  total        # sym  WBO       # sym  WBO       # sym  WBO
 ---------------------------------------------------------------------------
     1   7 N    3.023 --     2 C    1.960    72 H    0.937
     2   6 C    3.893 --     1 N    1.960     3 C    0.927    47 H    0.922
     3   6 C    3.977 --    31 C    1.011     4 C    0.969    14 C    0.943
                             2 C    0.927
     4   6 C    3.945 --    13 C    1.420     5 C    1.362     3 C    0.969
     5   6 C    3.960 --     6 C    1.399     4 C    1.362    34 H    0.957
     6   6 C    3.903 --     5 C    1.399     9 C    1.219     7 O    1.101
     7   8 O    2.254 --     6 C    1.101     8 C    0.978
     8   6 C    3.931 --     7 O    0.978    36 H    0.976    37 H    0.973
                            35 H    0.973
     9   6 C    3.901 --    12 C    1.390     6 C    1.219    10 O    1.107
    10   8 O    2.256 --     9 C    1.107    11 C    0.976
    11   6 C    3.929 --    39 H    0.977    10 O    0.976    38 H    0.973
                            40 H    0.973
    12   6 C    3.961 --    13 C    1.405     9 C    1.390    41 H    0.963
    13   6 C    3.955 --     4 C    1.420    12 C    1.405    42 H    0.961
    14   6 C    3.893 --    15 C    0.963    43 H    0.960     3 C    0.943
                            16 C    0.919
    15   6 C    3.931 --    46 H    0.975    45 H    0.965    16 C    0.964
                            14 C    0.963
    16   6 C    3.918 --    17 N    1.021    15 C    0.964    48 H    0.959
                            14 C    0.919
    17   7 N    3.146 --    16 C    1.021    18 C    1.009    30 C    1.007
    18   6 C    3.966 --    17 N    1.009    50 H    0.971    49 H    0.968
                            19 C    0.959
    19   6 C    3.971 --    20 C    1.016    52 H    0.970    51 H    0.969
                            18 C    0.959
    20   6 C    3.931 --    21 C    1.394    29 C    1.380    19 C    1.016
    21   6 C    3.932 --    22 C    1.423    20 C    1.394    53 H    0.968
    22   6 C    3.952 --    21 C    1.423    23 C    1.376    54 H    0.963
    23   6 C    3.876 --    22 C    1.376    26 C    1.212    24 O    1.113
    24   8 O    2.248 --    23 C    1.113    25 C    0.976
    25   6 C    3.926 --    57 H    0.977    24 O    0.976    55 H    0.972
                            56 H    0.972
    26   6 C    3.885 --    29 C    1.392    23 C    1.212    27 O    1.108
    27   8 O    2.249 --    26 C    1.108    28 C    0.978
    28   6 C    3.930 --    27 O    0.978    58 H    0.977    59 H    0.973
                            60 H    0.972
    29   6 C    3.952 --    26 C    1.392    20 C    1.380    61 H    0.962
    30   6 C    3.968 --    17 N    1.007    64 H    0.980    63 H    0.970
                            62 H    0.968
    31   6 C    3.346 --    33 C    1.095    32 C    1.085     3 C    1.011
    32   6 C    3.975 --    31 C    1.085    68 H    0.973    67 H    0.959
                            66 H    0.912
    33   6 C    3.970 --    31 C    1.095    71 H    0.971    70 H    0.957
                            69 H    0.889
    34   1 H    0.995 --     5 C    0.957
    35   1 H    0.993 --     8 C    0.973
    36   1 H    0.992 --     8 C    0.976
    37   1 H    0.993 --     8 C    0.973
    38   1 H    0.992 --    11 C    0.973
    39   1 H    0.992 --    11 C    0.977
    40   1 H    0.992 --    11 C    0.973
    41   1 H    0.995 --    12 C    0.963
    42   1 H    0.997 --    13 C    0.961
    43   1 H    0.996 --    14 C    0.960
    44   1 H    0.980 --    65 H    0.966
    45   1 H    0.996 --    15 C    0.965
    46   1 H    0.993 --    15 C    0.975
    47   1 H    0.980 --     2 C    0.922
    48   1 H    0.991 --    16 C    0.959
    49   1 H    0.993 --    18 C    0.968
    50   1 H    0.996 --    18 C    0.971
    51   1 H    0.995 --    19 C    0.969
    52   1 H    0.995 --    19 C    0.970
    53   1 H    0.997 --    21 C    0.968
    54   1 H    0.995 --    22 C    0.963
    55   1 H    0.990 --    25 C    0.972
    56   1 H    0.990 --    25 C    0.972
    57   1 H    0.992 --    25 C    0.977
    58   1 H    0.992 --    28 C    0.977
    59   1 H    0.991 --    28 C    0.973
    60   1 H    0.991 --    28 C    0.972
    61   1 H    0.996 --    29 C    0.962
    62   1 H    0.981 --    30 C    0.968
    63   1 H    0.991 --    30 C    0.970
    64   1 H    0.996 --    30 C    0.980
    65   1 H    1.000 --    44 H    0.966
    66   1 H    0.944 --    32 C    0.912
    67   1 H    0.984 --    32 C    0.959
    68   1 H    0.989 --    32 C    0.973
    69   1 H    0.937 --    33 C    0.889
    70   1 H    0.985 --    33 C    0.957
    71   1 H    0.989 --    33 C    0.971
    72   1 H    0.966 --     1 N    0.937
 ---------------------------------------------------------------------------

molecular dipole:
                 x           y           z       tot (Debye)
 q only:       -0.521       0.910       0.251
   full:       -0.112       0.762       0.118       1.982

           -------------------------------------------------
          | TOTAL ENERGY              -99.316315087051 Eh   |
          | GRADIENT NORM               0.002372673413 Eh/α |
          | HOMO-LUMO GAP               1.125678575804 eV   |
           -------------------------------------------------

 * finished run on 2024/04/06 at 11:13:31.496
