   * xtb version 6.6.1 (8d0f1dd) compiled by 'conda@1efc2f54142f' on 2023-08-01
          program call               : xtb struc.xyz --opt loose --input .xc1 --gfn2

   ID    Z sym.   atoms
    1    6 C      1, 3, 5-7, 10, 11, 14
    2    7 N      2, 4, 9, 13
    3    8 O      8, 12
    4    1 H      15-25
constraining bond 6 7 to    4.0000000 Å, actual value:    1.4583840 Å

          :  Hamiltonian                  GFN2-xTB          :
 * total energy  :   -30.7136572 Eh     change       -0.6650680E-10 Eh
 * total energy  :   -34.8214159 Eh     change       -0.4107759E+01 Eh
 * total energy  :   -38.1002613 Eh     change       -0.3278845E+01 Eh
 * total energy  :   -40.2774014 Eh     change       -0.2177140E+01 Eh
 * total energy  :   -41.3140537 Eh     change       -0.1036652E+01 Eh
 * total energy  :   -41.4916749 Eh     change       -0.1776212E+00 Eh
 * total energy  :   -41.5812428 Eh     change       -0.8956789E-01 Eh
 * total energy  :   -41.6349748 Eh     change       -0.5373205E-01 Eh
 * total energy  :   -41.6822260 Eh     change       -0.4725121E-01 Eh
 * total energy  :   -41.7393086 Eh     change       -0.5708263E-01 Eh
 * total energy  :   -42.0124951 Eh     change       -0.7675747E-04 Eh
 * total energy  :   -42.0126191 Eh     change       -0.1239958E-03 Eh
 * total energy  :   -42.0126732 Eh     change       -0.5406972E-04 Eh
 * total energy  :   -42.0127747 Eh     change       -0.1015613E-03 Eh
 * total energy  :   -42.0128551 Eh     change       -0.8041871E-04 Eh
 * total energy  :   -42.0129034 Eh     change       -0.4830258E-04 Eh
 * total energy  :   -42.0129768 Eh     change       -0.7334451E-04 Eh
 * total energy  :   -42.0130328 Eh     change       -0.5600484E-04 Eh
 * total energy  :   -42.0130802 Eh     change       -0.4738282E-04 Eh
   *** GEOMETRY OPTIMIZATION CONVERGED AFTER 93 ITERATIONS ***

 final structure:
================
25
 xtb: 6.6.1 (8d0f1dd)
C            3.25372641393876        1.21186798794528        0.31292895730138
N            2.25720125457791        0.23508550482499        0.00380125953963
C            2.17503709866306       -0.98158029314872        0.76920346674480
N            1.24568950853737       -1.89393005199822        0.12381869756332
C            0.27117497139091       -0.97130892484904        0.07638276898669
C            1.06407205642132        0.05702752272058        0.80994006890438
C           -1.62170076936422        1.66990968433348       -1.67416765340546
O           -1.69839148674376        1.97346034158374       -2.77902388319421
N           -1.50182377966035        1.17034353537764       -0.52627919043120
C           -1.26022241555217        1.94375555185093        0.69575279364716
C           -2.00349186949630       -0.24911021793739       -0.38025689172944
O           -3.17504354914786       -0.45539560140436       -0.46583353580821
N           -1.01687329265358       -1.19137606239484       -0.25744691409221
C           -1.43486623493716       -2.58263431916139       -0.45342659976746
H            3.47773725100041        1.27362555217324        1.38377642734120
H            4.16462673115296        0.94765838170165       -0.22468025890522
H            2.90664706240616        2.18382253003794       -0.03519892377095
H            2.90849944412667       -1.31564344767396        1.47714366934495
H           -1.01969230625383        2.97203094070693        0.43411558967267
H           -2.15151688581492        1.91967016674399        1.32221895879388
H           -0.41099581256359        1.48171010350977        1.21839557287796
H           -1.07013974451646       -3.19731934945034        0.36732405416831
H           -1.04763906352517       -2.95850308329381       -1.39998943194331
H           -2.52149827501637       -2.62069352903903       -0.47539839619249
H            1.36991520712875       -2.80423438156021       -0.29192898774763

          :  Hamiltonian                  GFN2-xTB          :
         :: total energy             -42.013080183790 Eh    ::
         :: gradient norm              0.003425747735 Eh/a0 ::
         :: HOMO-LUMO gap              1.209288000875 eV    ::
         :: SCC energy               -42.525977276898 Eh    ::
         :: -> dispersion             -0.021204548019 Eh    ::
         :: repulsion energy           0.512633644949 Eh    ::

    * Orbital Energies and Occupations

         #    Occupation            Energy/Eh            Energy/eV
      -------------------------------------------------------------
         1        2.0000           -0.9441253             -25.6910
       ...           ...                  ...                  ...
        25        2.0000           -0.6719880             -18.2857
        26        2.0000           -0.6582394             -17.9116
        27        2.0000           -0.6510842             -17.7169
        28        1.9999           -0.6435688             -17.5124
        29        1.9999           -0.6343495             -17.2615
        30        1.9997           -0.6246156             -16.9967
        31        1.9995           -0.6153721             -16.7451
        32        1.9993           -0.6079983             -16.5445
        33        1.9991           -0.6052170             -16.4688
        34        1.9976           -0.5890838             -16.0298
        35        1.9962           -0.5816317             -15.8270
        36        1.8658           -0.5240785             -14.2609
        37        1.6021           -0.5044516             -13.7268 (HOMO)
        38        0.3912           -0.4600111             -12.5175 (LUMO)
        39        0.1400           -0.4414441             -12.0123
        40        0.0070           -0.3929706             -10.6933
        41        0.0026           -0.3770512             -10.2601
        42        0.0000           -0.2485872              -6.7644
        43        0.0000           -0.2433025              -6.6206
        44                         -0.1953554              -5.3159
        45                         -0.1603172              -4.3625
        46                         -0.1090401              -2.9671
        47                         -0.0830802              -2.2607
        48                         -0.0645642              -1.7569
       ...                                ...                  ...
        67                          0.9601084              26.1259
      -------------------------------------------------------------
                  HL-Gap            0.0444405 Eh            1.2093 eV

     #   Z          covCN         q      C6AA      α(0)
     1   6 C        3.689    -0.049    21.644     6.659
     2   7 N        2.746    -0.101    23.222     7.157
     3   6 C        4.158     0.097    18.900     6.174
     4   7 N        2.903    -0.121    23.616     7.218
     5   6 C        3.278     0.135    23.766     7.847
     6   6 C        3.082    -0.129    31.185     9.155
     7   6 C        1.813     0.318    24.048     7.924
     8   8 O        0.856    -0.099    16.499     5.446
     9   7 N        2.721    -0.029    21.803     6.935
    10   6 C        3.695    -0.082    22.243     6.747
    11   6 C        2.729     0.312    21.703     7.627
    12   8 O        0.857    -0.307    19.900     5.981
    13   7 N        2.731    -0.027    21.759     6.928
    14   6 C        3.712    -0.075    22.081     6.715
    15   1 H        0.924     0.070     2.088     2.260
    16   1 H        0.924     0.086     1.921     2.167
    17   1 H        0.925     0.084     1.941     2.179
    18   1 H        0.926     0.071     2.074     2.252
    19   1 H        0.925     0.107     1.723     2.053
    20   1 H        0.925     0.114     1.661     2.015
    21   1 H        0.923     0.122     1.596     1.976
    22   1 H        0.925     0.095     1.830     2.116
    23   1 H        0.925     0.092     1.860     2.133
    24   1 H        0.925     0.121     1.609     1.984
    25   1 H        0.860     0.193     1.141     1.674

Wiberg/Mayer (AO) data.
largest (>0.10) Wiberg bond orders for each atom

     #   Z sym  total        # sym  WBO       # sym  WBO       # sym  WBO
 ---------------------------------------------------------------------------
     1   6 C    3.943 --     2 N    1.024    17 H    0.967    16 H    0.961
                            15 H    0.954
     2   7 N    3.002 --     1 C    1.024     3 C    0.956     6 C    0.915
     3   6 C    3.809 --     4 N    0.970    18 H    0.958     2 N    0.956
                             6 C    0.859
     4   7 N    3.425 --     5 C    1.327     3 C    0.970    25 H    0.923
     5   6 C    3.741 --     4 N    1.327    13 N    1.210     6 C    1.062
     6   6 C    3.052 --     5 C    1.062     2 N    0.915     3 C    0.859
     7   6 C    3.694 --     8 O    2.077     9 N    1.520
     8   8 O    2.374 --     7 C    2.077     9 N    0.220
     9   7 N    3.558 --     7 C    1.520    10 C    0.918    11 C    0.796
                             8 O    0.220
    10   6 C    3.857 --    19 H    0.974    20 H    0.965    21 H    0.929
                             9 N    0.918
    11   6 C    3.818 --    12 O    1.765    13 N    1.149     9 N    0.796
    12   8 O    2.069 --    11 C    1.765    13 N    0.135
    13   7 N    3.594 --     5 C    1.210    11 C    1.149    14 C    0.948
                            12 O    0.135
    14   6 C    3.912 --    22 H    0.973    23 H    0.969    24 H    0.967
                            13 N    0.948
    15   1 H    0.963 --     1 C    0.954
    16   1 H    0.984 --     1 C    0.961
    17   1 H    0.988 --     1 C    0.967
    18   1 H    0.990 --     3 C    0.958
    19   1 H    0.987 --    10 C    0.974
    20   1 H    0.986 --    10 C    0.965
    21   1 H    0.984 --    10 C    0.929
    22   1 H    0.990 --    14 C    0.973
    23   1 H    0.990 --    14 C    0.969
    24   1 H    0.984 --    14 C    0.967
    25   1 H    0.957 --     4 N    0.923
 ---------------------------------------------------------------------------

molecular dipole:
                 x           y           z       tot (Debye)
 q only:        0.497      -0.212       0.064
   full:        0.884      -0.613      -0.027       2.736

           -------------------------------------------------
          | TOTAL ENERGY              -42.013080183790 Eh   |
          | GRADIENT NORM               0.003425747735 Eh/α |
          | HOMO-LUMO GAP               1.209288000875 eV   |
           -------------------------------------------------

 * finished run on 2024/06/05 at 20:00:15.643
