   * xtb version 6.6.1 (8d0f1dd) compiled by 'conda@1efc2f54142f' on 2023-08-01
          program call               : xtb xtbopt.xyz --opt crude --input .xc2 --gfn2

   ID    Z sym.   atoms
    1    7 N      1, 17
    2    6 C      2-6, 8, 9, 11-16, 18-23, 25, 26, 28-33
    3    8 O      7, 10, 24, 27
    4    1 H      34-72

          :  Hamiltonian                  GFN2-xTB          :
 * total energy  :   -99.2509358 Eh     change       -0.6716050E-10 Eh
   *** GEOMETRY OPTIMIZATION CONVERGED AFTER 1 ITERATIONS ***

 final structure:
================
72
 xtb: 6.6.1 (8d0f1dd)
N           -1.87151312264675        2.84730318154650        2.23947342223829
C           -1.82434159367085        2.13735309923163        1.21287904323482
C           -2.97123169356354        1.92623039159146        0.26368343802936
C           -3.43418758235606        0.47916585434265        0.33687618171014
C           -4.34961559200736       -0.00337039787573       -0.60079298005187
C           -4.82004819346007       -1.30470268580262       -0.55033574766037
O           -5.71126376857181       -1.84494651857645       -1.40781218925703
C           -6.31217820688481       -1.02635104705935       -2.38329619277087
C           -4.35515723049999       -2.17781201915844        0.46961987986410
O           -4.86099900908223       -3.42769738307178        0.43879122988516
C           -4.52249324204032       -4.32836743344668        1.46718253452719
C           -3.44702857018193       -1.69303605024055        1.39683758782100
C           -2.99552628063729       -0.38041185904349        1.33167439354709
C           -2.41260622320088        2.23588615283032       -1.15009618305137
C           -1.48174237951722        1.15075336438261       -1.72129210157823
C           -0.14868240741451        1.10864422539662       -1.07991584809020
N            0.49232501880984        0.00533693246019       -0.70619702220205
C            1.88273428864830        0.05835291456639       -0.32236013090999
C            2.80521571503373       -0.45406357425427       -1.44597156575333
C            4.24446816368542       -0.26579959831586       -1.05630893146194
C            4.93091925911586        0.88803103507706       -1.44661085522122
C            6.23525208325233        1.05426954172976       -1.07630813579564
C            6.89766310406480        0.11843234590985       -0.30716713268071
O            8.18316492737837        0.25595933071799        0.10762399809815
C            8.91625084732364        1.25099172766728       -0.30424018220820
C            6.21569734093088       -1.05913621872429        0.11145539162150
O            6.93957023383445       -1.92005622217655        0.85207148702482
C            6.34880556592034       -3.11951759000839        1.29377097642281
C            4.89269716285827       -1.22074031831293       -0.27799897780372
C           -0.13444971151406       -1.29431559251856       -0.74518125946015
C           -4.19540514451491        2.84227382304045        0.56216993276730
C           -4.82811079455726        2.50777627300734        1.91098816166323
C           -3.86140333605963        4.33025149574416        0.50445460042839
H           -4.71151675931972        0.65510027071707       -1.37279264352566
H           -6.83806002594234       -0.18116719088696       -1.92901811024397
H           -7.03041977230703       -1.66310765730536       -2.89602327495288
H           -5.57853866051558       -0.65628648190350       -3.10708020874570
H           -4.81305567214604       -3.94315838428537        2.44903055705080
H           -5.08299639719294       -5.23683760231152        1.25575973703709
H           -3.45154647197243       -4.55581276272011        1.46595063806129
H           -3.09068864262193       -2.32712031380842        2.19237800189768
H           -2.31397823229833       -0.03014410424851        2.09141655862578
H           -3.24893767804052        2.35758801248517       -1.83756594183716
H           -1.87479636944006        3.18406787777074       -1.11521122840833
H           -1.97913758994903        0.18346344739170       -1.67953935227110
H           -1.32414551743475        1.39987925500556       -2.77908380669580
H           -0.90940282636933        1.61958806434928        0.86418385750968
H            0.41707137949752        2.02810231648936       -1.04619977456085
H            2.03237648732721       -0.54721099607300        0.57597097562950
H            2.15354348847813        1.08994610124092       -0.08815025181408
H            2.59214834205077        0.10716893035943       -2.35731776137864
H            2.60314457285801       -1.50946327474656       -1.63545374990505
H            4.43275871159578        1.63183654861236       -2.05052039811703
H            7.26333109629519        3.16058741891963        1.11885526534901
H            7.89665922529540        2.79022680002868        0.81312044233765
H            8.58676673859319        1.88781195975039       -1.11208669989510
H            9.90692902978902        1.29192631889009        0.11118152703078
H            7.12408602557532       -3.63537571960596        1.85731342013289
H            5.49305604077659       -2.92775928253819        1.94839639747361
H            6.03575506397700       -3.74567392430015        0.45275276071286
H            4.35272912227809       -2.10874582538461        0.01344907761494
H           -0.29918517855964       -1.62508875874170       -1.77311169039787
H           -1.09539924830509       -1.26936368573645       -0.22548905091810
H            0.50807853205192       -2.01673457110066       -0.24801929307789
H           -4.93637738635444        2.63172238351137       -0.21756926095915
H           -4.12910925031387        2.72144376575788        2.71302412100869
H           -5.11554209030789        1.46040162626445        1.96190890910948
H           -5.71824382828476        3.11423140888498        2.05587541661493
H           -3.10534191431510        4.57627935518029        1.24356311677742
H           -3.51316389435959        4.63096732434612       -0.48013037989441
H           -4.75606078790629        4.90455512590206        0.73030512248612
H           -1.02305369365530        2.93960856569067        2.78952499481283

          :  Hamiltonian                  GFN2-xTB          :
         :: total energy             -99.250935811404 Eh    ::
         :: gradient norm              0.003496346141 Eh/a0 ::
         :: HOMO-LUMO gap              0.616621678628 eV    ::
         :: SCC energy              -100.639267285960 Eh    ::
         :: -> dispersion             -0.075262890571 Eh    ::
         :: repulsion energy           1.387047148839 Eh    ::

    * Orbital Energies and Occupations

         #    Occupation            Energy/Eh            Energy/eV
      -------------------------------------------------------------
         1        2.0000           -0.8403018             -22.8658
       ...           ...                  ...                  ...
        78        1.9989           -0.5322521             -14.4833
        79        1.9984           -0.5261878             -14.3183
        80        1.9983           -0.5256922             -14.3048
        81        1.9976           -0.5201512             -14.1540
        82        1.9962           -0.5124798             -13.9453
        83        1.9955           -0.5098186             -13.8729
        84        1.9946           -0.5070971             -13.7988
        85        1.9880           -0.4943162             -13.4510
        86        1.9822           -0.4880070             -13.2793
        87        1.9584           -0.4743572             -12.9079
        88        1.9410           -0.4686784             -12.7534
        89        1.8812           -0.4570892             -12.4380
        90        1.2671           -0.4220218             -11.4838 (HOMO)
        91        0.5849           -0.3993614             -10.8672 (LUMO)
        92        0.3974           -0.3912739             -10.6471
        93        0.0152           -0.3362172              -9.1489
        94        0.0038           -0.3141027              -8.5472
        95        0.0031           -0.3110051              -8.4629
        96        0.0030           -0.3104901              -8.4489
        97        0.0020           -0.3041030              -8.2751
        98        0.0000           -0.1883196              -5.1244
        99        0.0000           -0.1826688              -4.9707
       100                         -0.1343283              -3.6553
       101                         -0.0662553              -1.8029
       ...                                ...                  ...
       171                          0.5748781              15.6432
      -------------------------------------------------------------
                  HL-Gap            0.0226604 Eh            0.6166 eV

     #   Z          covCN         q      C6AA      α(0)
     1   7 N        1.774    -0.270    27.820     7.810
     2   6 C        2.827     0.101    25.748     8.315
     3   6 C        3.907     0.006    20.414     6.422
     4   6 C        2.974     0.002    27.980     8.677
     5   6 C        2.921    -0.080    30.006     8.983
     6   6 C        2.862     0.129    25.173     8.224
     7   8 O        1.706    -0.231    17.837     5.702
     8   6 C        3.644     0.028    20.439     6.498
     9   6 C        2.864     0.128    25.197     8.228
    10   8 O        1.706    -0.230    17.818     5.699
    11   6 C        3.645     0.027    20.445     6.498
    12   6 C        2.914    -0.075    29.872     8.962
    13   6 C        2.921    -0.054    29.333     8.882
    14   6 C        3.812    -0.064    21.726     6.635
    15   6 C        3.802    -0.069    21.815     6.650
    16   6 C        2.843     0.005    27.895     8.656
    17   7 N        2.729     0.008    21.126     6.826
    18   6 C        3.755    -0.015    20.890     6.517
    19   6 C        3.807    -0.069    21.813     6.649
    20   6 C        2.973     0.006    27.888     8.662
    21   6 C        2.920    -0.040    28.991     8.830
    22   6 C        1.992    -0.124    34.511     9.487
    23   6 C        2.893     0.109    25.593     8.294
    24   8 O        1.710    -0.100    15.834     5.373
    25   6 C        2.753     0.048    26.908     8.494
    26   6 C        2.860     0.136    25.017     8.198
    27   8 O        1.706    -0.232    17.851     5.704
    28   6 C        3.645     0.028    20.431     6.497
    29   6 C        2.918    -0.084    30.110     8.998
    30   6 C        3.699    -0.069    21.998     6.708
    31   6 C        3.853    -0.007    20.671     6.467
    32   6 C        3.756    -0.118    22.823     6.812
    33   6 C        3.755    -0.118    22.824     6.812
    34   1 H        0.926     0.051     2.301     2.372
    35   1 H        0.924     0.053     2.280     2.361
    36   1 H        0.925     0.080     1.974     2.197
    37   1 H        0.924     0.047     2.362     2.404
    38   1 H        0.924     0.054     2.266     2.354
    39   1 H        0.925     0.080     1.975     2.198
    40   1 H        0.924     0.047     2.357     2.401
    41   1 H        0.926     0.051     2.308     2.376
    42   1 H        0.926     0.038     2.475     2.460
    43   1 H        0.925     0.060     2.203     2.321
    44   1 H        0.924     0.053     2.280     2.361
    45   1 H        0.925     0.066     2.135     2.285
    46   1 H        0.923     0.079     1.993     2.208
    47   1 H        0.922     0.005     2.969     2.695
    48   1 H        0.926     0.068     2.106     2.269
    49   1 H        0.924     0.065     2.138     2.286
    50   1 H        0.924     0.068     2.112     2.273
    51   1 H        0.924     0.057     2.234     2.338
    52   1 H        0.924     0.056     2.246     2.343
    53   1 H        0.926     0.051     2.304     2.374
    54   1 H        0.752     0.015     2.912     2.693
    55   1 H        0.752     0.002     3.127     2.790
    56   1 H        0.926     0.088     1.901     2.156
    57   1 H        0.926     0.098     1.805     2.101
    58   1 H        0.925     0.081     1.970     2.195
    59   1 H        0.924     0.048     2.339     2.392
    60   1 H        0.924     0.052     2.292     2.368
    61   1 H        0.926     0.046     2.367     2.406
    62   1 H        0.924     0.075     2.030     2.228
    63   1 H        0.924     0.079     1.984     2.203
    64   1 H        0.925     0.078     2.001     2.212
    65   1 H        0.924     0.037     2.495     2.470
    66   1 H        0.925     0.069     2.102     2.267
    67   1 H        0.925     0.035     2.516     2.481
    68   1 H        0.925     0.050     2.314     2.379
    69   1 H        0.925     0.061     2.193     2.316
    70   1 H        0.925     0.034     2.527     2.486
    71   1 H        0.925     0.054     2.272     2.357
    72   1 H        0.860     0.156     1.362     1.828

Wiberg/Mayer (AO) data.
largest (>0.10) Wiberg bond orders for each atom

     #   Z sym  total        # sym  WBO       # sym  WBO       # sym  WBO
 ---------------------------------------------------------------------------
     1   7 N    3.039 --     2 C    1.956    72 H    0.942
     2   6 C    3.928 --     1 N    1.956     3 C    0.995    47 H    0.901
     3   6 C    3.976 --     2 C    0.995     4 C    0.970    14 C    0.957
                            31 C    0.942
     4   6 C    3.951 --    13 C    1.415     5 C    1.368     3 C    0.970
     5   6 C    3.963 --     6 C    1.402     4 C    1.368    34 H    0.958
     6   6 C    3.907 --     5 C    1.402     9 C    1.224     7 O    1.097
     7   8 O    2.254 --     6 C    1.097     8 C    0.978
     8   6 C    3.933 --     7 O    0.978    36 H    0.977    35 H    0.974
                            37 H    0.974
     9   6 C    3.904 --    12 C    1.394     6 C    1.224    10 O    1.099
    10   8 O    2.252 --     9 C    1.099    11 C    0.978
    11   6 C    3.932 --    10 O    0.978    39 H    0.977    40 H    0.974
                            38 H    0.974
    12   6 C    3.964 --    13 C    1.402     9 C    1.394    41 H    0.964
    13   6 C    3.956 --     4 C    1.415    12 C    1.402    42 H    0.963
    14   6 C    3.972 --    15 C    0.981    44 H    0.972    43 H    0.969
                             3 C    0.957
    15   6 C    3.987 --    16 C    1.059    14 C    0.981    45 H    0.961
                            46 H    0.928
    16   6 C    3.580 --    17 N    1.391    15 C    1.059    48 H    0.958
    17   7 N    3.469 --    16 C    1.391    30 C    0.998    18 C    0.990
    18   6 C    3.956 --    17 N    0.990    50 H    0.968    19 C    0.966
                            49 H    0.964
    19   6 C    3.968 --    20 C    1.005    51 H    0.972    52 H    0.969
                            18 C    0.966
    20   6 C    3.873 --    29 C    1.394    21 C    1.349    19 C    1.005
    21   6 C    3.935 --    22 C    1.463    20 C    1.349    53 H    0.957
    22   6 C    2.988 --    21 C    1.463    23 C    1.354
    23   6 C    3.849 --    22 C    1.354    26 C    1.204    24 O    1.042
    24   8 O    2.423 --    25 C    1.290    23 C    1.042
    25   6 C    3.407 --    24 O    1.290    57 H    0.966    56 H    0.958
    26   6 C    3.849 --    29 C    1.384    23 C    1.204    27 O    1.104
    27   8 O    2.258 --    26 C    1.104    28 C    0.974
    28   6 C    3.928 --    58 H    0.977    59 H    0.975    60 H    0.974
                            27 O    0.974
    29   6 C    3.959 --    20 C    1.394    26 C    1.384    61 H    0.960
    30   6 C    3.958 --    17 N    0.998    64 H    0.978    62 H    0.966
                            63 H    0.961
    31   6 C    3.973 --    33 C    1.009    32 C    1.008    65 H    0.960
                             3 C    0.942
    32   6 C    3.980 --    31 C    1.008    67 H    0.982    68 H    0.982
                            66 H    0.974
    33   6 C    3.983 --    31 C    1.009    70 H    0.983    71 H    0.980
                            69 H    0.977
    34   1 H    0.996 --     5 C    0.958
    35   1 H    0.994 --     8 C    0.974
    36   1 H    0.993 --     8 C    0.977
    37   1 H    0.994 --     8 C    0.974
    38   1 H    0.993 --    11 C    0.974
    39   1 H    0.993 --    11 C    0.977
    40   1 H    0.994 --    11 C    0.974
    41   1 H    0.996 --    12 C    0.964
    42   1 H    0.998 --    13 C    0.963
    43   1 H    0.995 --    14 C    0.969
    44   1 H    0.996 --    14 C    0.972
    45   1 H    0.995 --    15 C    0.961
    46   1 H    0.969 --    15 C    0.928
    47   1 H    0.987 --     2 C    0.901
    48   1 H    0.995 --    16 C    0.958
    49   1 H    0.991 --    18 C    0.964
    50   1 H    0.994 --    18 C    0.968
    51   1 H    0.995 --    19 C    0.972
    52   1 H    0.993 --    19 C    0.969
    53   1 H    0.984 --    21 C    0.957
    54   1 H    0.969 --    55 H    0.944
    55   1 H    0.999 --    54 H    0.944
    56   1 H    0.991 --    25 C    0.958
    57   1 H    0.989 --    25 C    0.966
    58   1 H    0.992 --    28 C    0.977
    59   1 H    0.995 --    28 C    0.975
    60   1 H    0.994 --    28 C    0.974
    61   1 H    0.991 --    29 C    0.960
    62   1 H    0.985 --    30 C    0.966
    63   1 H    0.987 --    30 C    0.961
    64   1 H    0.994 --    30 C    0.978
    65   1 H    0.993 --    31 C    0.960
    66   1 H    0.991 --    32 C    0.974
    67   1 H    0.997 --    32 C    0.982
    68   1 H    0.994 --    32 C    0.982
    69   1 H    0.993 --    33 C    0.977
    70   1 H    0.997 --    33 C    0.983
    71   1 H    0.994 --    33 C    0.980
    72   1 H    0.971 --     1 N    0.942
 ---------------------------------------------------------------------------

molecular dipole:
                 x           y           z       tot (Debye)
 q only:        1.552      -0.195      -0.711
   full:        1.758      -0.553      -0.774       5.081

           -------------------------------------------------
          | TOTAL ENERGY              -99.250935811404 Eh   |
          | GRADIENT NORM               0.003496346141 Eh/α |
          | HOMO-LUMO GAP               0.616621678628 eV   |
           -------------------------------------------------

 * finished run on 2024/04/06 at 11:14:11.944
