   * xtb version 6.6.1 (8d0f1dd) compiled by 'conda@1efc2f54142f' on 2023-08-01
          program call               : xtb struc.xyz --opt loose --input .xc1 --gfn2

   ID    Z sym.   atoms
    1    7 N      1, 17
    2    6 C      2-6, 8, 9, 11-16, 18-23, 25, 26, 28-33
    3    8 O      7, 10, 24, 27
    4    1 H      34-72
constraining bond 5 35 to    4.7133300 Å, actual value:    2.8270300 Å

          :  Hamiltonian                  GFN2-xTB          :
 * total energy  :  -100.0394460 Eh     change       -0.4035485E-08 Eh
 * total energy  :  -100.5188547 Eh     change       -0.4794087E+00 Eh
 * total energy  :  -101.0907637 Eh     change       -0.5719090E+00 Eh
 * total energy  :  -101.7360562 Eh     change       -0.6452925E+00 Eh
 * total energy  :   -98.3087611 Eh     change        0.3427295E+01 Eh
 * total energy  :  -101.8017913 Eh     change       -0.3493030E+01 Eh
 * total energy  :  -101.8587551 Eh     change       -0.5696376E-01 Eh
 * total energy  :  -101.8947831 Eh     change       -0.3602803E-01 Eh
 * total energy  :  -101.9275562 Eh     change       -0.3277309E-01 Eh
 * total energy  :  -101.9350556 Eh     change       -0.7499386E-02 Eh
 * total energy  :  -101.9865370 Eh     change       -0.2126302E-03 Eh
 * total energy  :  -101.9866603 Eh     change       -0.1232304E-03 Eh
 * total energy  :  -101.9867522 Eh     change       -0.9193667E-04 Eh
 * total energy  :  -101.9868195 Eh     change       -0.6734286E-04 Eh
 * total energy  :  -101.9868869 Eh     change       -0.6738045E-04 Eh
 * total energy  :  -101.9869477 Eh     change       -0.6072640E-04 Eh
 * total energy  :  -101.9870004 Eh     change       -0.5272963E-04 Eh
 * total energy  :  -101.9870454 Eh     change       -0.4500700E-04 Eh
 * total energy  :  -101.9870862 Eh     change       -0.4078075E-04 Eh
   *** GEOMETRY OPTIMIZATION CONVERGED AFTER 35 ITERATIONS ***

 final structure:
================
72
 xtb: 6.6.1 (8d0f1dd)
N           -2.07410020791879        2.74343043490018        2.27551055343558
C           -1.94195777015220        2.12171874424234        1.19967050842767
C           -3.04575468344101        1.90848521898505        0.19791859025070
C           -3.52141003488727        0.46876036033434        0.26677148686414
C           -4.61454148348121        0.08301688052781       -0.71616809519492
C           -5.04557658707483       -1.36269717088369       -0.54773550765075
O           -5.97646505448427       -1.85972574210586       -1.33535681199687
C           -6.60159322251264       -1.24074273552061       -2.29095285924882
C           -4.50052717372316       -2.22452654480422        0.43229657415386
O           -5.01770931417630       -3.47288548988543        0.44118399484164
C           -4.58921878967432       -4.37835227745029        1.43381009987928
C           -3.51556362736422       -1.75310250728520        1.27529699709689
C           -3.05669473192401       -0.41553182764496        1.17618393433087
C           -2.42729508331532        2.19791232220019       -1.19641275437234
C           -1.44574656845284        1.12221545993020       -1.69519186073562
C           -0.13259363061775        1.14118128270282       -1.00916929671718
N            0.53589697499482        0.06019410443097       -0.60770676925727
C            1.92102021392318        0.15860141511998       -0.21539606956570
C            2.86713539031333       -0.28694763661150       -1.34760901839926
C            4.29641004472049       -0.10768487155096       -0.92004235221249
C            4.95019076428095        1.09446426514333       -1.13087187879952
C            6.25967508209425        1.27330865442514       -0.71160694064899
C            6.93974559249869        0.25110907258588       -0.06659903920141
O            8.20919441779690        0.31148216531402        0.38054005055755
C            8.94722617320343        1.49605361098307        0.18915422945849
C            6.27556767302789       -0.98555546058223        0.15800575824626
O            7.01100651541067       -1.92470679743193        0.78876954178461
C            6.44925728208668       -3.19268401636138        1.02678604344436
C            4.96672596050235       -1.14080652235691       -0.26857970152541
C           -0.03966977503770       -1.26153361976374       -0.66512933823315
C           -4.26722316705447        2.85111794431393        0.43269758641995
C           -5.00482710087714        2.49547715213291        1.72191857591824
C           -3.89233278467992        4.33038521810930        0.45021696354533
H           -4.17225494451509        0.13551537577977       -1.73995074294984
H           -5.19794085609333        0.54230409009066       -0.66566144528328
H           -7.32495982205284       -1.83189809717319       -2.81872342198807
H           -6.44333359458218       -0.20477556657840       -2.53418240849585
H           -4.79174532147483       -3.99469478513482        2.43755984919450
H           -5.16781723606769       -5.28488076962068        1.26895742202869
H           -3.52360600244165       -4.60482629306161        1.33497007576497
H           -3.09366473338901       -2.38298486628642        2.03817838153474
H           -2.31063860622852       -0.10711675529751        1.89295254069864
H           -3.23321322092020        2.29271321186007       -1.92446838329661
H           -1.90898525866183        3.15623893343919       -1.15680144632776
H           -1.90432764583936        0.13786008331835       -1.62779136456687
H           -1.26258310194323        1.33234328115117       -2.75763635631327
H           -0.98433626081854        1.68940759952473        0.84834504678094
H            0.40556501807727        2.07658217872222       -0.98345390011804
H            2.09040969956889       -0.46597855046117        0.66599213157428
H            2.14967918621820        1.19251930121648        0.05017508279091
H            2.66341048188630        0.31867854294495       -2.23239887235849
H            2.67628831008393       -1.33249490256392       -1.59245988747505
H            4.44519256621496        1.90247572002826       -1.63824095860358
H            6.74481836162651        2.21723525367109       -0.89795115274984
H            8.48112526794106        2.34546462132297        0.69786093836366
H            9.06599805238990        1.72662406886795       -0.87388827896734
H            9.92453654063431        1.30503149036413        0.62808819907857
H            7.22909999721555       -3.76970316589842        1.51998870526262
H            5.57689249411489       -3.12869066055583        1.68540083928696
H            6.16801108289188       -3.68934178195175        0.09280897731336
H            4.45572700840172       -2.07768307011910       -0.11015999729433
H           -0.14483626140661       -1.60555692238902       -1.69689332219272
H           -1.02241148199827       -1.27051086166494       -0.18866962801086
H            0.60694207843701       -1.95526166351297       -0.13379749968323
H           -4.95028169038137        2.70022356746658       -0.41137866662487
H           -4.36197540449668        2.68250070857539        2.57546329754822
H           -5.30621030917353        1.45105253398835        1.73828802768685
H           -5.89555431458345        3.11087966104078        1.81440087948844
H           -3.20190349219889        4.53905954229177        1.26113622484439
H           -3.44933895094145        4.64807950237297       -0.49016339221250
H           -4.79117723293158        4.92021360632278        0.60990528261838
H           -1.25233609952191        2.84610427427012        2.86326087133517

          :  Hamiltonian                  GFN2-xTB          :
         :: total energy            -101.987086222601 Eh    ::
         :: gradient norm              0.003396599472 Eh/a0 ::
         :: HOMO-LUMO gap              1.145901423659 eV    ::
         :: SCC energy              -100.725656258976 Eh    ::
         :: -> dispersion             -0.074977195745 Eh    ::
         :: repulsion energy           1.550323640714 Eh    ::

    * Orbital Energies and Occupations

         #    Occupation            Energy/Eh            Energy/eV
      -------------------------------------------------------------
         1        2.0000           -0.8520006             -23.1841
       ...           ...                  ...                  ...
        78        1.9991           -0.5296520             -14.4126
        79        1.9989           -0.5270656             -14.3422
        80        1.9988           -0.5262235             -14.3193
        81        1.9986           -0.5231080             -14.2345
        82        1.9977           -0.5154242             -14.0254
        83        1.9975           -0.5142907             -13.9946
        84        1.9973           -0.5128826             -13.9562
        85        1.9971           -0.5115761             -13.9207
        86        1.9818           -0.4823922             -13.1266
        87        1.9815           -0.4821702             -13.1205
        88        1.9577           -0.4688724             -12.7587
        89        1.8674           -0.4500327             -12.2460
        90        1.6087           -0.4305300             -11.7153 (HOMO)
        91        0.4468           -0.3884189             -10.5694 (LUMO)
        92        0.1456           -0.3678526             -10.0098
        93        0.0212           -0.3363171              -9.1517
        94        0.0035           -0.3077435              -8.3741
        95        0.0032           -0.3062049              -8.3323
        96        0.0027           -0.3037237              -8.2647
        97        0.0000           -0.2244872              -6.1086
        98        0.0000           -0.1811057              -4.9281
        99                         -0.1295329              -3.5248
       100                         -0.0824374              -2.2432
       101                         -0.0690982              -1.8803
       ...                                ...                  ...
       171                          1.4286606              38.8758
      -------------------------------------------------------------
                  HL-Gap            0.0421111 Eh            1.1459 eV

     #   Z          covCN         q      C6AA      α(0)
     1   7 N        1.774    -0.273    27.891     7.820
     2   6 C        2.826     0.098    25.828     8.328
     3   6 C        3.906     0.005    20.430     6.425
     4   6 C        2.958    -0.012    28.314     8.728
     5   6 C        3.808    -0.103    22.454     6.745
     6   6 C        2.865     0.076    26.306     8.407
     7   8 O        1.712    -0.074    15.473     5.311
     8   6 C        2.742    -0.001    28.030     8.669
     9   6 C        2.850     0.133    25.091     8.210
    10   8 O        1.706    -0.243    18.021     5.731
    11   6 C        3.645     0.027    20.453     6.500
    12   6 C        2.910    -0.090    30.270     9.022
    13   6 C        2.904    -0.049    29.225     8.864
    14   6 C        3.811    -0.066    21.759     6.640
    15   6 C        3.802    -0.068    21.796     6.647
    16   6 C        2.842    -0.001    28.041     8.678
    17   7 N        2.729     0.003    21.202     6.839
    18   6 C        3.755    -0.015    20.904     6.519
    19   6 C        3.808    -0.070    21.835     6.652
    20   6 C        2.969    -0.002    28.064     8.690
    21   6 C        2.922    -0.050    29.235     8.867
    22   6 C        2.914    -0.068    29.699     8.936
    23   6 C        2.865     0.132    25.106     8.213
    24   8 O        1.706    -0.226    17.741     5.687
    25   6 C        3.645     0.026    20.468     6.502
    26   6 C        2.863     0.132    25.114     8.214
    27   8 O        1.706    -0.228    17.784     5.694
    28   6 C        3.645     0.028    20.431     6.497
    29   6 C        2.920    -0.080    30.004     8.983
    30   6 C        3.699    -0.069    21.991     6.707
    31   6 C        3.852    -0.008    20.687     6.469
    32   6 C        3.756    -0.121    22.872     6.819
    33   6 C        3.755    -0.118    22.809     6.810
    34   1 H        0.920     0.057     2.233     2.337
    35   1 H        0.931     0.125     1.569     1.959
    36   1 H        0.926     0.084     1.940     2.178
    37   1 H        0.926     0.053     2.279     2.361
    38   1 H        0.924     0.055     2.256     2.349
    39   1 H        0.925     0.080     1.978     2.200
    40   1 H        0.924     0.049     2.335     2.389
    41   1 H        0.926     0.050     2.316     2.380
    42   1 H        0.926     0.040     2.443     2.444
    43   1 H        0.924     0.055     2.264     2.353
    44   1 H        0.924     0.054     2.274     2.358
    45   1 H        0.925     0.061     2.184     2.311
    46   1 H        0.923     0.074     2.041     2.234
    47   1 H        0.922     0.008     2.928     2.676
    48   1 H        0.926     0.065     2.137     2.286
    49   1 H        0.924     0.065     2.141     2.288
    50   1 H        0.924     0.066     2.127     2.281
    51   1 H        0.924     0.053     2.280     2.361
    52   1 H        0.924     0.054     2.274     2.358
    53   1 H        0.926     0.043     2.405     2.425
    54   1 H        0.926     0.057     2.239     2.340
    55   1 H        0.924     0.052     2.290     2.366
    56   1 H        0.924     0.054     2.268     2.355
    57   1 H        0.925     0.081     1.973     2.197
    58   1 H        0.925     0.080     1.978     2.200
    59   1 H        0.924     0.047     2.360     2.402
    60   1 H        0.924     0.051     2.312     2.378
    61   1 H        0.926     0.045     2.382     2.414
    62   1 H        0.924     0.072     2.065     2.247
    63   1 H        0.924     0.078     2.001     2.212
    64   1 H        0.925     0.078     2.005     2.214
    65   1 H        0.924     0.031     2.572     2.508
    66   1 H        0.925     0.071     2.071     2.250
    67   1 H        0.925     0.034     2.527     2.486
    68   1 H        0.925     0.049     2.332     2.388
    69   1 H        0.925     0.059     2.209     2.324
    70   1 H        0.925     0.033     2.538     2.492
    71   1 H        0.925     0.053     2.280     2.361
    72   1 H        0.860     0.156     1.362     1.828

Wiberg/Mayer (AO) data.
largest (>0.10) Wiberg bond orders for each atom

     #   Z sym  total        # sym  WBO       # sym  WBO       # sym  WBO
 ---------------------------------------------------------------------------
     1   7 N    3.038 --     2 C    1.955    72 H    0.943
     2   6 C    3.922 --     1 N    1.955     3 C    0.992    47 H    0.899
     3   6 C    3.979 --     2 C    0.992     4 C    0.979    14 C    0.955
                            31 C    0.939
     4   6 C    3.838 --    13 C    1.652     5 C    1.007     3 C    0.979
     5   6 C    3.974 --     4 C    1.007     6 C    1.001    35 H    0.944
                            34 H    0.920
     6   6 C    3.767 --     9 C    1.241     7 O    1.175     5 C    1.001
                             8 C    0.228
     7   8 O    2.560 --     8 C    1.272     6 C    1.175
     8   6 C    3.576 --     7 O    1.272    37 H    0.970    36 H    0.969
                             6 C    0.228
     9   6 C    3.894 --    12 C    1.407     6 C    1.241    10 O    1.092
    10   8 O    2.252 --     9 C    1.092    11 C    0.975
    11   6 C    3.932 --    39 H    0.977    10 O    0.975    40 H    0.975
                            38 H    0.975
    12   6 C    3.808 --     9 C    1.407    13 C    1.239    41 H    0.966
    13   6 C    3.967 --     4 C    1.652    12 C    1.239    42 H    0.958
    14   6 C    3.968 --    15 C    0.984    44 H    0.972    43 H    0.970
                             3 C    0.955
    15   6 C    3.988 --    16 C    1.055    14 C    0.984    45 H    0.962
                            46 H    0.931
    16   6 C    3.558 --    17 N    1.375    15 C    1.055    48 H    0.958
    17   7 N    3.453 --    16 C    1.375    30 C    1.000    18 C    0.990
    18   6 C    3.957 --    17 N    0.990    50 H    0.968    19 C    0.966
                            49 H    0.964
    19   6 C    3.976 --    20 C    1.008    51 H    0.972    52 H    0.972
                            18 C    0.966
    20   6 C    3.949 --    21 C    1.414    29 C    1.378    19 C    1.008
    21   6 C    3.954 --    22 C    1.414    20 C    1.414    53 H    0.968
    22   6 C    3.963 --    21 C    1.414    23 C    1.387    54 H    0.963
    23   6 C    3.900 --    22 C    1.387    26 C    1.224    24 O    1.105
    24   8 O    2.255 --    23 C    1.105    25 C    0.977
    25   6 C    3.930 --    57 H    0.977    24 O    0.977    55 H    0.973
                            56 H    0.973
    26   6 C    3.904 --    29 C    1.399    23 C    1.224    27 O    1.099
    27   8 O    2.254 --    26 C    1.099    28 C    0.980
    28   6 C    3.934 --    27 O    0.980    58 H    0.977    59 H    0.974
                            60 H    0.974
    29   6 C    3.962 --    26 C    1.399    20 C    1.378    61 H    0.963
    30   6 C    3.960 --    17 N    1.000    64 H    0.977    62 H    0.967
                            63 H    0.962
    31   6 C    3.972 --    33 C    1.010    32 C    1.009    65 H    0.962
                             3 C    0.939
    32   6 C    3.983 --    31 C    1.009    68 H    0.983    67 H    0.982
                            66 H    0.975
    33   6 C    3.987 --    31 C    1.010    70 H    0.983    71 H    0.981
                            69 H    0.978
    34   1 H    0.971 --     5 C    0.920
    35   1 H    0.975 --     5 C    0.944
    36   1 H    0.992 --     8 C    0.969
    37   1 H    0.997 --     8 C    0.970
    38   1 H    0.994 --    11 C    0.975
    39   1 H    0.993 --    11 C    0.977
    40   1 H    0.995 --    11 C    0.975
    41   1 H    0.996 --    12 C    0.966
    42   1 H    0.998 --    13 C    0.958
    43   1 H    0.996 --    14 C    0.970
    44   1 H    0.996 --    14 C    0.972
    45   1 H    0.995 --    15 C    0.962
    46   1 H    0.969 --    15 C    0.931
    47   1 H    0.990 --     2 C    0.899
    48   1 H    0.995 --    16 C    0.958
    49   1 H    0.991 --    18 C    0.964
    50   1 H    0.995 --    18 C    0.968
    51   1 H    0.996 --    19 C    0.972
    52   1 H    0.996 --    19 C    0.972
    53   1 H    0.998 --    21 C    0.968
    54   1 H    0.995 --    22 C    0.963
    55   1 H    0.993 --    25 C    0.973
    56   1 H    0.992 --    25 C    0.973
    57   1 H    0.993 --    25 C    0.977
    58   1 H    0.993 --    28 C    0.977
    59   1 H    0.994 --    28 C    0.974
    60   1 H    0.994 --    28 C    0.974
    61   1 H    0.997 --    29 C    0.963
    62   1 H    0.984 --    30 C    0.967
    63   1 H    0.988 --    30 C    0.962
    64   1 H    0.994 --    30 C    0.977
    65   1 H    0.995 --    31 C    0.962
    66   1 H    0.992 --    32 C    0.975
    67   1 H    0.998 --    32 C    0.982
    68   1 H    0.995 --    32 C    0.983
    69   1 H    0.995 --    33 C    0.978
    70   1 H    0.998 --    33 C    0.983
    71   1 H    0.994 --    33 C    0.981
    72   1 H    0.971 --     1 N    0.943
 ---------------------------------------------------------------------------

molecular dipole:
                 x           y           z       tot (Debye)
 q only:       -0.476      -0.334      -0.962
   full:       -0.172      -0.392      -1.179       3.189

           -------------------------------------------------
          | TOTAL ENERGY             -101.987086222601 Eh   |
          | GRADIENT NORM               0.003396599472 Eh/α |
          | HOMO-LUMO GAP               1.145901423659 eV   |
           -------------------------------------------------

 * finished run on 2024/04/06 at 11:15:47.421
