   * xtb version 6.6.1 (8d0f1dd) compiled by 'conda@1efc2f54142f' on 2023-08-01
          program call               : xtb xtbopt.xyz --opt crude --input .xc2 --gfn2

   ID    Z sym.   atoms
    1    7 N      1, 17
    2    6 C      2-6, 8, 9, 11-16, 18-23, 25, 26, 28-33
    3    8 O      7, 10, 24, 27
    4    1 H      34-72
########################################################################
[WARNING] Please study the warnings concerning your input carefully
-1- readin_getIntValue: could not parse ''
########################################################################

          :  Hamiltonian                  GFN2-xTB          :
 * total energy  :   -99.1741764 Eh     change       -0.1037392E-10 Eh
 * total energy  :   -99.3352994 Eh     change       -0.1611230E+00 Eh
 * total energy  :   -99.3369791 Eh     change       -0.1679760E-02 Eh
 * total energy  :   -99.3379363 Eh     change       -0.9571439E-03 Eh
 * total energy  :   -99.3381235 Eh     change       -0.1872340E-03 Eh
   *** GEOMETRY OPTIMIZATION CONVERGED AFTER 5 ITERATIONS ***

 final structure:
================
72
 xtb: 6.6.1 (8d0f1dd)
N           -2.07384621329772        2.73521077076893        2.27115849228860
C           -1.94336974519778        2.11081941290978        1.19659722021288
C           -3.04718363395699        1.90216213106170        0.19286077785801
C           -3.52340531841337        0.46124498872527        0.25586778613443
C           -4.57513220067950        0.03823586897262       -0.73245508567542
C           -5.02044978824731       -1.38314335418067       -0.56896830881326
O           -5.96770614985227       -1.87703465524297       -1.34022800980197
C           -6.59593364865910       -1.25422832419504       -2.29076747481970
C           -4.48400041738184       -2.24004982742112        0.42251393069287
O           -5.00498747173635       -3.48640862611053        0.43936552743560
C           -4.58474959922623       -4.38766976052061        1.43916824384137
C           -3.50870160621576       -1.75958244258261        1.27276031419935
C           -3.06417110880237       -0.41744195075312        1.17833407150868
C           -2.42621472347066        2.19481936689388       -1.19940285609913
C           -1.44193934045790        1.12126025766745       -1.69803319498988
C           -0.13006875856634        1.14100917242561       -1.00928477310732
N            0.53841826152150        0.06026438874765       -0.60717394034094
C            1.92358043681674        0.16002776005509       -0.21453276859359
C            2.86969690768238       -0.28563739565767       -1.34666694708792
C            4.29900361737895       -0.10641898249442       -0.91929849013706
C            4.95300968539112        1.09566989284718       -1.12986203829328
C            6.26231260345621        1.27420605721184       -0.71004592533019
C            6.94231633173000        0.25207093506056       -0.06471909926346
O            8.21119940424328        0.31338838657747        0.38395975650637
C            8.94994487492678        1.49712022561912        0.18968281672572
C            6.27820797615501       -0.98472941144950        0.15876327134655
O            7.01307476575076       -1.92495340716260        0.78876902312044
C            6.45015117083911       -3.19254428260517        1.02602317755986
C            4.96942289482203       -1.13960491688521       -0.26825339718226
C           -0.03732753527246       -1.26148099729845       -0.66124315373308
C           -4.26103031113194        2.85397066066959        0.43280503822600
C           -4.99990003151253        2.49982291921906        1.72157809952938
C           -3.87817295259602        4.33113406282689        0.45270204131367
H           -4.21017462700871        0.17266931064012       -1.76504601089347
H           -5.44485323924417        0.69569651431337       -0.63767166365236
H           -7.34524798062465       -1.83094575632029       -2.79701056603184
H           -6.41586603001936       -0.22654895132854       -2.55123684625191
H           -4.79160647160535       -3.99859644972359        2.44006374146250
H           -5.16509772857177       -5.29360987807522        1.27665906101023
H           -3.51910456931254       -4.61845932820540        1.34796169934109
H           -3.08853962137084       -2.38443858786159        2.04163917602525
H           -2.33676306426791       -0.09697364317789        1.90973556444556
H           -3.23110809320431        2.28899495217428       -1.92834942784210
H           -1.90896088693037        3.15381245131285       -1.15767822664498
H           -1.89955072854876        0.13629579039519       -1.63314007149820
H           -1.25650497551547        1.33423505963953       -2.75964868668863
H           -0.98710380791093        1.67449357858016        0.84749796737488
H            0.40778577193207        2.07661177144615       -0.98191741585475
H            2.09372441251263       -0.46343738950863        0.66745054090261
H            2.15131240136071        1.19447248790635        0.04995059086666
H            2.66592426805385        0.31994305540200       -2.23148239351034
H            2.67872647046862       -1.33119709277578       -1.59141106193069
H            4.44848801657941        1.90401991221519       -1.63713843418200
H            6.74762366880348        2.21813162675823       -0.89601246900519
H            8.48621868468837        2.34731376981607        0.69930754780310
H            9.06584802569077        1.72698021230623       -0.87380859736265
H            9.92831257250653        1.30534439912578        0.62593309293102
H            7.22944814402187       -3.77060934619080        1.51880643260848
H            5.57787553199775       -3.12814330505946        1.68472305391166
H            6.16836276220616       -3.68838073250887        0.09178023039044
H            4.45861038020831       -2.07666966383581       -0.11030397480096
H           -0.14561841507785       -1.60699981362912       -1.69231992288966
H           -1.01867939444464       -1.26976947886011       -0.18147379990625
H            0.61121080247857       -1.95453188776924       -0.13110547563185
H           -4.94386556362389        2.71068873286480       -0.41281544559549
H           -4.35644759210213        2.68469796637216        2.57506056136423
H           -5.30304203352341        1.45575064559539        1.73680255812665
H           -5.88890781409872        3.11820051742042        1.81536743228502
H           -3.18741784256599        4.53531437872142        1.26430636953395
H           -3.43380996196784        4.64792717105507       -0.48703526947077
H           -4.77424986255767        4.92524579358315        0.61313618044877
H           -1.25248438840659        2.83510180598979        2.85971467615812

          :  Hamiltonian                  GFN2-xTB          :
         :: total energy             -99.338123516454 Eh    ::
         :: gradient norm              0.007057599950 Eh/a0 ::
         :: HOMO-LUMO gap              1.146286220853 eV    ::
         :: SCC energy              -100.700670832559 Eh    ::
         :: -> dispersion             -0.074956502656 Eh    ::
         :: repulsion energy           1.361385787993 Eh    ::

    * Orbital Energies and Occupations

         #    Occupation            Energy/Eh            Energy/eV
      -------------------------------------------------------------
         1        2.0000           -0.8510149             -23.1573
       ...           ...                  ...                  ...
        78        1.9991           -0.5295673             -14.4103
        79        1.9989           -0.5269605             -14.3393
        80        1.9988           -0.5258707             -14.3097
        81        1.9986           -0.5230341             -14.2325
        82        1.9977           -0.5152891             -14.0217
        83        1.9976           -0.5141905             -13.9918
        84        1.9973           -0.5127705             -13.9532
        85        1.9971           -0.5113843             -13.9155
        86        1.9818           -0.4823011             -13.1241
        87        1.9809           -0.4814782             -13.1017
        88        1.9578           -0.4687499             -12.7553
        89        1.8679           -0.4499502             -12.2438
        90        1.6088           -0.4304014             -11.7118 (HOMO)
        91        0.4467           -0.3882761             -10.5655 (LUMO)
        92        0.1457           -0.3677367             -10.0066
        93        0.0213           -0.3362246              -9.1491
        94        0.0035           -0.3074448              -8.3660
        95        0.0032           -0.3061102              -8.3297
        96        0.0027           -0.3036266              -8.2621
        97        0.0000           -0.2259024              -6.1471
        98        0.0000           -0.1810039              -4.9254
        99                         -0.1295520              -3.5253
       100                         -0.0777570              -2.1159
       101                         -0.0676297              -1.8403
       ...                                ...                  ...
       171                          0.5834310              15.8760
      -------------------------------------------------------------
                  HL-Gap            0.0421252 Eh            1.1463 eV

     #   Z          covCN         q      C6AA      α(0)
     1   7 N        1.774    -0.273    27.896     7.821
     2   6 C        2.826     0.098    25.823     8.327
     3   6 C        3.906     0.005    20.434     6.425
     4   6 C        2.958    -0.008    28.218     8.713
     5   6 C        3.809    -0.074    21.901     6.662
     6   6 C        2.867     0.080    26.206     8.391
     7   8 O        1.712    -0.074    15.466     5.310
     8   6 C        2.743    -0.001    28.021     8.667
     9   6 C        2.850     0.133    25.082     8.208
    10   8 O        1.706    -0.242    18.007     5.729
    11   6 C        3.645     0.027    20.453     6.500
    12   6 C        2.910    -0.090    30.259     9.020
    13   6 C        2.905    -0.049    29.217     8.863
    14   6 C        3.811    -0.066    21.754     6.639
    15   6 C        3.802    -0.068    21.793     6.646
    16   6 C        2.842    -0.001    28.037     8.678
    17   7 N        2.729     0.003    21.208     6.840
    18   6 C        3.755    -0.015    20.903     6.519
    19   6 C        3.808    -0.070    21.833     6.652
    20   6 C        2.969    -0.002    28.064     8.690
    21   6 C        2.922    -0.050    29.235     8.867
    22   6 C        2.914    -0.068    29.699     8.936
    23   6 C        2.865     0.132    25.106     8.213
    24   8 O        1.706    -0.226    17.742     5.687
    25   6 C        3.645     0.026    20.468     6.502
    26   6 C        2.863     0.132    25.114     8.214
    27   8 O        1.706    -0.228    17.785     5.694
    28   6 C        3.645     0.028    20.431     6.497
    29   6 C        2.920    -0.080    30.004     8.983
    30   6 C        3.699    -0.068    21.982     6.705
    31   6 C        3.852    -0.007    20.674     6.467
    32   6 C        3.756    -0.121    22.867     6.818
    33   6 C        3.755    -0.118    22.812     6.810
    34   1 H        0.923     0.061     2.183     2.311
    35   1 H        0.924     0.078     2.004     2.214
    36   1 H        0.926     0.085     1.931     2.173
    37   1 H        0.926     0.053     2.281     2.362
    38   1 H        0.924     0.055     2.257     2.349
    39   1 H        0.925     0.080     1.978     2.199
    40   1 H        0.924     0.049     2.335     2.389
    41   1 H        0.926     0.050     2.317     2.380
    42   1 H        0.926     0.041     2.434     2.440
    43   1 H        0.925     0.054     2.268     2.355
    44   1 H        0.924     0.054     2.271     2.357
    45   1 H        0.925     0.062     2.180     2.309
    46   1 H        0.923     0.074     2.042     2.235
    47   1 H        0.922     0.008     2.924     2.674
    48   1 H        0.926     0.065     2.138     2.287
    49   1 H        0.924     0.065     2.142     2.289
    50   1 H        0.924     0.066     2.128     2.281
    51   1 H        0.924     0.053     2.280     2.361
    52   1 H        0.924     0.054     2.274     2.358
    53   1 H        0.926     0.043     2.406     2.425
    54   1 H        0.926     0.057     2.239     2.340
    55   1 H        0.924     0.052     2.290     2.366
    56   1 H        0.924     0.054     2.269     2.356
    57   1 H        0.925     0.081     1.973     2.197
    58   1 H        0.925     0.080     1.979     2.200
    59   1 H        0.924     0.047     2.361     2.403
    60   1 H        0.924     0.051     2.312     2.378
    61   1 H        0.926     0.045     2.383     2.414
    62   1 H        0.924     0.072     2.067     2.248
    63   1 H        0.924     0.078     2.003     2.213
    64   1 H        0.925     0.077     2.006     2.215
    65   1 H        0.924     0.031     2.569     2.507
    66   1 H        0.925     0.072     2.068     2.249
    67   1 H        0.925     0.034     2.531     2.488
    68   1 H        0.925     0.049     2.332     2.388
    69   1 H        0.925     0.060     2.204     2.322
    70   1 H        0.925     0.034     2.535     2.490
    71   1 H        0.925     0.053     2.277     2.360
    72   1 H        0.860     0.156     1.362     1.828

Wiberg/Mayer (AO) data.
largest (>0.10) Wiberg bond orders for each atom

     #   Z sym  total        # sym  WBO       # sym  WBO       # sym  WBO
 ---------------------------------------------------------------------------
     1   7 N    3.038 --     2 C    1.955    72 H    0.943
     2   6 C    3.922 --     1 N    1.955     3 C    0.992    47 H    0.899
     3   6 C    3.979 --     2 C    0.992     4 C    0.979    14 C    0.956
                            31 C    0.938
     4   6 C    3.838 --    13 C    1.642     5 C    1.020     3 C    0.979
     5   6 C    3.987 --     4 C    1.020     6 C    1.017    34 H    0.929
                            35 H    0.923
     6   6 C    3.772 --     9 C    1.238     7 O    1.172     5 C    1.017
                             8 C    0.225
     7   8 O    2.559 --     8 C    1.273     6 C    1.172
     8   6 C    3.579 --     7 O    1.273    37 H    0.969    36 H    0.969
                             6 C    0.225
     9   6 C    3.893 --    12 C    1.407     6 C    1.238    10 O    1.094
    10   8 O    2.253 --     9 C    1.094    11 C    0.975
    11   6 C    3.932 --    39 H    0.977    10 O    0.975    40 H    0.975
                            38 H    0.975
    12   6 C    3.811 --     9 C    1.407    13 C    1.244    41 H    0.966
    13   6 C    3.966 --     4 C    1.642    12 C    1.244    42 H    0.959
    14   6 C    3.968 --    15 C    0.984    44 H    0.972    43 H    0.970
                             3 C    0.956
    15   6 C    3.988 --    16 C    1.055    14 C    0.984    45 H    0.962
                            46 H    0.931
    16   6 C    3.558 --    17 N    1.375    15 C    1.055    48 H    0.958
    17   7 N    3.453 --    16 C    1.375    30 C    1.000    18 C    0.990
    18   6 C    3.957 --    17 N    0.990    50 H    0.968    19 C    0.966
                            49 H    0.964
    19   6 C    3.976 --    20 C    1.008    51 H    0.972    52 H    0.972
                            18 C    0.966
    20   6 C    3.949 --    21 C    1.413    29 C    1.378    19 C    1.008
    21   6 C    3.954 --    22 C    1.414    20 C    1.413    53 H    0.968
    22   6 C    3.963 --    21 C    1.414    23 C    1.387    54 H    0.963
    23   6 C    3.900 --    22 C    1.387    26 C    1.224    24 O    1.105
    24   8 O    2.255 --    23 C    1.105    25 C    0.977
    25   6 C    3.930 --    57 H    0.977    24 O    0.977    55 H    0.973
                            56 H    0.973
    26   6 C    3.904 --    29 C    1.398    23 C    1.224    27 O    1.099
    27   8 O    2.254 --    26 C    1.099    28 C    0.980
    28   6 C    3.934 --    27 O    0.980    58 H    0.977    59 H    0.974
                            60 H    0.974
    29   6 C    3.962 --    26 C    1.398    20 C    1.378    61 H    0.963
    30   6 C    3.960 --    17 N    1.000    64 H    0.977    62 H    0.967
                            63 H    0.962
    31   6 C    3.971 --    33 C    1.010    32 C    1.009    65 H    0.959
                             3 C    0.938
    32   6 C    3.983 --    31 C    1.009    68 H    0.983    67 H    0.982
                            66 H    0.975
    33   6 C    3.987 --    31 C    1.010    70 H    0.983    71 H    0.980
                            69 H    0.978
    34   1 H    0.974 --     5 C    0.929
    35   1 H    0.972 --     5 C    0.923
    36   1 H    0.992 --     8 C    0.969
    37   1 H    0.997 --     8 C    0.969
    38   1 H    0.994 --    11 C    0.975
    39   1 H    0.993 --    11 C    0.977
    40   1 H    0.995 --    11 C    0.975
    41   1 H    0.996 --    12 C    0.966
    42   1 H    0.998 --    13 C    0.959
    43   1 H    0.996 --    14 C    0.970
    44   1 H    0.996 --    14 C    0.972
    45   1 H    0.995 --    15 C    0.962
    46   1 H    0.969 --    15 C    0.931
    47   1 H    0.990 --     2 C    0.899
    48   1 H    0.995 --    16 C    0.958
    49   1 H    0.991 --    18 C    0.964
    50   1 H    0.995 --    18 C    0.968
    51   1 H    0.996 --    19 C    0.972
    52   1 H    0.996 --    19 C    0.972
    53   1 H    0.998 --    21 C    0.968
    54   1 H    0.995 --    22 C    0.963
    55   1 H    0.993 --    25 C    0.973
    56   1 H    0.992 --    25 C    0.973
    57   1 H    0.993 --    25 C    0.977
    58   1 H    0.993 --    28 C    0.977
    59   1 H    0.994 --    28 C    0.974
    60   1 H    0.994 --    28 C    0.974
    61   1 H    0.997 --    29 C    0.963
    62   1 H    0.984 --    30 C    0.967
    63   1 H    0.988 --    30 C    0.962
    64   1 H    0.994 --    30 C    0.977
    65   1 H    0.995 --    31 C    0.959
    66   1 H    0.992 --    32 C    0.975
    67   1 H    0.998 --    32 C    0.982
    68   1 H    0.995 --    32 C    0.983
    69   1 H    0.994 --    33 C    0.978
    70   1 H    0.998 --    33 C    0.983
    71   1 H    0.994 --    33 C    0.980
    72   1 H    0.971 --     1 N    0.943
 ---------------------------------------------------------------------------

molecular dipole:
                 x           y           z       tot (Debye)
 q only:       -0.466      -0.354      -0.951
   full:       -0.189      -0.393      -1.176       3.188

           -------------------------------------------------
          | TOTAL ENERGY              -99.338123516454 Eh   |
          | GRADIENT NORM               0.007057599950 Eh/α |
          | HOMO-LUMO GAP               1.146286220853 eV   |
           -------------------------------------------------

 * finished run on 2024/04/06 at 11:15:48.570
