   * xtb version 6.6.1 (8d0f1dd) compiled by 'conda@1efc2f54142f' on 2023-08-01
          program call               : xtb struc.xyz --opt loose --input .xc1 --gfn2

   ID    Z sym.   atoms
    1    7 N      1, 17
    2    6 C      2-6, 8, 9, 11-16, 18-23, 25, 26, 28-33
    3    8 O      7, 10, 24, 27
    4    1 H      34-72
constraining bond 26 28 to    5.0000000 Å, actual value:    2.3775150 Å

          :  Hamiltonian                  GFN2-xTB          :
 * total energy  :   -98.1761441 Eh     change       -0.4035485E-08 Eh
 * total energy  :   -98.4536639 Eh     change       -0.2775198E+00 Eh
 * total energy  :   -98.6545875 Eh     change       -0.2009236E+00 Eh
 * total energy  :   -98.7949796 Eh     change       -0.1403921E+00 Eh
 * total energy  :   -98.9006710 Eh     change       -0.1056914E+00 Eh
 * total energy  :   -98.9716767 Eh     change       -0.7100572E-01 Eh
 * total energy  :   -99.0249301 Eh     change       -0.5325339E-01 Eh
 * total energy  :   -99.0830573 Eh     change       -0.5812720E-01 Eh
 * total energy  :   -99.1591401 Eh     change       -0.7608278E-01 Eh
 * total energy  :   -99.2164424 Eh     change       -0.5730229E-01 Eh
 * total energy  :   -99.2930852 Eh     change       -0.1913637E-03 Eh
 * total energy  :   -99.2931902 Eh     change       -0.1050149E-03 Eh
 * total energy  :   -99.2932887 Eh     change       -0.9841357E-04 Eh
 * total energy  :   -99.2933804 Eh     change       -0.9178587E-04 Eh
 * total energy  :   -99.2934891 Eh     change       -0.1086887E-03 Eh
 * total energy  :   -99.2936075 Eh     change       -0.1183320E-03 Eh
 * total energy  :   -99.2936975 Eh     change       -0.9007618E-04 Eh
 * total energy  :   -99.2937545 Eh     change       -0.5697687E-04 Eh
 * total energy  :   -99.2937967 Eh     change       -0.4216035E-04 Eh
   *** GEOMETRY OPTIMIZATION CONVERGED AFTER 32 ITERATIONS ***

 final structure:
================
72
 xtb: 6.6.1 (8d0f1dd)
N           -1.97033595601359        2.87937235135683        2.22996147268216
C           -1.91699603021567        2.16721495802000        1.20646979553205
C           -3.06395356246571        1.94866668716813        0.25853385280913
C           -3.51259432315985        0.49651948166525        0.33293455565081
C           -4.45179009177659        0.01565465914270       -0.58162820233430
C           -4.91457815544637       -1.28859160859026       -0.52695671473356
O           -5.83027404628642       -1.82531433249180       -1.35775292321628
C           -6.46418027706812       -1.00422317921664       -2.31041214784822
C           -4.41221170152995       -2.16841367473255        0.47099103356961
O           -4.91369338167464       -3.41783423735924        0.44731903593057
C           -4.52225204425507       -4.33465471058112        1.44287942293818
C           -3.47614335243214       -1.68570880149293        1.37215164618951
C           -3.03701642132273       -0.36974655013981        1.30562673823833
C           -2.51805952566664        2.26188394045670       -1.15952086473162
C           -1.57035421815111        1.19084094889140       -1.72550981708651
C           -0.22264372437727        1.21794443526987       -1.11664412007882
N            0.49555903607722        0.15384199752214       -0.79479031568648
C            1.87795184130937        0.29285188809382       -0.39925039006538
C            2.83801613201235       -0.05004081988602       -1.55357642302907
C            4.25913862238913        0.14072125149269       -1.09631642793575
C            4.91604656114317        1.35546580349632       -1.32184245920207
C            6.21462175801273        1.55346182438779       -0.88004464595714
C            6.89298980007364        0.56108631401833       -0.19150339434565
O            8.13705246161599        0.64477771465971        0.28085523755824
C            8.88924474953197        1.82223060701469        0.09556809612515
C            6.24097758997889       -0.72859770081360        0.08091819260214
O            6.81532588608530       -1.63103609556008        0.70402599972106
C            6.96057317995763       -5.27560023149789        2.01420616192204
C            4.90428974370068       -0.86307624013656       -0.41668504538414
C           -0.02798503868582       -1.18645176036973       -0.90791558581685
C           -4.29322668286585        2.85643024523997        0.56167006492550
C           -4.92686002623664        2.51048358148878        1.90684322455504
C           -3.96828155486637        4.34676616641936        0.51302452724177
H           -4.83953953263480        0.67738302572106       -1.33804776982432
H           -6.98230404289305       -0.16585187683186       -1.83518270828494
H           -7.19245338351120       -1.64236678762888       -2.80688521377540
H           -5.75364809861909       -0.62455348825727       -3.05178877296797
H           -4.78237572161336       -3.97527173563985        2.44288647879853
H           -5.07551337073000       -5.24768059627469        1.23231984104534
H           -3.44869952326043       -4.54319198873683        1.39685781178599
H           -3.09016540862286       -2.32451810561947        2.14982876026120
H           -2.33485186790807       -0.02341518709930        2.04804436062146
H           -3.36107706879097        2.36410018760039       -1.84162250165057
H           -1.99829484551945        3.22020306509146       -1.13322314704254
H           -2.03262840021764        0.20856939304457       -1.63936594923323
H           -1.44823972368900        1.40730219681226       -2.79509085346488
H           -1.00000322636793        1.64946635076320        0.86410174152247
H            0.27339034522479        2.17515235535831       -1.04781897662940
H            2.07927846738554       -0.36997253680634        0.44627591141699
H            2.06096860527540        1.32062712136817       -0.07912569991405
H            2.62337337350975        0.60183991610918       -2.40218184962491
H            2.68444936906582       -1.08469811089975       -1.86219829683715
H            4.41403028861933        2.14585420862344       -1.85910506133439
H            6.69690118012544        2.49749892772446       -1.08286727435417
H            8.40455443701661        2.68375141718357        0.56536238588278
H            9.04959386156696        2.02945502867273       -0.96676168754682
H            9.84747696808068        1.63674422518668        0.57791967919902
H            7.87408569341831       -4.73713718494504        2.17476084194587
H            6.18749829543609       -5.24979906815124        2.75242830961007
H            6.80705462022307       -5.80676858448339        1.09939985601010
H            4.42597655153307       -1.81386595280320       -0.23469330554750
H           -0.22524279878247       -1.44579528659549       -1.94985631132019
H           -0.95740400783184       -1.28233497843112       -0.34144315117733
H            0.69689705579640       -1.88949851417837       -0.50654541531600
H           -5.03194452668811        2.64760050427685       -0.22045699873244
H           -4.23256519046612        2.72626262443025        2.71247467807499
H           -5.20578134069827        1.46052585175314        1.95242225523262
H           -5.82231129051373        3.10900248736490        2.05156299481676
H           -3.22326428529024        4.59544712033201        1.26231005125845
H           -3.61008105967388        4.65375270465930       -0.46593791487000
H           -4.86953053939241        4.91413511749955        0.72955450091586
H           -1.12945150894895        2.97926076338607        2.78932366292171

          :  Hamiltonian                  GFN2-xTB          :
         :: total energy             -99.293796683794 Eh    ::
         :: gradient norm              0.003848061453 Eh/a0 ::
         :: HOMO-LUMO gap              0.363863867025 eV    ::
         :: SCC energy              -100.679357008276 Eh    ::
         :: -> dispersion             -0.072381414711 Eh    ::
         :: repulsion energy           1.384377609196 Eh    ::

    * Orbital Energies and Occupations

         #    Occupation            Energy/Eh            Energy/eV
      -------------------------------------------------------------
         1        2.0000           -0.8131982             -22.1282
       ...           ...                  ...                  ...
        78        1.9980           -0.5324538             -14.4888
        79        1.9978           -0.5315389             -14.4639
        80        1.9970           -0.5264710             -14.3260
        81        1.9959           -0.5211866             -14.1822
        82        1.9952           -0.5187180             -14.1150
        83        1.9943           -0.5160685             -14.0429
        84        1.9933           -0.5135061             -13.9732
        85        1.9780           -0.4946410             -13.4599
        86        1.9559           -0.4834176             -13.1545
        87        1.9282           -0.4754727             -12.9383
        88        1.8517           -0.4633480             -12.6083
        89        1.8359           -0.4616095             -12.5610
        90        1.2611           -0.4318385             -11.7509 (HOMO)
        91        0.8463           -0.4184668             -11.3871 (LUMO)
        92        0.3629           -0.3995165             -10.8714
        93        0.0128           -0.3434731              -9.3464
        94        0.0030           -0.3206792              -8.7261
        95        0.0025           -0.3177044              -8.6452
        96        0.0013           -0.3074076              -8.3650
        97        0.0006           -0.2951229              -8.0307
        98        0.0000           -0.1951054              -5.3091
        99        0.0000           -0.1833207              -4.9884
       100                         -0.1397783              -3.8036
       101                         -0.0732236              -1.9925
       ...                                ...                  ...
       171                          0.6067664              16.5110
      -------------------------------------------------------------
                  HL-Gap            0.0133718 Eh            0.3639 eV

     #   Z          covCN         q      C6AA      α(0)
     1   7 N        1.774    -0.265    27.691     7.792
     2   6 C        2.826     0.102    25.734     8.312
     3   6 C        3.907     0.006    20.412     6.422
     4   6 C        2.974     0.003    27.961     8.674
     5   6 C        2.920    -0.080    29.991     8.981
     6   6 C        2.862     0.130    25.141     8.219
     7   8 O        1.706    -0.227    17.765     5.691
     8   6 C        3.644     0.027    20.463     6.502
     9   6 C        2.864     0.130    25.154     8.221
    10   8 O        1.706    -0.225    17.734     5.686
    11   6 C        3.645     0.026    20.474     6.503
    12   6 C        2.913    -0.074    29.839     8.957
    13   6 C        2.921    -0.052    29.303     8.877
    14   6 C        3.812    -0.065    21.745     6.637
    15   6 C        3.802    -0.070    21.835     6.653
    16   6 C        2.845     0.010    27.776     8.637
    17   7 N        2.729     0.018    20.936     6.796
    18   6 C        3.757    -0.018    20.946     6.525
    19   6 C        3.808    -0.071    21.844     6.653
    20   6 C        2.961     0.006    27.896     8.663
    21   6 C        2.921    -0.043    29.072     8.842
    22   6 C        2.905    -0.067    29.659     8.930
    23   6 C        2.858     0.130    25.143     8.219
    24   8 O        1.706    -0.191    17.194     5.598
    25   6 C        3.645     0.022    20.543     6.515
    26   6 C        2.827     0.200    23.743     7.985
    27   8 O        0.858    -0.369    21.063     6.153
    28   6 C        2.780    -0.110    30.756     9.083
    29   6 C        2.917    -0.075    29.879     8.964
    30   6 C        3.700    -0.072    22.041     6.714
    31   6 C        3.853    -0.008    20.676     6.467
    32   6 C        3.756    -0.119    22.829     6.813
    33   6 C        3.755    -0.119    22.840     6.814
    34   1 H        0.926     0.053     2.283     2.363
    35   1 H        0.924     0.055     2.259     2.350
    36   1 H        0.925     0.083     1.952     2.185
    37   1 H        0.924     0.049     2.337     2.391
    38   1 H        0.924     0.057     2.239     2.340
    39   1 H        0.925     0.083     1.951     2.184
    40   1 H        0.924     0.050     2.320     2.382
    41   1 H        0.926     0.054     2.271     2.356
    42   1 H        0.926     0.040     2.452     2.449
    43   1 H        0.925     0.061     2.182     2.310
    44   1 H        0.924     0.055     2.263     2.352
    45   1 H        0.925     0.068     2.105     2.269
    46   1 H        0.923     0.083     1.949     2.183
    47   1 H        0.922     0.006     2.950     2.686
    48   1 H        0.926     0.073     2.054     2.241
    49   1 H        0.924     0.073     2.049     2.238
    50   1 H        0.924     0.068     2.109     2.271
    51   1 H        0.924     0.055     2.264     2.353
    52   1 H        0.924     0.059     2.210     2.325
    53   1 H        0.926     0.045     2.382     2.414
    54   1 H        0.926     0.056     2.249     2.345
    55   1 H        0.924     0.060     2.203     2.321
    56   1 H        0.924     0.062     2.176     2.307
    57   1 H        0.925     0.087     1.906     2.159
    58   1 H        0.926     0.096     1.823     2.111
    59   1 H        0.927     0.084     1.943     2.180
    60   1 H        0.927     0.085     1.926     2.170
    61   1 H        0.926     0.057     2.236     2.338
    62   1 H        0.924     0.079     1.986     2.204
    63   1 H        0.924     0.080     1.982     2.202
    64   1 H        0.925     0.085     1.925     2.169
    65   1 H        0.924     0.038     2.472     2.459
    66   1 H        0.925     0.069     2.093     2.263
    67   1 H        0.925     0.036     2.504     2.474
    68   1 H        0.925     0.052     2.290     2.366
    69   1 H        0.925     0.062     2.174     2.306
    70   1 H        0.925     0.035     2.514     2.480
    71   1 H        0.925     0.056     2.251     2.346
    72   1 H        0.860     0.159     1.340     1.813

Wiberg/Mayer (AO) data.
largest (>0.10) Wiberg bond orders for each atom

     #   Z sym  total        # sym  WBO       # sym  WBO       # sym  WBO
 ---------------------------------------------------------------------------
     1   7 N    3.041 --     2 C    1.959    72 H    0.941
     2   6 C    3.932 --     1 N    1.959     3 C    0.994    47 H    0.901
     3   6 C    3.974 --     2 C    0.994     4 C    0.969    14 C    0.957
                            31 C    0.942
     4   6 C    3.945 --    13 C    1.412     5 C    1.369     3 C    0.969
     5   6 C    3.960 --     6 C    1.399     4 C    1.369    34 H    0.957
     6   6 C    3.901 --     5 C    1.399     9 C    1.218     7 O    1.103
     7   8 O    2.254 --     6 C    1.103     8 C    0.977
     8   6 C    3.930 --     7 O    0.977    36 H    0.976    35 H    0.973
                            37 H    0.973
     9   6 C    3.897 --    12 C    1.389     6 C    1.218    10 O    1.106
    10   8 O    2.253 --     9 C    1.106    11 C    0.976
    11   6 C    3.929 --    39 H    0.977    10 O    0.976    40 H    0.973
                            38 H    0.973
    12   6 C    3.960 --    13 C    1.406     9 C    1.389    41 H    0.963
    13   6 C    3.950 --     4 C    1.412    12 C    1.406    42 H    0.962
    14   6 C    3.974 --    15 C    0.984    44 H    0.972    43 H    0.969
                             3 C    0.957
    15   6 C    3.986 --    16 C    1.061    14 C    0.984    45 H    0.959
                            46 H    0.924
    16   6 C    3.616 --    17 N    1.423    15 C    1.061    48 H    0.956
    17   7 N    3.498 --    16 C    1.423    30 C    0.997    18 C    0.986
    18   6 C    3.952 --    17 N    0.986    50 H    0.968    19 C    0.967
                            49 H    0.962
    19   6 C    3.972 --    20 C    1.002    51 H    0.973    52 H    0.970
                            18 C    0.967
    20   6 C    3.935 --    29 C    1.495    21 C    1.321    19 C    1.002
    21   6 C    3.809 --    22 C    1.420    20 C    1.321    53 H    0.968
    22   6 C    3.941 --    21 C    1.420    23 C    1.387    54 H    0.959
    23   6 C    3.733 --    22 C    1.387    24 O    1.155    26 C    1.049
    24   8 O    2.258 --    23 C    1.155    25 C    0.972
    25   6 C    3.921 --    57 H    0.976    24 O    0.972    55 H    0.970
                            56 H    0.969
    26   6 C    3.883 --    27 O    1.578    29 C    1.164    23 C    1.049
    27   8 O    1.714 --    26 C    1.578
    28   6 C    2.970 --    59 H    0.991    60 H    0.991    58 H    0.989
    29   6 C    3.796 --    20 C    1.495    26 C    1.164    61 H    0.964
    30   6 C    3.956 --    17 N    0.997    64 H    0.977    62 H    0.966
                            63 H    0.963
    31   6 C    3.971 --    33 C    1.009    32 C    1.008    65 H    0.959
                             3 C    0.942
    32   6 C    3.977 --    31 C    1.008    67 H    0.981    68 H    0.981
                            66 H    0.973
    33   6 C    3.981 --    31 C    1.009    70 H    0.982    71 H    0.980
                            69 H    0.975
    34   1 H    0.996 --     5 C    0.957
    35   1 H    0.993 --     8 C    0.973
    36   1 H    0.992 --     8 C    0.976
    37   1 H    0.993 --     8 C    0.973
    38   1 H    0.992 --    11 C    0.973
    39   1 H    0.992 --    11 C    0.977
    40   1 H    0.992 --    11 C    0.973
    41   1 H    0.995 --    12 C    0.963
    42   1 H    0.998 --    13 C    0.962
    43   1 H    0.995 --    14 C    0.969
    44   1 H    0.996 --    14 C    0.972
    45   1 H    0.994 --    15 C    0.959
    46   1 H    0.970 --    15 C    0.924
    47   1 H    0.985 --     2 C    0.901
    48   1 H    0.994 --    16 C    0.956
    49   1 H    0.990 --    18 C    0.962
    50   1 H    0.994 --    18 C    0.968
    51   1 H    0.996 --    19 C    0.973
    52   1 H    0.995 --    19 C    0.970
    53   1 H    0.997 --    21 C    0.968
    54   1 H    0.991 --    22 C    0.959
    55   1 H    0.987 --    25 C    0.970
    56   1 H    0.987 --    25 C    0.969
    57   1 H    0.991 --    25 C    0.976
    58   1 H    0.990 --    28 C    0.989
    59   1 H    0.993 --    28 C    0.991
    60   1 H    0.992 --    28 C    0.991
    61   1 H    0.993 --    29 C    0.964
    62   1 H    0.985 --    30 C    0.966
    63   1 H    0.987 --    30 C    0.963
    64   1 H    0.993 --    30 C    0.977
    65   1 H    0.991 --    31 C    0.959
    66   1 H    0.990 --    32 C    0.973
    67   1 H    0.996 --    32 C    0.981
    68   1 H    0.994 --    32 C    0.981
    69   1 H    0.992 --    33 C    0.975
    70   1 H    0.997 --    33 C    0.982
    71   1 H    0.993 --    33 C    0.980
    72   1 H    0.969 --     1 N    0.941
 ---------------------------------------------------------------------------

molecular dipole:
                 x           y           z       tot (Debye)
 q only:       -0.235       0.318      -0.986
   full:        0.083       0.501      -1.238       3.401

           -------------------------------------------------
          | TOTAL ENERGY              -99.293796683794 Eh   |
          | GRADIENT NORM               0.003848061453 Eh/α |
          | HOMO-LUMO GAP               0.363863867025 eV   |
           -------------------------------------------------

 * finished run on 2024/04/06 at 11:14:31.146
