   * xtb version 6.6.1 (8d0f1dd) compiled by 'conda@1efc2f54142f' on 2023-08-01
          program call               : xtb struc.xyz --opt loose --input .xc1 --gfn2

   ID    Z sym.   atoms
    1    6 C      1, 3, 5-7, 10, 11, 14
    2    7 N      2, 4, 9, 13
    3    8 O      8, 12
    4    1 H      15-25
constraining bond 8 21 to    4.6333300 Å, actual value:    3.5021541 Å

          :  Hamiltonian                  GFN2-xTB          :
 * total energy  :   -44.5299768 Eh     change       -0.6633627E-10 Eh
 * total energy  :   -48.4165474 Eh     change       -0.3886571E+01 Eh
 * total energy  :   -54.1358181 Eh     change       -0.5719271E+01 Eh
 * total energy  :   -61.8229594 Eh     change       -0.7687141E+01 Eh
 * total energy  :   -70.8652575 Eh     change       -0.9042298E+01 Eh
 * total energy  :   -53.8329677 Eh     change        0.1703229E+02 Eh
 * total energy  :   -66.9892284 Eh     change       -0.1315626E+02 Eh
 * total energy  :   -67.5402805 Eh     change       -0.5510521E+00 Eh
 * total energy  :   -69.2333249 Eh     change       -0.1693044E+01 Eh
 * total energy  :   -71.0965247 Eh     change       -0.1863200E+01 Eh
 * total energy  :   -72.2001731 Eh     change       -0.1136277E-03 Eh
 * total energy  :   -72.2002320 Eh     change       -0.5884215E-04 Eh
 * total energy  :   -72.2003139 Eh     change       -0.8196303E-04 Eh
 * total energy  :   -72.2003775 Eh     change       -0.6358859E-04 Eh
 * total energy  :   -72.1627476 Eh     change        0.3762988E-01 Eh
 * total energy  :   -72.2004294 Eh     change       -0.3768177E-01 Eh
 * total energy  :   -72.2004486 Eh     change       -0.1921956E-04 Eh
 * total energy  :   -72.2004843 Eh     change       -0.3570418E-04 Eh
 * total energy  :   -72.2004907 Eh     change       -0.6428893E-05 Eh
   *** GEOMETRY OPTIMIZATION CONVERGED AFTER 72 ITERATIONS ***

 final structure:
================
25
 xtb: 6.6.1 (8d0f1dd)
C            3.25688608639272        1.05033077283831        0.07461309295507
N            2.31808033938743       -0.03719512504311        0.04512599665188
C            2.58145075934071       -1.33072037146180        0.04510721318577
N            1.43027065203105       -2.04060485775660       -0.00362618489269
C            0.39917978723945       -1.15070228609044       -0.03844972469406
C            0.95510650884946        0.12608562847478       -0.00554845141730
C            0.17392432533234        1.31401143996102        0.01612039076078
O           -1.49367053461593        3.26019224722712        0.65313302389026
N           -1.12839546088806        1.03323513832864       -0.04174424342283
C           -2.06273842095821        2.19560708364648       -0.00223787134611
C           -1.76477267430608       -0.21239345438007       -0.13433546475169
O           -2.95308715058172       -0.33208040100977       -0.22968197967951
N           -0.92378481658848       -1.34572920098475       -0.10339376158675
C           -1.52023781619890       -2.66710072247024       -0.13073205326733
H            3.96041380699977        0.92741532636086        0.89686048880506
H            3.81415719443857        1.09780939974630       -0.86151616490696
H            2.69412100617505        1.97342843412284        0.20360187585728
H            3.56045432139598       -1.76817402478706        0.08076186721921
H           -2.31782659761796        2.42733599479757       -1.05110240142085
H           -2.97317880170541        1.85803104246865        0.50733329892604
H           -1.15982875195587        3.46107470216331        0.53750922307868
H           -1.26833997064258       -3.21656422344314        0.77664474946212
H           -1.18627448572401       -3.21834336957781       -1.00996981411819
H           -2.60056904795664       -2.53696296208514       -0.18175887565750
H            1.36909125625718       -3.04974766944532       -0.01154261173076

          :  Hamiltonian                  GFN2-xTB          :
         :: total energy             -72.200490751382 Eh    ::
         :: gradient norm              0.003984891626 Eh/a0 ::
         :: HOMO-LUMO gap              1.729938557032 eV    ::
         :: SCC energy               -42.697086468592 Eh    ::
         :: -> dispersion             -0.022191839641 Eh    ::
         :: repulsion energy           2.398259554311 Eh    ::

    * Orbital Energies and Occupations

         #    Occupation            Energy/Eh            Energy/eV
      -------------------------------------------------------------
         1        2.0000           -0.9115937             -24.8057
       ...           ...                  ...                  ...
        25        2.0000           -0.6664130             -18.1340
        26        2.0000           -0.6580385             -17.9061
        27        2.0000           -0.6414014             -17.4534
        28        2.0000           -0.6348576             -17.2754
        29        2.0000           -0.6308414             -17.1661
        30        2.0000           -0.6240514             -16.9813
        31        2.0000           -0.6221266             -16.9289
        32        2.0000           -0.6067524             -16.5106
        33        2.0000           -0.5851131             -15.9217
        34        2.0000           -0.5627161             -15.3123
        35        1.9999           -0.5577478             -15.1771
        36        1.9996           -0.5422375             -14.7550
        37        1.9646           -0.5060490             -13.7703 (HOMO)
        38        0.0355           -0.4424750             -12.0404 (LUMO)
        39        0.0004           -0.4071474             -11.0790
        40        0.0000           -0.3729403             -10.1482
        41                         -0.2847144              -7.7475
        42                         -0.2028110              -5.5188
        43                         -0.1950604              -5.3079
        44                         -0.1392482              -3.7891
        45                         -0.1227889              -3.3413
        46                         -0.0761890              -2.0732
        47                         -0.0462637              -1.2589
        48                         -0.0404132              -1.0997
       ...                                ...                  ...
        67                          5.2547550             142.9892
      -------------------------------------------------------------
                  HL-Gap            0.0635741 Eh            1.7299 eV

     #   Z          covCN         q      C6AA      α(0)
     1   6 C        3.693    -0.094    22.481     6.784
     2   7 N        2.837     0.081    19.830     6.614
     3   6 C        3.066     0.059    26.605     8.458
     4   7 N        2.790    -0.062    22.446     7.037
     5   6 C        3.056     0.116    25.398     8.265
     6   6 C        3.141     0.019    27.342     8.557
     7   6 C        1.918    -0.137    34.973     9.551
     8   8 O        1.662    -0.425    21.341     6.236
     9   7 N        2.763    -0.028    21.779     6.931
    10   6 C        3.678     0.124    18.760     6.204
    11   6 C        2.725     0.310    21.726     7.631
    12   8 O        0.859    -0.370    21.094     6.158
    13   7 N        2.739    -0.045    22.104     6.983
    14   6 C        3.696    -0.071    22.033     6.714
    15   1 H        0.925     0.107     1.722     2.052
    16   1 H        0.924     0.109     1.701     2.040
    17   1 H        0.925     0.130     1.537     1.939
    18   1 H        0.926     0.121     1.604     1.981
    19   1 H        0.923     0.073     2.052     2.240
    20   1 H        0.924     0.103     1.755     2.072
    21   1 H        0.858     0.366     0.547     1.159
    22   1 H        0.924     0.081     1.970     2.195
    23   1 H        0.925     0.081     1.971     2.195
    24   1 H        0.925     0.125     1.573     1.961
    25   1 H        0.860     0.226     0.985     1.554

Wiberg/Mayer (AO) data.
largest (>0.10) Wiberg bond orders for each atom

     #   Z sym  total        # sym  WBO       # sym  WBO       # sym  WBO
 ---------------------------------------------------------------------------
     1   6 C    3.921 --     2 N    0.987    17 H    0.967    15 H    0.963
                            16 H    0.957
     2   7 N    3.717 --     3 C    1.431     6 C    1.149     1 C    0.987
     3   6 C    3.906 --     2 N    1.431     4 N    1.275    18 H    0.953
     4   7 N    3.604 --     3 C    1.275     5 C    1.191    25 H    0.919
     5   6 C    3.950 --     6 C    1.314    13 N    1.237     4 N    1.191
     6   6 C    3.919 --     5 C    1.314     7 C    1.188     2 N    1.149
     7   6 C    2.839 --     9 N    1.404     6 C    1.188
     8   8 O    2.030 --    10 C    1.066    21 H    0.861
     9   7 N    3.655 --     7 C    1.404    11 C    1.073    10 C    0.916
                            12 O    0.114
    10   6 C    3.925 --     8 O    1.066    20 H    0.952    19 H    0.942
                             9 N    0.916
    11   6 C    3.955 --    12 O    1.720     9 N    1.073    13 N    1.052
    12   8 O    2.070 --    11 C    1.720    13 N    0.138     9 N    0.114
    13   7 N    3.595 --     5 C    1.237    11 C    1.052    14 C    0.974
                            12 O    0.138
    14   6 C    3.930 --    13 N    0.974    23 H    0.971    22 H    0.971
                            24 H    0.965
    15   1 H    0.988 --     1 C    0.963
    16   1 H    0.987 --     1 C    0.957
    17   1 H    0.983 --     1 C    0.967
    18   1 H    0.984 --     3 C    0.953
    19   1 H    0.992 --    10 C    0.942
    20   1 H    0.988 --    10 C    0.952
    21   1 H    0.866 --     8 O    0.861
    22   1 H    0.993 --    14 C    0.971
    23   1 H    0.993 --    14 C    0.971
    24   1 H    0.984 --    14 C    0.965
    25   1 H    0.949 --     4 N    0.919
 ---------------------------------------------------------------------------

molecular dipole:
                 x           y           z       tot (Debye)
 q only:        3.020      -1.569      -0.115
   full:        3.329      -2.457      -0.268      10.539

           -------------------------------------------------
          | TOTAL ENERGY              -72.200490751382 Eh   |
          | GRADIENT NORM               0.003984891626 Eh/α |
          | HOMO-LUMO GAP               1.729938557032 eV   |
           -------------------------------------------------

 * finished run on 2024/06/05 at 19:58:15.831
