   * xtb version 6.6.1 (8d0f1dd) compiled by 'conda@1efc2f54142f' on 2023-08-01
          program call               : xtb xtbopt.xyz --opt crude --input .xc2 --gfn2

   ID    Z sym.   atoms
    1    6 C      1, 3, 5-7, 10, 11, 14
    2    7 N      2, 4, 9, 13
    3    8 O      8, 12
    4    1 H      15-25
########################################################################
[WARNING] Please study the warnings concerning your input carefully
-1- readin_getIntValue: could not parse ''
########################################################################

          :  Hamiltonian                  GFN2-xTB          :
 * total energy  :   -40.2987246 Eh     change       -0.7105427E-13 Eh
 * total energy  :   -42.1317365 Eh     change       -0.1833012E+01 Eh
 * total energy  :   -42.1510218 Eh     change       -0.1928531E-01 Eh
 * total energy  :   -42.1525877 Eh     change       -0.1565934E-02 Eh
 * total energy  :   -42.1534479 Eh     change       -0.8601973E-03 Eh
 * total energy  :   -42.1541676 Eh     change       -0.7196780E-03 Eh
 * total energy  :   -42.1552705 Eh     change       -0.1102924E-02 Eh
 * total energy  :   -42.1560580 Eh     change       -0.7874762E-03 Eh
 * total energy  :   -42.1563618 Eh     change       -0.3038381E-03 Eh
   *** GEOMETRY OPTIMIZATION CONVERGED AFTER 9 ITERATIONS ***

 final structure:
================
25
 xtb: 6.6.1 (8d0f1dd)
C            3.23761655014868        1.06371911966166        0.03680905949522
N            2.29988785474521       -0.02507443126474        0.02318884856388
C            2.57081086756010       -1.31653393241891        0.05362167060037
N            1.42455604515773       -2.03460378869755        0.01990049605509
C            0.38819113065824       -1.15164697097161       -0.03571174360051
C            0.93601570889058        0.12919627422229       -0.03303755381187
C            0.14558669646652        1.31063156622820       -0.03909851062396
O           -1.68579250713563        3.07954009370246        0.93122618534493
N           -1.15641822600543        1.02151798768461       -0.08624129801177
C           -2.07406680567851        2.18357860277992       -0.03688551222543
C           -1.78386470147052       -0.23312161730258       -0.15829019291643
O           -2.96788923298414       -0.36854026284533       -0.26983701919982
N           -0.93234535427761       -1.35818598092935       -0.09435626710884
C           -1.51414196841744       -2.68648900109004       -0.09447350033276
H            3.95505010424992        0.93955153667160        0.84675652265922
H            3.77824421362978        1.11284034131136       -0.90906763807399
H            2.67802121310672        1.98700366196558        0.17611240493501
H            3.55301733343032       -1.74590506480219        0.09912480395815
H           -2.09019664928134        2.63235491552065       -1.03586227399732
H           -3.07035542568470        1.82136222089536        0.22145217050935
H           -0.87406972999020        3.53763783819895        0.66503282070524
H           -1.24712861537942       -3.21708362184213        0.81966881315826
H           -1.18137461531336       -3.24847240234477       -0.96749896863128
H           -2.59635076239612       -2.57116302177001       -0.13828459681539
H            1.36742839007083       -3.04387552096266        0.03692289726423

          :  Hamiltonian                  GFN2-xTB          :
         :: total energy             -42.156361834290 Eh    ::
         :: gradient norm              0.008817257678 Eh/a0 ::
         :: HOMO-LUMO gap              1.740731694316 eV    ::
         :: SCC energy               -42.665075766127 Eh    ::
         :: -> dispersion             -0.022189844554 Eh    ::
         :: repulsion energy           0.508605091011 Eh    ::

    * Orbital Energies and Occupations

         #    Occupation            Energy/Eh            Energy/eV
      -------------------------------------------------------------
         1        2.0000           -0.9132444             -24.8506
       ...           ...                  ...                  ...
        25        2.0000           -0.6655654             -18.1110
        26        2.0000           -0.6577528             -17.8984
        27        2.0000           -0.6413959             -17.4533
        28        2.0000           -0.6380787             -17.3630
        29        2.0000           -0.6300605             -17.1448
        30        2.0000           -0.6245104             -16.9938
        31        2.0000           -0.6236752             -16.9711
        32        2.0000           -0.6102986             -16.6071
        33        2.0000           -0.5861358             -15.9496
        34        2.0000           -0.5685052             -15.4698
        35        1.9999           -0.5561844             -15.1345
        36        1.9998           -0.5484314             -14.9236
        37        1.9654           -0.5087266             -13.8432 (HOMO)
        38        0.0346           -0.4447559             -12.1024 (LUMO)
        39        0.0004           -0.4089691             -11.1286
        40        0.0000           -0.3734919             -10.1632
        41                         -0.2868630              -7.8059
        42                         -0.2020308              -5.4975
        43                         -0.1963117              -5.3419
        44                         -0.1410482              -3.8381
        45                         -0.1186088              -3.2275
        46                         -0.0779746              -2.1218
        47                         -0.0463775              -1.2620
        48                         -0.0446345              -1.2146
       ...                                ...                  ...
        67                          0.5404314              14.7059
      -------------------------------------------------------------
                  HL-Gap            0.0639707 Eh            1.7407 eV

     #   Z          covCN         q      C6AA      α(0)
     1   6 C        3.693    -0.093    22.473     6.783
     2   7 N        2.837     0.081    19.833     6.614
     3   6 C        3.067     0.060    26.587     8.455
     4   7 N        2.790    -0.062    22.443     7.036
     5   6 C        3.057     0.117    25.367     8.260
     6   6 C        3.139     0.019    27.342     8.557
     7   6 C        1.922    -0.139    35.025     9.558
     8   8 O        1.657    -0.394    20.740     6.148
     9   7 N        2.762    -0.027    21.767     6.929
    10   6 C        3.636     0.129    18.829     6.243
    11   6 C        2.723     0.313    21.680     7.622
    12   8 O        0.859    -0.366    21.006     6.145
    13   7 N        2.739    -0.044    22.100     6.982
    14   6 C        3.696    -0.070    22.026     6.713
    15   1 H        0.925     0.107     1.721     2.051
    16   1 H        0.924     0.110     1.695     2.036
    17   1 H        0.925     0.128     1.552     1.948
    18   1 H        0.926     0.122     1.600     1.978
    19   1 H        0.924     0.066     2.128     2.281
    20   1 H        0.924     0.108     1.715     2.048
    21   1 H        0.804     0.322     0.657     1.274
    22   1 H        0.925     0.081     1.969     2.194
    23   1 H        0.924     0.081     1.970     2.195
    24   1 H        0.925     0.125     1.571     1.960
    25   1 H        0.860     0.226     0.982     1.552

Wiberg/Mayer (AO) data.
largest (>0.10) Wiberg bond orders for each atom

     #   Z sym  total        # sym  WBO       # sym  WBO       # sym  WBO
 ---------------------------------------------------------------------------
     1   6 C    3.921 --     2 N    0.987    17 H    0.967    15 H    0.963
                            16 H    0.956
     2   7 N    3.719 --     3 C    1.432     6 C    1.148     1 C    0.987
     3   6 C    3.907 --     2 N    1.432     4 N    1.276    18 H    0.953
     4   7 N    3.605 --     3 C    1.276     5 C    1.191    25 H    0.919
     5   6 C    3.950 --     6 C    1.312    13 N    1.241     4 N    1.191
     6   6 C    3.919 --     5 C    1.312     7 C    1.192     2 N    1.148
     7   6 C    2.842 --     9 N    1.406     6 C    1.192
     8   8 O    2.020 --    10 C    1.058    21 H    0.876
     9   7 N    3.655 --     7 C    1.406    11 C    1.070    10 C    0.920
                            12 O    0.114
    10   6 C    3.926 --     8 O    1.058    20 H    0.954    19 H    0.951
                             9 N    0.920
    11   6 C    3.955 --    12 O    1.726     9 N    1.070    13 N    1.048
    12   8 O    2.077 --    11 C    1.726    13 N    0.137     9 N    0.114
    13   7 N    3.596 --     5 C    1.241    11 C    1.048    14 C    0.974
                            12 O    0.137
    14   6 C    3.929 --    13 N    0.974    22 H    0.971    23 H    0.971
                            24 H    0.965
    15   1 H    0.988 --     1 C    0.963
    16   1 H    0.987 --     1 C    0.956
    17   1 H    0.984 --     1 C    0.967
    18   1 H    0.984 --     3 C    0.953
    19   1 H    0.994 --    10 C    0.951
    20   1 H    0.988 --    10 C    0.954
    21   1 H    0.896 --     8 O    0.876
    22   1 H    0.993 --    14 C    0.971
    23   1 H    0.993 --    14 C    0.971
    24   1 H    0.984 --    14 C    0.965
    25   1 H    0.949 --     4 N    0.919
 ---------------------------------------------------------------------------

molecular dipole:
                 x           y           z       tot (Debye)
 q only:        3.300      -1.467      -0.254
   full:        3.603      -2.391      -0.438      11.047

           -------------------------------------------------
          | TOTAL ENERGY              -42.156361834290 Eh   |
          | GRADIENT NORM               0.008817257678 Eh/α |
          | HOMO-LUMO GAP               1.740731694316 eV   |
           -------------------------------------------------

 * finished run on 2024/06/05 at 19:58:16.209
