   * xtb version 6.6.1 (8d0f1dd) compiled by 'conda@1efc2f54142f' on 2023-08-01
          program call               : xtb struc.xyz --opt loose --input .xc1 --gfn2

   ID    Z sym.   atoms
    1    6 C      1, 3, 5-7, 10, 11, 14
    2    7 N      2, 4, 9, 13
    3    8 O      8, 12
    4    1 H      15-25
constraining bond 5 13 to    3.9200000 Å, actual value:    1.3391347 Å

          :  Hamiltonian                  GFN2-xTB          :
 * total energy  :   -30.3546688 Eh     change       -0.6650680E-10 Eh
 * total energy  :   -34.5424889 Eh     change       -0.4187820E+01 Eh
 * total energy  :   -37.8921574 Eh     change       -0.3349669E+01 Eh
 * total energy  :   -40.0682211 Eh     change       -0.2176064E+01 Eh
 * total energy  :   -41.1493457 Eh     change       -0.1081125E+01 Eh
 * total energy  :   -41.3681579 Eh     change       -0.2188122E+00 Eh
 * total energy  :   -41.4295968 Eh     change       -0.6143897E-01 Eh
 * total energy  :   -41.4887635 Eh     change       -0.5916668E-01 Eh
 * total energy  :   -41.5592298 Eh     change       -0.7046631E-01 Eh
 * total energy  :   -41.5951531 Eh     change       -0.3592329E-01 Eh
 * total energy  :   -41.9256682 Eh     change       -0.2031095E-03 Eh
 * total energy  :   -41.9258625 Eh     change       -0.1943491E-03 Eh
 * total energy  :   -41.9260000 Eh     change       -0.1374352E-03 Eh
 * total energy  :   -41.9261564 Eh     change       -0.1564732E-03 Eh
 * total energy  :   -41.9262686 Eh     change       -0.1121621E-03 Eh
 * total energy  :   -41.9263895 Eh     change       -0.1208561E-03 Eh
 * total energy  :   -41.9264520 Eh     change       -0.6251444E-04 Eh
 * total energy  :   -41.9264932 Eh     change       -0.4123123E-04 Eh
 * total energy  :   -41.9265196 Eh     change       -0.2639859E-04 Eh
   *** GEOMETRY OPTIMIZATION CONVERGED AFTER 56 ITERATIONS ***

 final structure:
================
25
 xtb: 6.6.1 (8d0f1dd)
C            3.23759594778575        1.03205119512942       -0.61074688529878
N            2.29399952765276        0.16832423935144        0.00894195051739
C            2.45969637359910       -0.93905953596607        0.90838567557687
N            1.54196761728146       -2.00939041544176        0.50670810531807
C            0.97386211640169       -0.89331466072512        1.18040076988985
C            0.94526804634388        0.21005714949279        0.16284192648633
C            0.04490533977263        1.12177442446431       -0.39832459667279
O            0.24673029354464        2.03500594300348       -1.16034692532046
N           -1.38698530560786        0.92238189988402        0.06592077846220
C           -1.98072486429365        2.03521928929540        0.78979846193957
C           -2.07989862585744       -0.06424423652707       -0.32799282540877
O           -3.29974541321548       -0.52044200924291       -0.25721337262509
N           -2.20023407255496       -1.14887873517550       -1.10334757844940
C           -1.77571090769703       -2.46889283031110       -0.75385858742660
H            3.84475316824907        1.54616106135595        0.14087995124810
H            3.90813822512714        0.44698308786439       -1.24525113353950
H            2.70549534319332        1.76932667289527       -1.21050173987679
H            3.34962448970929       -1.09836763111643        1.48582105375307
H           -1.73386137642687        2.95478065463234        0.25568794365523
H           -3.06230716583375        1.91475333358058        0.84683294374841
H           -1.55478872767014        2.07656909406471        1.79401252909882
H           -1.75419295536836       -2.65103145047709        0.32320348228672
H           -0.77139567974503       -2.57941856708269       -1.16519328555701
H           -2.44447436180177       -3.17519295612349       -1.24317544610133
H            1.65271448151155       -2.86691647522537        1.03768842219686

          :  Hamiltonian                  GFN2-xTB          :
         :: total energy             -41.926519596360 Eh    ::
         :: gradient norm              0.003156196631 Eh/a0 ::
         :: HOMO-LUMO gap              0.903967084531 eV    ::
         :: SCC energy               -42.406052787484 Eh    ::
         :: -> dispersion             -0.020782119785 Eh    ::
         :: repulsion energy           0.479292552833 Eh    ::

    * Orbital Energies and Occupations

         #    Occupation            Energy/Eh            Energy/eV
      -------------------------------------------------------------
         1        2.0000           -0.9610917             -26.1526
       ...           ...                  ...                  ...
        25        1.9999           -0.6610718             -17.9887
        26        1.9999           -0.6527970             -17.7635
        27        1.9998           -0.6477092             -17.6251
        28        1.9997           -0.6398298             -17.4107
        29        1.9997           -0.6377165             -17.3531
        30        1.9996           -0.6334043             -17.2358
        31        1.9992           -0.6231902             -16.9579
        32        1.9988           -0.6160038             -16.7623
        33        1.9949           -0.5934493             -16.1486
        34        1.9931           -0.5887030             -16.0194
        35        1.9897           -0.5823578             -15.8468
        36        1.8867           -0.5435392             -14.7905
        37        1.5318           -0.5177804             -14.0895 (HOMO)
        38        0.5729           -0.4845602             -13.1856 (LUMO)
        39        0.0312           -0.4333960             -11.7933
        40        0.0029           -0.3955711             -10.7640
        41        0.0003           -0.3580951              -9.7443
        42        0.0000           -0.2580465              -7.0218
        43        0.0000           -0.2365495              -6.4368
        44                         -0.2143781              -5.8335
        45                         -0.1695349              -4.6133
        46                         -0.1038716              -2.8265
        47                         -0.0824266              -2.2429
        48                         -0.0724205              -1.9707
       ...                                ...                  ...
        67                          0.5978485              16.2683
      -------------------------------------------------------------
                  HL-Gap            0.0332202 Eh            0.9040 eV

     #   Z          covCN         q      C6AA      α(0)
     1   6 C        3.684    -0.077    22.179     6.743
     2   7 N        2.978     0.022    20.868     6.785
     3   6 C        4.122     0.093    18.967     6.186
     4   7 N        2.698    -0.186    25.038     7.432
     5   6 C        3.107    -0.065    29.460     8.893
     6   6 C        3.295     0.022    25.849     8.151
     7   6 C        2.752     0.250    22.793     7.818
     8   8 O        0.857    -0.321    20.165     6.021
     9   7 N        2.723    -0.026    21.752     6.927
    10   6 C        3.705    -0.068    21.963     6.700
    11   6 C        2.714     0.323    21.514     7.593
    12   8 O        1.724    -0.171    16.886     5.548
    13   7 N        2.687     0.003    21.218     6.841
    14   6 C        3.689    -0.067    21.983     6.711
    15   1 H        0.924     0.101     1.772     2.082
    16   1 H        0.924     0.106     1.730     2.057
    17   1 H        0.925     0.115     1.653     2.011
    18   1 H        0.926     0.076     2.019     2.222
    19   1 H        0.924     0.127     1.560     1.953
    20   1 H        0.925     0.108     1.711     2.045
    21   1 H        0.924     0.109     1.705     2.042
    22   1 H        0.924     0.085     1.925     2.170
    23   1 H        0.924     0.120     1.613     1.986
    24   1 H        0.925     0.124     1.581     1.966
    25   1 H        0.860     0.196     1.126     1.662

Wiberg/Mayer (AO) data.
largest (>0.10) Wiberg bond orders for each atom

     #   Z sym  total        # sym  WBO       # sym  WBO       # sym  WBO
 ---------------------------------------------------------------------------
     1   6 C    3.923 --     2 N    1.016    17 H    0.964    16 H    0.945
                            15 H    0.942
     2   7 N    3.412 --     6 C    1.258     1 C    1.016     3 C    0.999
     3   6 C    3.813 --     2 N    0.999    18 H    0.960     4 N    0.920
                             5 C    0.852
     4   7 N    2.926 --     5 C    1.004    25 H    0.929     3 C    0.920
     5   6 C    3.033 --     6 C    1.028     4 N    1.004     3 C    0.852
     6   6 C    3.729 --     2 N    1.258     7 C    1.225     5 C    1.028
     7   6 C    3.825 --     8 O    1.706     6 C    1.225     9 N    0.806
     8   8 O    1.974 --     7 C    1.706
     9   7 N    3.614 --    11 C    1.546    10 C    0.952     7 C    0.806
                            12 O    0.107
    10   6 C    3.904 --    20 H    0.972    21 H    0.961    19 H    0.956
                             9 N    0.952
    11   6 C    3.892 --     9 N    1.546    13 N    1.121    12 O    1.114
    12   8 O    2.179 --    11 C    1.114    13 N    0.845     9 N    0.107
    13   7 N    3.111 --    11 C    1.121    14 C    1.001    12 O    0.845
    14   6 C    3.926 --    13 N    1.001    22 H    0.969    24 H    0.964
                            23 H    0.936
    15   1 H    0.965 --     1 C    0.942
    16   1 H    0.969 --     1 C    0.945
    17   1 H    0.985 --     1 C    0.964
    18   1 H    0.989 --     3 C    0.960
    19   1 H    0.982 --    10 C    0.956
    20   1 H    0.987 --    10 C    0.972
    21   1 H    0.987 --    10 C    0.961
    22   1 H    0.991 --    14 C    0.969
    23   1 H    0.985 --    14 C    0.936
    24   1 H    0.983 --    14 C    0.964
    25   1 H    0.952 --     4 N    0.929
 ---------------------------------------------------------------------------

molecular dipole:
                 x           y           z       tot (Debye)
 q only:        0.454      -0.736       0.528
   full:        0.777      -0.947       0.925       3.901

           -------------------------------------------------
          | TOTAL ENERGY              -41.926519596360 Eh   |
          | GRADIENT NORM               0.003156196631 Eh/α |
          | HOMO-LUMO GAP               0.903967084531 eV   |
           -------------------------------------------------

 * finished run on 2024/06/05 at 19:57:55.913
