   * xtb version 6.6.1 (8d0f1dd) compiled by 'conda@1efc2f54142f' on 2023-08-01
          program call               : xtb struc.xyz --opt loose --input .xc1 --gfn2

   ID    Z sym.   atoms
    1    6 C      1, 3, 5-7, 10, 11, 14
    2    7 N      2, 4, 9, 13
    3    8 O      8, 12
    4    1 H      15-25
constraining bond 6 16 to    3.7133300 Å, actual value:    3.2546852 Å

          :  Hamiltonian                  GFN2-xTB          :
 * total energy  :   -42.6234542 Eh     change       -0.6650680E-10 Eh
 * total energy  :   -44.5811841 Eh     change       -0.1957730E+01 Eh
 * total energy  :   -48.0884709 Eh     change       -0.3507287E+01 Eh
 * total energy  :   -53.4188510 Eh     change       -0.5330380E+01 Eh
 * total energy  :   -58.8214332 Eh     change       -0.5402582E+01 Eh
 * total energy  :   -58.7733236 Eh     change        0.4810956E-01 Eh
 * total energy  :   -58.8027483 Eh     change       -0.2942466E-01 Eh
 * total energy  :   -59.2009587 Eh     change       -0.3982105E+00 Eh
 * total energy  :   -59.3047105 Eh     change       -0.1037517E+00 Eh
 * total energy  :   -59.3426483 Eh     change       -0.3793786E-01 Eh
 * total energy  :   -59.7511300 Eh     change       -0.4200334E-03 Eh
 * total energy  :   -59.7512879 Eh     change       -0.1578585E-03 Eh
 * total energy  :   -59.7514565 Eh     change       -0.1686015E-03 Eh
 * total energy  :   -59.7515884 Eh     change       -0.1318827E-03 Eh
 * total energy  :   -59.7516570 Eh     change       -0.6859195E-04 Eh
 * total energy  :   -59.7517201 Eh     change       -0.6310146E-04 Eh
 * total energy  :   -59.7517629 Eh     change       -0.4287373E-04 Eh
 * total energy  :   -59.7517885 Eh     change       -0.2557862E-04 Eh
 * total energy  :   -59.7518011 Eh     change       -0.1255696E-04 Eh
   *** GEOMETRY OPTIMIZATION CONVERGED AFTER 43 ITERATIONS ***

 final structure:
================
25
 xtb: 6.6.1 (8d0f1dd)
C            3.27188881108292        1.15590432212429       -0.11423976696528
N            2.42245664501488        0.16086062231862       -0.04616018365931
C            2.55574337228952       -1.04208506543706        0.54999425842439
N            1.39366571470651       -1.74992233638628        0.44578435949895
C            0.47817257584300       -1.06631038478903       -0.25376830024802
C            1.08224718550221        0.24313224940227       -0.71211684496691
C            0.17495057422349        1.32367557620984        0.09917271860039
O            0.68278276328941        2.23130483198543        0.68508465750741
N           -1.14331399085677        1.06178244887415       -0.06383633261451
C           -2.10219346995928        2.10959437974228        0.28799033572485
C           -1.71732494013633       -0.16992738934793       -0.41738968349100
O           -2.88200849206461       -0.29040962798632       -0.66446024501256
N           -0.85102346213833       -1.27337077282114       -0.35191383333854
C           -1.42893365793960       -2.60469919599036       -0.27513689474281
H            4.23169184867058        1.06748012793915        0.35875343464528
H            1.08506954842008        0.35150135960699       -1.12237797144995
H            2.99592697059940        2.05748277069764       -0.62380864497262
H            3.42371608423808       -1.38064900206657        1.07168985004776
H           -1.56966392593358        3.05339031171023        0.36743177664067
H           -2.85983314013270        2.16136041197390       -0.49217328539907
H           -2.58444353068763        1.87835840970651        1.23665928014291
H           -1.35515189462971       -3.00099355178796        0.73919927427063
H           -0.92705175190341       -3.27047794079098       -0.97580300566708
H           -2.48066962992131       -2.52190314381710       -0.54637825378909
H            1.26373130652238       -2.66684086947087        0.84897491871230

          :  Hamiltonian                  GFN2-xTB          :
         :: total energy             -59.751801082794 Eh    ::
         :: gradient norm              0.003533278792 Eh/a0 ::
         :: HOMO-LUMO gap              1.609580858452 eV    ::
         :: SCC energy               -42.698980278423 Eh    ::
         :: -> dispersion             -0.023153252334 Eh    ::
         :: repulsion energy           2.261910266373 Eh    ::

    * Orbital Energies and Occupations

         #    Occupation            Energy/Eh            Energy/eV
      -------------------------------------------------------------
         1        2.0000           -0.9146808             -24.8897
       ...           ...                  ...                  ...
        25        2.0000           -0.6788629             -18.4728
        26        2.0000           -0.6733154             -18.3218
        27        2.0000           -0.6669629             -18.1490
        28        2.0000           -0.6634578             -18.0536
        29        1.9999           -0.6409050             -17.4399
        30        1.9998           -0.6331147             -17.2279
        31        1.9998           -0.6283903             -17.0994
        32        1.9994           -0.6112352             -16.6326
        33        1.9992           -0.6080126             -16.5449
        34        1.9973           -0.5881885             -16.0054
        35        1.9959           -0.5814996             -15.8234
        36        1.9927           -0.5725023             -15.5786
        37        1.7292           -0.5130024             -13.9595 (HOMO)
        38        0.2644           -0.4538514             -12.3499 (LUMO)
        39        0.0179           -0.4090841             -11.1317
        40        0.0042           -0.3862022             -10.5091
        41        0.0004           -0.3473042              -9.4506
        42        0.0000           -0.2394414              -6.5155
        43                         -0.2012516              -5.4763
        44                         -0.1974850              -5.3738
        45                         -0.1606594              -4.3718
        46                         -0.1328621              -3.6154
        47                         -0.0925229              -2.5177
        48                         -0.0636046              -1.7308
       ...                                ...                  ...
        67                         10.4569817             284.5490
      -------------------------------------------------------------
                  HL-Gap            0.0591510 Eh            1.6096 eV

     #   Z          covCN         q      C6AA      α(0)
     1   6 C        2.787    -0.067    29.651     8.920
     2   7 N        2.780     0.090    19.687     6.590
     3   6 C        2.914     0.001    28.008     8.678
     4   7 N        2.730    -0.050    22.210     6.999
     5   6 C        2.976     0.085    26.108     8.381
     6   6 C        3.838    -0.064    21.703     6.628
     7   6 C        2.756     0.268    22.480     7.764
     8   8 O        0.857    -0.318    20.116     6.013
     9   7 N        2.734    -0.087    22.943     7.114
    10   6 C        3.708    -0.061    21.830     6.678
    11   6 C        2.724     0.315    21.652     7.618
    12   8 O        0.859    -0.337    20.455     6.064
    13   7 N        2.734    -0.064    22.479     7.042
    14   6 C        3.697    -0.072    22.057     6.718
    15   1 H        0.926     0.108     1.709     2.044
    16   1 H        0.940     0.190     1.150     1.677
    17   1 H        0.926     0.117     1.635     2.000
    18   1 H        0.927     0.115     1.650     2.009
    19   1 H        0.925     0.104     1.749     2.068
    20   1 H        0.925     0.110     1.693     2.035
    21   1 H        0.925     0.094     1.844     2.123
    22   1 H        0.924     0.081     1.966     2.193
    23   1 H        0.925     0.088     1.898     2.154
    24   1 H        0.925     0.126     1.565     1.956
    25   1 H        0.860     0.229     0.970     1.543

Wiberg/Mayer (AO) data.
largest (>0.10) Wiberg bond orders for each atom

     #   Z sym  total        # sym  WBO       # sym  WBO       # sym  WBO
 ---------------------------------------------------------------------------
     1   6 C    3.671 --     2 N    1.435    17 H    0.965    15 H    0.962
                             3 C    0.162
     2   7 N    3.712 --     1 C    1.435     3 C    1.240     6 C    0.958
     3   6 C    3.708 --     2 N    1.240     4 N    1.193    18 H    0.954
                             1 C    0.162     5 C    0.103
     4   7 N    3.558 --     5 C    1.280     3 C    1.193    25 H    0.916
     5   6 C    3.765 --     4 N    1.280    13 N    1.207     6 C    1.012
                             3 C    0.103
     6   6 C    3.920 --     5 C    1.012     2 N    0.958    16 H    0.923
                             7 C    0.796
     7   6 C    3.907 --     8 O    1.779     9 N    1.208     6 C    0.796
     8   8 O    2.136 --     7 C    1.779     9 N    0.158
     9   7 N    3.551 --     7 C    1.208    11 C    1.053    10 C    0.951
                             8 O    0.158    12 O    0.109
    10   6 C    3.912 --    19 H    0.974    21 H    0.970    20 H    0.966
                             9 N    0.951
    11   6 C    3.916 --    12 O    1.725     9 N    1.053    13 N    1.048
    12   8 O    2.043 --    11 C    1.725    13 N    0.116     9 N    0.109
    13   7 N    3.508 --     5 C    1.207    11 C    1.048    14 C    0.966
                            12 O    0.116
    14   6 C    3.921 --    23 H    0.974    22 H    0.969    13 N    0.966
                            24 H    0.964
    15   1 H    0.987 --     1 C    0.962
    16   1 H    0.960 --     6 C    0.923
    17   1 H    0.986 --     1 C    0.965
    18   1 H    0.986 --     3 C    0.954
    19   1 H    0.988 --    10 C    0.974
    20   1 H    0.986 --    10 C    0.966
    21   1 H    0.989 --    10 C    0.970
    22   1 H    0.989 --    14 C    0.969
    23   1 H    0.988 --    14 C    0.974
    24   1 H    0.983 --    14 C    0.964
    25   1 H    0.948 --     4 N    0.916
 ---------------------------------------------------------------------------

molecular dipole:
                 x           y           z       tot (Debye)
 q only:        1.934      -1.532       0.024
   full:        2.195      -1.846       0.113       7.297

           -------------------------------------------------
          | TOTAL ENERGY              -59.751801082794 Eh   |
          | GRADIENT NORM               0.003533278792 Eh/α |
          | HOMO-LUMO GAP               1.609580858452 eV   |
           -------------------------------------------------

 * finished run on 2024/06/05 at 20:00:25.674
