   * xtb version 6.6.1 (8d0f1dd) compiled by 'conda@1efc2f54142f' on 2023-08-01
          program call               : xtb xtbopt.xyz --opt crude --input .xc2 --gfn2

   ID    Z sym.   atoms
    1    6 C      1, 3, 5-7, 10, 11, 14
    2    7 N      2, 4, 9, 13
    3    8 O      8, 12
    4    1 H      15-25
########################################################################
[WARNING] Please study the warnings concerning your input carefully
-1- readin_getIntValue: could not parse ''
########################################################################

          :  Hamiltonian                  GFN2-xTB          :
 * total energy  :   -42.1635655 Eh     change       -0.1207923E-12 Eh
   *** GEOMETRY OPTIMIZATION CONVERGED AFTER 1 ITERATIONS ***

 final structure:
================
25
 xtb: 6.6.1 (8d0f1dd)
C            3.04877608528933        1.20648566373572        0.24232448745540
N            2.19483325429814        0.05429918422978        0.11387049971459
C            2.56872864690699       -1.21390916168069        0.08305131260679
N            1.48722346204218       -2.01158583865315       -0.02683380278148
C            0.37659671809716       -1.21278563714279       -0.06646010477412
C            0.82502355726742        0.09500157387524        0.02260924855885
C           -0.10794599156715        1.20739799531886       -0.02077187347300
O            0.17796222518901        2.38328344697219        0.00378516756899
N           -1.42312279877179        0.73590596761820       -0.11205594897670
C           -2.45961211308316        1.80656732819153       -0.15272608985152
C           -1.86005320559705       -0.52777517113181       -0.18630805237997
O           -2.39391949155216        2.63939377931059        0.93464595714573
N           -0.93312678545179       -1.51842514788012       -0.17164910564886
C           -1.36580956751661       -2.89936030676230       -0.26590065326618
H            3.55413923150275        1.19565624501626        1.20826217083548
H            3.80016591778506        1.21204454175193       -0.54684580355343
H            2.43655919617425        2.10487731809851        0.16822707746211
H            3.58215684092735       -1.56359588900986        0.13404011380753
H           -2.32342333294004        2.33704938274405       -1.10620485696173
H           -3.42440991085092        1.29686322837858       -0.13672247101347
H           -1.63591798530585        3.23954677311950        0.85172425510648
H           -1.06198356072339       -3.45768934915456        0.62091684978384
H           -0.95590654831064       -3.37012879562571       -1.15948024889917
H           -2.45124580517149       -2.89966859263217       -0.32890221528627
H            1.50474347546324       -3.02120999708738       -0.07142429527993

          :  Hamiltonian                  GFN2-xTB          :
         :: total energy             -42.163565481934 Eh    ::
         :: gradient norm              0.003723574371 Eh/a0 ::
         :: HOMO-LUMO gap              1.873177243285 eV    ::
         :: SCC energy               -42.668235321858 Eh    ::
         :: -> dispersion             -0.022384401288 Eh    ::
         :: repulsion energy           0.504556460050 Eh    ::

    * Orbital Energies and Occupations

         #    Occupation            Energy/Eh            Energy/eV
      -------------------------------------------------------------
         1        2.0000           -0.9197632             -25.0280
       ...           ...                  ...                  ...
        25        2.0000           -0.6748338             -18.3632
        26        2.0000           -0.6544890             -17.8096
        27        2.0000           -0.6405177             -17.4294
        28        2.0000           -0.6347134             -17.2714
        29        2.0000           -0.6268822             -17.0583
        30        2.0000           -0.6242585             -16.9869
        31        2.0000           -0.6234259             -16.9643
        32        2.0000           -0.6091059             -16.5746
        33        2.0000           -0.5829920             -15.8640
        34        2.0000           -0.5641576             -15.3515
        35        1.9999           -0.5570724             -15.1587
        36        1.9997           -0.5448701             -14.8267
        37        1.9744           -0.5099598             -13.8767 (HOMO)
        38        0.0255           -0.4411218             -12.0035 (LUMO)
        39        0.0005           -0.4092912             -11.1374
        40        0.0000           -0.3858972             -10.5008
        41                         -0.2879114              -7.8345
        42                         -0.2034379              -5.5358
        43                         -0.1904656              -5.1828
        44                         -0.1366463              -3.7183
        45                         -0.1323549              -3.6016
        46                         -0.0784023              -2.1334
        47                         -0.0497683              -1.3543
        48                         -0.0353692              -0.9624
       ...                                ...                  ...
        67                          0.5274230              14.3519
      -------------------------------------------------------------
                  HL-Gap            0.0688380 Eh            1.8732 eV

     #   Z          covCN         q      C6AA      α(0)
     1   6 C        3.692    -0.092    22.459     6.781
     2   7 N        2.836     0.083    19.794     6.608
     3   6 C        3.063     0.062    26.561     8.451
     4   7 N        2.799    -0.061    22.410     7.031
     5   6 C        3.056     0.110    25.523     8.285
     6   6 C        3.130    -0.010    28.057     8.672
     7   6 C        2.767     0.274    22.376     7.747
     8   8 O        0.857    -0.392    21.514     6.219
     9   7 N        2.749    -0.042    22.052     6.974
    10   6 C        3.630     0.134    18.772     6.238
    11   6 C        1.887    -0.100    33.880     9.401
    12   8 O        1.657    -0.399    20.838     6.162
    13   7 N        2.745     0.030    20.725     6.761
    14   6 C        3.704    -0.080    22.195     6.736
    15   1 H        0.925     0.109     1.706     2.043
    16   1 H        0.925     0.107     1.723     2.053
    17   1 H        0.925     0.136     1.487     1.907
    18   1 H        0.926     0.126     1.563     1.955
    19   1 H        0.923     0.060     2.194     2.316
    20   1 H        0.924     0.104     1.748     2.068
    21   1 H        0.804     0.329     0.640     1.256
    22   1 H        0.924     0.080     1.984     2.203
    23   1 H        0.925     0.079     1.989     2.205
    24   1 H        0.925     0.122     1.599     1.978
    25   1 H        0.860     0.231     0.962     1.536

Wiberg/Mayer (AO) data.
largest (>0.10) Wiberg bond orders for each atom

     #   Z sym  total        # sym  WBO       # sym  WBO       # sym  WBO
 ---------------------------------------------------------------------------
     1   6 C    3.915 --     2 N    0.983    17 H    0.962    16 H    0.961
                            15 H    0.957
     2   7 N    3.718 --     3 C    1.419     6 C    1.164     1 C    0.983
     3   6 C    3.922 --     2 N    1.419     4 N    1.296    18 H    0.951
     4   7 N    3.607 --     3 C    1.296     5 C    1.177    25 H    0.918
     5   6 C    3.961 --     6 C    1.367    13 N    1.206     4 N    1.177
     6   6 C    3.937 --     5 C    1.367     2 N    1.164     7 C    1.070
     7   6 C    3.961 --     8 O    1.687     9 N    1.090     6 C    1.070
     8   8 O    2.049 --     7 C    1.687     9 N    0.138
     9   7 N    3.649 --    11 C    1.367     7 C    1.090    10 C    0.914
                             8 O    0.138
    10   6 C    3.929 --    12 O    1.064    20 H    0.958    19 H    0.954
                             9 N    0.914
    11   6 C    2.855 --     9 N    1.367    13 N    1.261
    12   8 O    2.022 --    10 C    1.064    21 H    0.866
    13   7 N    3.653 --    11 C    1.261     5 C    1.206    14 C    0.981
    14   6 C    3.938 --    13 N    0.981    22 H    0.972    23 H    0.972
                            24 H    0.971
    15   1 H    0.987 --     1 C    0.957
    16   1 H    0.988 --     1 C    0.961
    17   1 H    0.981 --     1 C    0.962
    18   1 H    0.983 --     3 C    0.951
    19   1 H    0.996 --    10 C    0.954
    20   1 H    0.989 --    10 C    0.958
    21   1 H    0.892 --    12 O    0.866
    22   1 H    0.992 --    14 C    0.972
    23   1 H    0.992 --    14 C    0.972
    24   1 H    0.985 --    14 C    0.971
    25   1 H    0.946 --     4 N    0.918
 ---------------------------------------------------------------------------

molecular dipole:
                 x           y           z       tot (Debye)
 q only:        2.432      -2.454      -0.306
   full:        3.324      -2.813      -0.429      11.121

           -------------------------------------------------
          | TOTAL ENERGY              -42.163565481934 Eh   |
          | GRADIENT NORM               0.003723574371 Eh/α |
          | HOMO-LUMO GAP               1.873177243285 eV   |
           -------------------------------------------------

 * finished run on 2024/06/05 at 19:58:08.428
