   * xtb version 6.6.1 (8d0f1dd) compiled by 'conda@1efc2f54142f' on 2023-08-01
          program call               : xtb xtbopt.xyz --opt crude --input .xc2 --gfn2

   ID    Z sym.   atoms
    1    6 C      1, 3, 5-7, 10, 11, 14
    2    7 N      2, 4, 9, 13
    3    8 O      8, 12
    4    1 H      15-25

          :  Hamiltonian                  GFN2-xTB          :
 * total energy  :   -42.1080387 Eh     change       -0.1492140E-12 Eh
   *** GEOMETRY OPTIMIZATION CONVERGED AFTER 1 ITERATIONS ***

 final structure:
================
25
 xtb: 6.6.1 (8d0f1dd)
C            3.08565246633410        1.04330869235125        0.26791116708548
N            2.21147676752431        0.04426871415017        0.21880065820628
C            2.46803455102935       -1.28390358289107        0.23418515526925
N            1.30248847783844       -1.98246888758428        0.15367742894319
C            0.27835732374240       -1.09144757616369        0.08695177576704
C            0.82772856952943        0.17932692686890        0.12962716859882
C            0.00848133314802        1.36883340113178        0.08774431779656
O            0.41122671732289        2.50703301705203        0.11442640933458
N           -1.34846059901436        1.04513115747380        0.01348734747594
C           -2.29950224033002        2.14729409033509       -0.02008233501923
C           -1.91964170226830       -0.21245862760555       -0.04295839073228
O           -3.10426248894702       -0.37831584495292       -0.12002271726791
N           -1.04116091900129       -1.31847912073827       -0.00565407137861
C           -1.59477054102548       -2.65664411580342       -0.06554509687079
H            4.13336830963274        0.82403365900154        0.35301940054680
H            5.21186946167527        1.95175562713624       -1.74178728548839
H            2.71493053177149        2.05242050314321        0.24252053097658
H            3.43777269836170       -1.72798122864043        0.31024946164375
H           -1.73912934713519        3.07906352283110       -0.01064714178175
H           -2.91181188817322        2.07933043207302       -0.91914193528674
H           -2.95817582509763        2.09373343026381        0.84704251665969
H           -1.33094972415541       -3.22081363888857        0.82893237417905
H           -1.24004119572134       -3.17585550318926       -0.95643746157797
H           -2.67862481365085       -2.55934243050606       -0.11884285192413
H            1.23557559071115       -2.98958407524929        0.14371519274395

          :  Hamiltonian                  GFN2-xTB          :
         :: total energy             -42.108038674267 Eh    ::
         :: gradient norm              0.002353794167 Eh/a0 ::
         :: HOMO-LUMO gap              0.325672273227 eV    ::
         :: SCC energy               -42.631645871316 Eh    ::
         :: -> dispersion             -0.022732020791 Eh    ::
         :: repulsion energy           0.523509799482 Eh    ::

    * Orbital Energies and Occupations

         #    Occupation            Energy/Eh            Energy/eV
      -------------------------------------------------------------
         1        2.0000           -0.9116957             -24.8085
       ...           ...                  ...                  ...
        25        1.9999           -0.6686390             -18.1946
        26        1.9999           -0.6683063             -18.1855
        27        1.9999           -0.6590368             -17.9333
        28        1.9995           -0.6372851             -17.3414
        29        1.9994           -0.6330082             -17.2250
        30        1.9991           -0.6276219             -17.0785
        31        1.9986           -0.6198529             -16.8671
        32        1.9952           -0.6007993             -16.3486
        33        1.9845           -0.5820362             -15.8380
        34        1.9550           -0.5649127             -15.3721
        35        1.9491           -0.5629159             -15.3177
        36        1.9436           -0.5612356             -15.2720
        37        1.2692           -0.5139353             -13.9849 (HOMO)
        38        0.8984           -0.5019670             -13.6592 (LUMO)
        39        0.0054           -0.4115416             -11.1986
        40        0.0030           -0.4023484             -10.9485
        41        0.0004           -0.3690422             -10.0421
        42        0.0000           -0.2872299              -7.8159
        43                         -0.2075619              -5.6480
        44                         -0.1866246              -5.0783
        45                         -0.1452953              -3.9537
        46                         -0.1160828              -3.1588
        47                         -0.0828748              -2.2551
        48                         -0.0504552              -1.3730
       ...                                ...                  ...
        67                          0.5542397              15.0816
      -------------------------------------------------------------
                  HL-Gap            0.0119682 Eh            0.3257 eV

     #   Z          covCN         q      C6AA      α(0)
     1   6 C        2.790    -0.069    29.698     8.927
     2   7 N        2.809     0.130    19.022     6.478
     3   6 C        3.040     0.026    27.391     8.584
     4   7 N        2.780    -0.058    22.365     7.024
     5   6 C        3.024     0.120    25.344     8.258
     6   6 C        3.110    -0.038    28.788     8.790
     7   6 C        2.764     0.275    22.353     7.743
     8   8 O        0.858    -0.356    20.815     6.117
     9   7 N        2.746    -0.081    22.809     7.093
    10   6 C        3.710    -0.062    21.841     6.679
    11   6 C        2.728     0.318    21.592     7.607
    12   8 O        0.860    -0.349    20.689     6.098
    13   7 N        2.739    -0.053    22.266     7.008
    14   6 C        3.697    -0.073    22.076     6.721
    15   1 H        0.926     0.109     1.704     2.041
    16   1 H        0.000     0.046     5.911     4.445
    17   1 H        0.926     0.140     1.459     1.889
    18   1 H        0.927     0.122     1.601     1.979
    19   1 H        0.925     0.117     1.641     2.003
    20   1 H        0.925     0.104     1.746     2.067
    21   1 H        0.924     0.103     1.757     2.073
    22   1 H        0.925     0.085     1.924     2.169
    23   1 H        0.924     0.086     1.917     2.165
    24   1 H        0.925     0.129     1.540     1.941
    25   1 H        0.860     0.228     0.972     1.544

Wiberg/Mayer (AO) data.
largest (>0.10) Wiberg bond orders for each atom

     #   Z sym  total        # sym  WBO       # sym  WBO       # sym  WBO
 ---------------------------------------------------------------------------
     1   6 C    3.406 --     2 N    1.331    15 H    0.964    17 H    0.956
     2   7 N    3.765 --     1 C    1.331     3 C    1.247     6 C    1.089
     3   6 C    3.642 --     2 N    1.247     4 N    1.241    18 H    0.955
     4   7 N    3.527 --     3 C    1.241     5 C    1.195    25 H    0.919
     5   6 C    3.938 --     6 C    1.349    13 N    1.218     4 N    1.195
     6   6 C    3.845 --     5 C    1.349     2 N    1.089     7 C    1.084
     7   6 C    3.959 --     8 O    1.687     9 N    1.093     6 C    1.084
     8   8 O    2.020 --     7 C    1.687     9 N    0.138
     9   7 N    3.531 --    11 C    1.126     7 C    1.093    10 C    0.972
                             8 O    0.138    12 O    0.133
    10   6 C    3.897 --     9 N    0.972    19 H    0.965    20 H    0.958
                            21 H    0.957
    11   6 C    3.958 --    12 O    1.706     9 N    1.126    13 N    1.035
    12   8 O    2.046 --    11 C    1.706     9 N    0.133    13 N    0.118
    13   7 N    3.532 --     5 C    1.218    11 C    1.035    14 C    0.975
                            12 O    0.118
    14   6 C    3.919 --    13 N    0.975    22 H    0.968    23 H    0.968
                            24 H    0.963
    15   1 H    0.987 --     1 C    0.964
    16   1 H    0.021
    17   1 H    0.980 --     1 C    0.956
    18   1 H    0.984 --     3 C    0.955
    19   1 H    0.983 --    10 C    0.965
    20   1 H    0.977 --    10 C    0.958
    21   1 H    0.976 --    10 C    0.957
    22   1 H    0.986 --    14 C    0.968
    23   1 H    0.986 --    14 C    0.968
    24   1 H    0.982 --    14 C    0.963
    25   1 H    0.947 --     4 N    0.919
 ---------------------------------------------------------------------------

molecular dipole:
                 x           y           z       tot (Debye)
 q only:        2.288      -1.965       0.106
   full:        2.571      -2.434       0.128       9.005

           -------------------------------------------------
          | TOTAL ENERGY              -42.108038674267 Eh   |
          | GRADIENT NORM               0.002353794167 Eh/α |
          | HOMO-LUMO GAP               0.325672273227 eV   |
           -------------------------------------------------

 * finished run on 2024/06/05 at 20:00:07.858
