   * xtb version 6.6.1 (8d0f1dd) compiled by 'conda@1efc2f54142f' on 2023-08-01
          program call               : xtb xtbopt.xyz --opt crude --input .xc2 --gfn2

   ID    Z sym.   atoms
    1    6 C      1, 3, 5-7, 10, 11, 14
    2    7 N      2, 4, 9, 13
    3    8 O      8, 12
    4    1 H      15-25
########################################################################
[WARNING] Please study the warnings concerning your input carefully
-1- readin_getIntValue: could not parse ''
########################################################################

          :  Hamiltonian                  GFN2-xTB          :
 * total energy  :   -42.0767501 Eh     change       -0.4761347E-10 Eh
   *** GEOMETRY OPTIMIZATION CONVERGED AFTER 1 ITERATIONS ***

 final structure:
================
25
 xtb: 6.6.1 (8d0f1dd)
C            3.13572054239385        0.18405523759289       -0.93532687848710
N            2.34951362449292        0.36446566611320        0.27610531521661
C            2.85657143841120        0.86239005698303        1.31643027978698
N            1.10456417052115       -2.27598295941144       -0.25002323149272
C            0.43759931898384       -1.18816398572435       -0.11511666025154
C            0.95407626581970        0.10319012856923        0.20859203975569
C            0.08950685095225        1.19375020315804        0.59517720516605
O            0.51427572937205        2.23067031951333        1.07124674198658
N           -1.25511306048853        0.98404752814678        0.34939137902111
C           -2.18320295448389        2.07017569635092        0.58788495894537
C           -1.80411514157673       -0.21387490014537       -0.08691808068175
O           -2.98831768665537       -0.32178161481590       -0.27398870335828
N           -0.93030510472174       -1.27285849710788       -0.26742957772327
C           -1.48725379410456       -2.55690047685932       -0.62952341936743
H            4.19058986611595        0.10726766333697       -0.67805417016900
H            2.81207438695732       -0.69717002635978       -1.48459517586477
H            2.99481611407317        1.05906375453284       -1.57443008655513
H            2.39688057980728        1.13031376373220        2.24905113418486
H           -1.61481013077565        2.95172863947388        0.87881524707051
H           -2.76088578291749        2.26524303896975       -0.31759786663457
H           -2.88613501239005        1.79783445280821        1.37813668622668
H           -1.14738358858252       -3.31565256542294        0.07726597824638
H           -1.14417047282767       -2.84753265901033       -1.62437577491707
H           -2.57337589100565       -2.48107705495274       -0.61982636194010
H            2.09931124673093       -2.31496286787052       -0.09971936026852

          :  Hamiltonian                  GFN2-xTB          :
         :: total energy             -42.076750149539 Eh    ::
         :: gradient norm              0.002832827876 Eh/a0 ::
         :: HOMO-LUMO gap              0.485806139100 eV    ::
         :: SCC energy               -42.595760612160 Eh    ::
         :: -> dispersion             -0.022598893751 Eh    ::
         :: repulsion energy           0.518812765130 Eh    ::

    * Orbital Energies and Occupations

         #    Occupation            Energy/Eh            Energy/eV
      -------------------------------------------------------------
         1        2.0000           -0.8964666             -24.3941
       ...           ...                  ...                  ...
        25        1.9996           -0.6778465             -18.4451
        26        1.9986           -0.6564497             -17.8629
        27        1.9981           -0.6520722             -17.7438
        28        1.9973           -0.6464706             -17.5914
        29        1.9952           -0.6369443             -17.3321
        30        1.9910           -0.6270312             -17.0624
        31        1.9881           -0.6226031             -16.9419
        32        1.9610           -0.6036137             -16.4252
        33        1.9321           -0.5946203             -16.1804
        34        1.9020           -0.5885608             -16.0156
        35        1.8098           -0.5772693             -15.7083
        36        1.7232           -0.5705578             -15.5257
        37        1.5872           -0.5629259             -15.3180 (HOMO)
        38        1.1092           -0.5450729             -14.8322 (LUMO)
        39        0.0078           -0.4537478             -12.3471
        40        0.0004           -0.4070602             -11.0767
        41        0.0002           -0.3961618             -10.7801
        42        0.0000           -0.3108136              -8.4577
        43                         -0.2164114              -5.8889
        44                         -0.1742612              -4.7419
        45                         -0.1401388              -3.8134
        46                         -0.1011531              -2.7525
        47                         -0.0854741              -2.3259
        48                         -0.0319048              -0.8682
       ...                                ...                  ...
        67                          0.5160178              14.0416
      -------------------------------------------------------------
                  HL-Gap            0.0178530 Eh            0.4858 eV

     #   Z          covCN         q      C6AA      α(0)
     1   6 C        3.712    -0.090    22.354     6.756
     2   7 N        2.731     0.143    18.822     6.444
     3   6 C        1.901    -0.013    31.451     9.057
     4   7 N        1.792    -0.267    27.757     7.804
     5   6 C        2.827     0.165    24.439     8.101
     6   6 C        2.936    -0.038    28.953     8.825
     7   6 C        2.769     0.267    22.498     7.768
     8   8 O        0.859    -0.353    20.757     6.108
     9   7 N        2.743    -0.062    22.445     7.036
    10   6 C        3.705    -0.061    21.831     6.679
    11   6 C        2.717     0.319    21.585     7.605
    12   8 O        0.860    -0.329    20.317     6.043
    13   7 N        2.758    -0.033    21.887     6.948
    14   6 C        3.706    -0.074    22.061     6.714
    15   1 H        0.925     0.123     1.593     1.974
    16   1 H        0.925     0.106     1.735     2.060
    17   1 H        0.924     0.120     1.611     1.985
    18   1 H        0.926     0.158     1.340     1.810
    19   1 H        0.925     0.123     1.592     1.973
    20   1 H        0.924     0.119     1.623     1.992
    21   1 H        0.924     0.119     1.624     1.993
    22   1 H        0.924     0.121     1.604     1.981
    23   1 H        0.924     0.118     1.631     1.997
    24   1 H        0.925     0.128     1.549     1.947
    25   1 H        0.860     0.193     1.140     1.673

Wiberg/Mayer (AO) data.
largest (>0.10) Wiberg bond orders for each atom

     #   Z sym  total        # sym  WBO       # sym  WBO       # sym  WBO
 ---------------------------------------------------------------------------
     1   6 C    3.889 --    15 H    0.967    16 H    0.963     2 N    0.954
                            17 H    0.947
     2   7 N    3.735 --     3 C    1.748     6 C    0.991     1 C    0.954
     3   6 C    2.877 --     2 N    1.748    18 H    0.914
     4   7 N    2.690 --     5 C    1.574    25 H    0.927
     5   6 C    3.953 --     4 N    1.574     6 C    1.157    13 N    1.122
     6   6 C    3.485 --     5 C    1.157     7 C    1.105     2 N    0.991
     7   6 C    3.939 --     8 O    1.624     9 N    1.108     6 C    1.105
     8   8 O    1.912 --     7 C    1.624     9 N    0.113
     9   7 N    3.469 --     7 C    1.108    11 C    1.090    10 C    0.982
                             8 O    0.113    12 O    0.107
    10   6 C    3.863 --     9 N    0.982    19 H    0.960    20 H    0.941
                            21 H    0.937
    11   6 C    3.956 --    12 O    1.677    13 N    1.104     9 N    1.090
    12   8 O    1.975 --    11 C    1.677    13 N    0.111     9 N    0.107
    13   7 N    3.474 --     5 C    1.122    11 C    1.104    14 C    0.984
                            12 O    0.111
    14   6 C    3.862 --    13 N    0.984    24 H    0.957    22 H    0.940
                            23 H    0.938
    15   1 H    0.982 --     1 C    0.967
    16   1 H    0.986 --     1 C    0.963
    17   1 H    0.982 --     1 C    0.947
    18   1 H    0.939 --     3 C    0.914
    19   1 H    0.978 --    10 C    0.960
    20   1 H    0.958 --    10 C    0.941
    21   1 H    0.953 --    10 C    0.937
    22   1 H    0.957 --    14 C    0.940
    23   1 H    0.955 --    14 C    0.938
    24   1 H    0.975 --    14 C    0.957
    25   1 H    0.952 --     4 N    0.927
 ---------------------------------------------------------------------------

molecular dipole:
                 x           y           z       tot (Debye)
 q only:        1.597      -0.698      -0.253
   full:        1.735      -0.551      -0.125       4.638

           -------------------------------------------------
          | TOTAL ENERGY              -42.076750149539 Eh   |
          | GRADIENT NORM               0.002832827876 Eh/α |
          | HOMO-LUMO GAP               0.485806139100 eV   |
           -------------------------------------------------

 * finished run on 2024/06/05 at 19:57:52.373
