   * xtb version 6.6.1 (8d0f1dd) compiled by 'conda@1efc2f54142f' on 2023-08-01
          program call               : xtb xtbopt.xyz --opt crude --input .xc2 --gfn2

   ID    Z sym.   atoms
    1    7 N      1, 17
    2    6 C      2-6, 8, 9, 11-16, 18-23, 25, 26, 28-33
    3    8 O      7, 10, 24, 27
    4    1 H      34-72

          :  Hamiltonian                  GFN2-xTB          :
 * total energy  :   -99.3530467 Eh     change       -0.7460699E-11 Eh
   *** GEOMETRY OPTIMIZATION CONVERGED AFTER 1 ITERATIONS ***

 final structure:
================
72
 xtb: 6.6.1 (8d0f1dd)
N           -1.80754464720857        2.71951538376773        2.30918545406943
C           -1.79396641383786        2.02057726768464        1.27488693975112
C           -2.94976603643885        1.88366624419521        0.32161292594485
C           -3.47316271183912        0.45715529054911        0.35957769711915
C           -4.35622391013992        0.01243190626957       -0.62624467775556
C           -4.86112678229233       -1.27749392274683       -0.61711456324588
O           -5.71145834272289       -1.78788821954969       -1.53030338256307
C           -6.21156590342827       -0.95593460101273       -2.55064470079334
C           -4.47444908229716       -2.17381848685511        0.41704579077046
O           -5.00037267341660       -3.41114101047732        0.33757723849079
C           -4.70836519995179       -4.34756720809246        1.34872106228201
C           -3.61197499673063       -1.71984190001144        1.40259227712554
C           -3.11870093571171       -0.42161876886929        1.37261779057452
C           -2.37475895824603        2.21380221070912       -1.08111962635672
C           -1.50102418946949        1.10783024223416       -1.69843283907981
C           -0.16137064020076        0.97855577163574       -1.07607253587532
N            0.43333142281784       -0.17035934925411       -0.76448664290939
C            1.78118048345304       -0.26579217473583       -0.48412418023617
C            2.73065424909466        0.63352759686059       -0.84033763509657
C            4.13779646694688        0.53751399123756       -0.57287585905962
C            4.98783527165737        1.51687021595761       -1.10382830723792
C            6.35096929515201        1.47663963515878       -0.89524390435979
C            6.92480147193548        0.45197726887190       -0.14963875508138
O            8.23034354826605        0.31135618763580        0.11874198051183
C            9.14789264852443        1.26616181694663       -0.36599331581281
C            6.07771354933245       -0.55879783672750        0.39446200590668
O            6.71889015647831       -1.51783142577557        1.09202547444080
C            5.97548044783087       -2.57661048570660        1.64768100508753
C            4.71485726605026       -0.49713163883816        0.18376061774142
C           -0.33703121813549       -1.39672395270798       -0.70110310589597
C           -4.13652397447411        2.84085569466409        0.64331219617077
C           -4.78257282923867        2.50357455370787        1.98481681379676
C           -3.74296022802987        4.31500689872506        0.61802607812826
H           -4.66110260586180        0.68972636288190       -1.40660115180842
H           -6.75530583506274       -0.09995538958497       -2.13995051768501
H           -6.89790395631518       -1.57703884380544       -3.12282953775673
H           -5.41204579637816       -0.60160161508222       -3.20955265679798
H           -5.05144528324914       -4.00031830210421        2.32777519438659
H           -5.25090965155991       -5.25063207251455        1.07583556424484
H           -3.63708049674977       -4.56834823249069        1.39356962455599
H           -3.32128021536799       -2.36874880220416        2.21250615481040
H           -2.46902019885752       -0.09582816608550        2.17022155817903
H           -3.20329978164178        2.40931186026030       -1.76108494442935
H           -1.78722955795982        3.13000932304486       -1.00919503230339
H           -2.04420914559272        0.16514290586714       -1.69410264532922
H           -1.33870190427513        1.39070722618290       -2.74706668166442
H           -0.90653660373555        1.46104554098279        0.92162007745259
H            0.44577114691959        1.86834327389167       -1.03132629293614
H            3.23290338102078       -2.53604240371503       -1.84757881035274
H            2.05270676227294       -1.17182253337465        0.03330007472703
H            2.44466326031723        1.49855220373724       -1.42229633594148
H            3.37667129126054       -3.30117635632238       -1.87660538344712
H            4.57037224245938        2.31940283177156       -1.69239609792777
H            6.97107084280102        2.24918199467326       -1.32011345297237
H            8.93113534427929        2.26439123784476        0.02581006769278
H            9.15532791438057        1.29473324163889       -1.45924494038658
H           10.12265710263243        0.94136195272783       -0.00648368630360
H            6.70370427264744       -3.22033606815430        2.13684284480206
H            5.25723029568867       -2.21441579014610        2.38975723989753
H            5.45095625257894       -3.14506224841374        0.87318663685221
H            4.08224684276354       -1.25776267111382        0.60866069094666
H           -0.55939711192774       -1.75976851031279       -1.70609816429012
H           -1.27308995513866       -1.23647095123179       -0.16296105515154
H            0.23534592534543       -2.16324947106534       -0.18423358076946
H           -4.88497651068565        2.67526431675430       -0.14057658954880
H           -4.07462788587548        2.66803671944204        2.79088057995344
H           -5.11703595668546        1.46930705209604        2.01253696897241
H           -5.64476097586480        3.14562866552558        2.14485308521917
H           -2.97782033823772        4.51325987326503        1.36230602775333
H           -3.38173782371677        4.62326462694312       -0.35945260086651
H           -4.61359011888444        4.92025493523093        0.85673574663264
H           -0.95996617452939        2.76732460998693        2.86553754759640

          :  Hamiltonian                  GFN2-xTB          :
         :: total energy             -99.353046673473 Eh    ::
         :: gradient norm              0.002054976713 Eh/a0 ::
         :: HOMO-LUMO gap              1.522350488402 eV    ::
         :: SCC energy              -100.774736605988 Eh    ::
         :: -> dispersion             -0.075443642515 Eh    ::
         :: repulsion energy           1.420444329603 Eh    ::

    * Orbital Energies and Occupations

         #    Occupation            Energy/Eh            Energy/eV
      -------------------------------------------------------------
         1        2.0000           -0.8118912             -22.0927
       ...           ...                  ...                  ...
        78        1.9979           -0.5305228             -14.4363
        79        1.9978           -0.5292270             -14.4010
        80        1.9970           -0.5243501             -14.2683
        81        1.9964           -0.5218217             -14.1995
        82        1.9953           -0.5176244             -14.0853
        83        1.9946           -0.5151347             -14.0175
        84        1.9932           -0.5116038             -13.9214
        85        1.9928           -0.5107746             -13.8989
        86        1.9779           -0.4928337             -13.4107
        87        1.9719           -0.4889290             -13.3044
        88        1.9244           -0.4728887             -12.8680
        89        1.8534           -0.4618171             -12.5667
        90        1.8241           -0.4586759             -12.4812 (HOMO)
        91        0.4649           -0.4027306             -10.9589 (LUMO)
        92        0.0119           -0.3406396              -9.2693
        93        0.0095           -0.3369710              -9.1694
        94        0.0030           -0.3189351              -8.6787
        95        0.0025           -0.3161315              -8.6024
        96        0.0021           -0.3127984              -8.5117
        97        0.0001           -0.2683158              -7.3012
        98        0.0000           -0.1934792              -5.2648
        99        0.0000           -0.1764133              -4.8005
       100                         -0.1196496              -3.2558
       101                         -0.0685502              -1.8653
       ...                                ...                  ...
       171                          0.5786218              15.7451
      -------------------------------------------------------------
                  HL-Gap            0.0559454 Eh            1.5224 eV

     #   Z          covCN         q      C6AA      α(0)
     1   7 N        1.774    -0.265    27.700     7.794
     2   6 C        2.827     0.102    25.733     8.312
     3   6 C        3.907     0.007    20.406     6.421
     4   6 C        2.974     0.003    27.949     8.672
     5   6 C        2.920    -0.080    29.996     8.981
     6   6 C        2.862     0.130    25.153     8.221
     7   8 O        1.706    -0.228    17.777     5.693
     8   6 C        3.644     0.027    20.459     6.502
     9   6 C        2.864     0.129    25.166     8.223
    10   8 O        1.706    -0.226    17.746     5.688
    11   6 C        3.645     0.026    20.472     6.503
    12   6 C        2.913    -0.074    29.841     8.958
    13   6 C        2.921    -0.052    29.298     8.876
    14   6 C        3.812    -0.065    21.733     6.636
    15   6 C        3.802    -0.069    21.816     6.650
    16   6 C        2.851    -0.006    28.173     8.699
    17   7 N        2.732     0.044    20.480     6.721
    18   6 C        2.856    -0.017    28.434     8.740
    19   6 C        2.903    -0.046    29.144     8.852
    20   6 C        2.967     0.009    27.805     8.649
    21   6 C        2.926    -0.039    28.971     8.827
    22   6 C        2.910    -0.065    29.610     8.923
    23   6 C        2.864     0.140    24.954     8.188
    24   8 O        1.706    -0.211    17.511     5.650
    25   6 C        3.645     0.023    20.531     6.512
    26   6 C        2.861     0.135    25.047     8.203
    27   8 O        1.706    -0.225    17.732     5.685
    28   6 C        3.645     0.027    20.461     6.501
    29   6 C        2.917    -0.076    29.893     8.966
    30   6 C        3.710    -0.071    22.009     6.705
    31   6 C        3.853    -0.007    20.667     6.466
    32   6 C        3.756    -0.119    22.826     6.812
    33   6 C        3.755    -0.119    22.834     6.813
    34   1 H        0.926     0.053     2.277     2.360
    35   1 H        0.924     0.055     2.259     2.350
    36   1 H        0.925     0.082     1.956     2.187
    37   1 H        0.924     0.048     2.344     2.394
    38   1 H        0.924     0.057     2.239     2.340
    39   1 H        0.925     0.082     1.956     2.187
    40   1 H        0.924     0.049     2.328     2.386
    41   1 H        0.926     0.054     2.269     2.356
    42   1 H        0.926     0.042     2.423     2.434
    43   1 H        0.925     0.059     2.208     2.324
    44   1 H        0.924     0.054     2.273     2.357
    45   1 H        0.925     0.063     2.162     2.299
    46   1 H        0.923     0.077     2.010     2.217
    47   1 H        0.922     0.010     2.885     2.656
    48   1 H        0.926     0.069     2.100     2.266
    49   1 H        0.806    -0.009     3.268     2.839
    50   1 H        0.926     0.058     2.220     2.330
    51   1 H        0.926     0.050     2.324     2.384
    52   1 H        0.806     0.009     2.963     2.703
    53   1 H        0.926     0.053     2.281     2.362
    54   1 H        0.926     0.061     2.183     2.310
    55   1 H        0.924     0.059     2.212     2.326
    56   1 H        0.924     0.059     2.206     2.323
    57   1 H        0.925     0.085     1.926     2.170
    58   1 H        0.925     0.083     1.948     2.183
    59   1 H        0.924     0.051     2.308     2.376
    60   1 H        0.924     0.051     2.311     2.377
    61   1 H        0.926     0.048     2.339     2.391
    62   1 H        0.924     0.078     2.000     2.212
    63   1 H        0.924     0.079     1.990     2.206
    64   1 H        0.925     0.079     1.984     2.203
    65   1 H        0.924     0.038     2.475     2.460
    66   1 H        0.925     0.069     2.096     2.264
    67   1 H        0.925     0.036     2.505     2.475
    68   1 H        0.925     0.052     2.293     2.368
    69   1 H        0.925     0.062     2.174     2.306
    70   1 H        0.925     0.036     2.504     2.474
    71   1 H        0.925     0.055     2.256     2.349
    72   1 H        0.860     0.159     1.340     1.813

Wiberg/Mayer (AO) data.
largest (>0.10) Wiberg bond orders for each atom

     #   Z sym  total        # sym  WBO       # sym  WBO       # sym  WBO
 ---------------------------------------------------------------------------
     1   7 N    3.033 --     2 C    1.959    72 H    0.940
     2   6 C    3.930 --     1 N    1.959     3 C    0.993    47 H    0.903
     3   6 C    3.973 --     2 C    0.993     4 C    0.972    14 C    0.956
                            31 C    0.941
     4   6 C    3.945 --    13 C    1.408     5 C    1.369     3 C    0.972
     5   6 C    3.960 --     6 C    1.399     4 C    1.369    34 H    0.958
     6   6 C    3.901 --     5 C    1.399     9 C    1.219     7 O    1.102
     7   8 O    2.254 --     6 C    1.102     8 C    0.977
     8   6 C    3.931 --     7 O    0.977    36 H    0.976    37 H    0.973
                            35 H    0.973
     9   6 C    3.897 --    12 C    1.389     6 C    1.219    10 O    1.105
    10   8 O    2.253 --     9 C    1.105    11 C    0.977
    11   6 C    3.930 --    10 O    0.977    39 H    0.977    40 H    0.973
                            38 H    0.973
    12   6 C    3.960 --    13 C    1.405     9 C    1.389    41 H    0.963
    13   6 C    3.950 --     4 C    1.408    12 C    1.405    42 H    0.962
    14   6 C    3.973 --    15 C    0.984    44 H    0.972    43 H    0.968
                             3 C    0.956
    15   6 C    3.985 --    16 C    1.056    14 C    0.984    45 H    0.961
                            46 H    0.929
    16   6 C    3.613 --    17 N    1.372    15 C    1.056    48 H    0.955
    17   7 N    3.598 --    16 C    1.372    18 C    1.130    30 C    0.991
    18   6 C    3.885 --    19 C    1.612    17 N    1.130    50 H    0.951
    19   6 C    3.858 --    18 C    1.612    20 C    1.171    51 H    0.956
    20   6 C    3.946 --    21 C    1.325    29 C    1.306    19 C    1.171
    21   6 C    3.914 --    22 C    1.457    20 C    1.325    53 H    0.967
    22   6 C    3.958 --    21 C    1.457    23 C    1.357    54 H    0.962
    23   6 C    3.861 --    22 C    1.357    26 C    1.199    24 O    1.129
    24   8 O    2.261 --    23 C    1.129    25 C    0.973
    25   6 C    3.924 --    57 H    0.976    24 O    0.973    55 H    0.972
                            56 H    0.972
    26   6 C    3.900 --    29 C    1.429    23 C    1.199    27 O    1.103
    27   8 O    2.253 --    26 C    1.103    28 C    0.978
    28   6 C    3.931 --    27 O    0.978    58 H    0.976    60 H    0.973
                            59 H    0.973
    29   6 C    3.933 --    26 C    1.429    20 C    1.306    61 H    0.958
    30   6 C    3.954 --    17 N    0.991    64 H    0.975    62 H    0.967
                            63 H    0.963
    31   6 C    3.970 --    33 C    1.009    32 C    1.008    65 H    0.959
                             3 C    0.941
    32   6 C    3.976 --    31 C    1.008    67 H    0.981    68 H    0.981
                            66 H    0.973
    33   6 C    3.980 --    31 C    1.009    70 H    0.982    71 H    0.979
                            69 H    0.975
    34   1 H    0.996 --     5 C    0.958
    35   1 H    0.993 --     8 C    0.973
    36   1 H    0.993 --     8 C    0.976
    37   1 H    0.993 --     8 C    0.973
    38   1 H    0.992 --    11 C    0.973
    39   1 H    0.993 --    11 C    0.977
    40   1 H    0.993 --    11 C    0.973
    41   1 H    0.995 --    12 C    0.963
    42   1 H    0.998 --    13 C    0.962
    43   1 H    0.995 --    14 C    0.968
    44   1 H    0.996 --    14 C    0.972
    45   1 H    0.995 --    15 C    0.961
    46   1 H    0.970 --    15 C    0.929
    47   1 H    0.983 --     2 C    0.903
    48   1 H    0.995 --    16 C    0.955
    49   1 H    0.999 --    52 H    0.997
    50   1 H    0.995 --    18 C    0.951
    51   1 H    0.997 --    19 C    0.956
    52   1 H    0.999 --    49 H    0.997
    53   1 H    0.996 --    21 C    0.967
    54   1 H    0.994 --    22 C    0.962
    55   1 H    0.990 --    25 C    0.972
    56   1 H    0.990 --    25 C    0.972
    57   1 H    0.992 --    25 C    0.976
    58   1 H    0.992 --    28 C    0.976
    59   1 H    0.993 --    28 C    0.973
    60   1 H    0.993 --    28 C    0.973
    61   1 H    0.996 --    29 C    0.958
    62   1 H    0.988 --    30 C    0.967
    63   1 H    0.990 --    30 C    0.963
    64   1 H    0.993 --    30 C    0.975
    65   1 H    0.991 --    31 C    0.959
    66   1 H    0.990 --    32 C    0.973
    67   1 H    0.996 --    32 C    0.981
    68   1 H    0.993 --    32 C    0.981
    69   1 H    0.992 --    33 C    0.975
    70   1 H    0.997 --    33 C    0.982
    71   1 H    0.993 --    33 C    0.979
    72   1 H    0.968 --     1 N    0.940
 ---------------------------------------------------------------------------

molecular dipole:
                 x           y           z       tot (Debye)
 q only:        0.705      -0.006      -0.713
   full:        0.989      -0.087      -0.880       3.372

           -------------------------------------------------
          | TOTAL ENERGY              -99.353046673473 Eh   |
          | GRADIENT NORM               0.002054976713 Eh/α |
          | HOMO-LUMO GAP               1.522350488402 eV   |
           -------------------------------------------------

 * finished run on 2024/04/06 at 11:14:13.835
