   * xtb version 6.6.1 (8d0f1dd) compiled by 'conda@1efc2f54142f' on 2023-08-01
          program call               : xtb struc.xyz --opt loose --input .xc1 --gfn2

   ID    Z sym.   atoms
    1    7 N      1, 17
    2    6 C      2-6, 8, 9, 11-16, 18-23, 25, 26, 28-33
    3    8 O      7, 10, 24, 27
    4    1 H      34-72
constraining bond 7 35 to    2.6333300 Å, actual value:    2.0765051 Å

          :  Hamiltonian                  GFN2-xTB          :
 * total energy  :   -99.4594921 Eh     change       -0.4035485E-08 Eh
 * total energy  :   -99.5627376 Eh     change       -0.1032455E+00 Eh
 * total energy  :   -99.7188535 Eh     change       -0.1561159E+00 Eh
 * total energy  :   -97.2643810 Eh     change        0.2454472E+01 Eh
 * total energy  :   -99.7878426 Eh     change       -0.2523462E+01 Eh
 * total energy  :   -99.8027001 Eh     change       -0.1485751E-01 Eh
 * total energy  :   -99.8081989 Eh     change       -0.5498793E-02 Eh
 * total energy  :   -99.8123025 Eh     change       -0.4103623E-02 Eh
 * total energy  :   -99.8166118 Eh     change       -0.4309246E-02 Eh
 * total energy  :   -99.8201869 Eh     change       -0.3575132E-02 Eh
 * total energy  :   -99.8488078 Eh     change       -0.1480194E-03 Eh
 * total energy  :   -99.8489142 Eh     change       -0.1063806E-03 Eh
 * total energy  :   -99.8490192 Eh     change       -0.1049640E-03 Eh
 * total energy  :   -99.8491114 Eh     change       -0.9220879E-04 Eh
 * total energy  :   -99.8491838 Eh     change       -0.7238044E-04 Eh
 * total energy  :   -99.8492349 Eh     change       -0.5115792E-04 Eh
 * total energy  :   -99.8493168 Eh     change       -0.8187279E-04 Eh
 * total energy  :   -99.8493562 Eh     change       -0.3940893E-04 Eh
 * total energy  :   -99.8493973 Eh     change       -0.4106742E-04 Eh
   *** GEOMETRY OPTIMIZATION CONVERGED AFTER 69 ITERATIONS ***

 final structure:
================
72
 xtb: 6.6.1 (8d0f1dd)
N           -1.84985047103031        2.97840675156909        2.18137892375071
C           -1.87643639703946        2.06770764851351        1.32302942374231
C           -2.98683575587191        1.89474377646551        0.31986817146452
C           -3.49955490203826        0.46859882082227        0.36912287801324
C           -4.22887850116274       -0.05644372567943       -0.69697867909597
C           -4.76253578007778       -1.32285604442568       -0.60657273980266
O           -5.46062733542569       -1.91786632031081       -1.70838402078117
C           -5.81924678283843       -1.00510182774090       -2.83243748161216
C           -4.63226338528527       -2.11484306524703        0.54131609759826
O           -5.26282656299117       -3.32029132742972        0.49896585372750
C           -5.25801089550848       -4.12147926893190        1.66316556576388
C           -3.89934794053697       -1.59151290230246        1.59801163762159
C           -3.34117297756374       -0.32323122558499        1.50118873843426
C           -2.36413238454533        2.22049912540583       -1.06214193147472
C           -1.40692917558259        1.15182712994992       -1.61627002193713
C           -0.09793510498507        1.11644965110451       -0.92924581035992
N            0.54950136787455        0.01011688559106       -0.55615136405719
C            1.94026360819974        0.07728675769048       -0.17671646209570
C            2.86916590670755       -0.25385129373843       -1.36170478251501
C            4.30433451790298       -0.07004983455850       -0.95763872938890
C            4.92741022383763        1.15685578640350       -1.10667942566446
C            6.24274330770600        1.33772589064975       -0.70639317340784
C            6.95889779318491        0.29306250822315       -0.14222336217298
O            8.23734078121842        0.35585414545845        0.28247358192035
C            8.94083475511880        1.56933873550103        0.15363084457213
C            6.32719449552210       -0.96947189324921        0.01658275997832
O            7.09688113929446       -1.93220428803627        0.56926947191028
C            6.56213043928810       -3.22195448155497        0.74106945541650
C            5.01255493523876       -1.12697207783523       -0.38962163791419
C           -0.03664893828122       -1.29961573407352       -0.70277155929936
C           -4.21349025038329        2.82823865920730        0.56235049165560
C           -4.83919101656100        2.59538494847828        1.93565769973822
C           -3.88528269059576        4.31079598892027        0.40015734443071
H           -4.43196695923662        0.50841800002156       -1.59189630697777
H           -6.09080944585707       -2.29872521582462       -1.44989634031730
H           -6.71927996356790       -1.39690045864976       -3.28975062467511
H           -4.97547033157092       -0.96675587942921       -3.51084537057627
H           -5.71686960981339       -3.59651650082665        2.50504139272717
H           -5.85053770010912       -4.99893602822773        1.41391320187884
H           -4.24418070970568       -4.43128043504397        1.92789737200076
H           -3.77217122157599       -2.15584680194736        2.50689694508062
H           -2.79980835869420        0.06248982960401        2.35109121868557
H           -3.17061613569598        2.36347780280342       -1.78090890989762
H           -1.82557680379329        3.16464433733335       -0.97906816469260
H           -1.89022578080179        0.17699877255368       -1.60613548980006
H           -1.22195228268052        1.41703155593479       -2.66620623758653
H           -1.06415020493124        1.33525223360573        1.17856034747452
H            0.43076404635248        2.04813458534737       -0.80368414920943
H            2.12584006303471       -0.62430438349900        0.64062162835552
H            2.16716175256029        1.08422696620977        0.17904519911815
H            2.62674359756940        0.41440716571232       -2.18991845668381
H            2.69645119762740       -1.28147856463948       -1.68426660185275
H            4.39387125023627        1.98398893753510       -1.54998295468026
H            6.70357206211847        2.30198597191524       -0.84411022096725
H            8.46191269383150        2.37297204211873        0.72146723203301
H            9.03517159323366        1.86856574309095       -0.89468038917275
H            9.93030948829579        1.37811334401072        0.56433868056349
H            7.36250925736304       -3.81404944162135        1.18073099714245
H            5.70391681072148       -3.21407780029850        1.42127607496730
H            6.26757847270736       -3.66596831231886       -0.21526525884307
H            4.52519808605159       -2.08333344972480       -0.28057790091448
H           -0.16932700524289       -1.56446791869524       -1.75466064220852
H           -1.00897070604439       -1.33748803469325       -0.20620122910019
H            0.61542272521177       -2.03649420538852       -0.24045266720449
H           -4.95587311789888        2.55531584931268       -0.19773003691710
H           -4.14569161544151        2.89270728040973        2.71546948622607
H           -5.10971355155154        1.55198815764388        2.07855969310955
H           -5.74070418188493        3.19459849112643        2.02936563642521
H           -3.08120314555314        4.59143943640859        1.07243527827249
H           -3.60702948505659        4.55676437335250       -0.62062113937257
H           -4.76377263311584        4.89796656195046        0.65363738641866
H           -1.03206257284362        3.02412761606350        2.78246840561418

          :  Hamiltonian                  GFN2-xTB          :
         :: total energy             -99.849397263165 Eh    ::
         :: gradient norm              0.003491913559 Eh/a0 ::
         :: HOMO-LUMO gap              1.060066170163 eV    ::
         :: SCC energy              -100.679720180901 Eh    ::
         :: -> dispersion             -0.074680264608 Eh    ::
         :: repulsion energy           1.442139443906 Eh    ::

    * Orbital Energies and Occupations

         #    Occupation            Energy/Eh            Energy/eV
      -------------------------------------------------------------
         1        2.0000           -0.8807046             -23.9652
       ...           ...                  ...                  ...
        78        1.9992           -0.5236096             -14.2481
        79        1.9991           -0.5220943             -14.2069
        80        1.9990           -0.5213970             -14.1879
        81        1.9988           -0.5183960             -14.1063
        82        1.9985           -0.5143384             -13.9959
        83        1.9979           -0.5093557             -13.8603
        84        1.9977           -0.5074729             -13.8090
        85        1.9976           -0.5067374             -13.7890
        86        1.9926           -0.4892433             -13.3130
        87        1.9843           -0.4772319             -12.9861
        88        1.9618           -0.4629200             -12.5967
        89        1.8869           -0.4451355             -12.1128
        90        1.5910           -0.4220800             -11.4854 (HOMO)
        91        0.4988           -0.3831233             -10.4253 (LUMO)
        92        0.0442           -0.3405768              -9.2676
        93        0.0274           -0.3328401              -9.0570
        94        0.0223           -0.3295811              -8.9684
        95        0.0037           -0.3010052              -8.1908
        96        0.0031           -0.2983582              -8.1187
        97        0.0000           -0.2111333              -5.7452
        98        0.0000           -0.1756724              -4.7803
        99        0.0000           -0.1728044              -4.7022
       100                         -0.1241310              -3.3778
       101                         -0.0845623              -2.3011
       ...                                ...                  ...
       171                          0.5888679              16.0239
      -------------------------------------------------------------
                  HL-Gap            0.0389567 Eh            1.0601 eV

     #   Z          covCN         q      C6AA      α(0)
     1   7 N        1.774    -0.283    28.145     7.856
     2   6 C        2.827     0.098    25.820     8.326
     3   6 C        3.907     0.005    20.429     6.425
     4   6 C        2.978     0.007    27.863     8.659
     5   6 C        2.919    -0.060    29.485     8.904
     6   6 C        2.853     0.075    26.316     8.408
     7   8 O        2.494    -0.117    16.051     5.411
     8   6 C        2.692    -0.150    31.841     9.235
     9   6 C        2.860     0.121    25.337     8.251
    10   8 O        1.705    -0.275    18.554     5.816
    11   6 C        3.644     0.029    20.433     6.498
    12   6 C        2.918    -0.070    29.741     8.943
    13   6 C        2.923    -0.045    29.114     8.848
    14   6 C        3.812    -0.068    21.795     6.645
    15   6 C        3.802    -0.069    21.822     6.651
    16   6 C        2.843    -0.005    28.138     8.693
    17   7 N        2.729    -0.001    21.281     6.851
    18   6 C        3.755    -0.015    20.898     6.518
    19   6 C        3.808    -0.070    21.829     6.651
    20   6 C        2.969    -0.003    28.088     8.693
    21   6 C        2.922    -0.051    29.255     8.870
    22   6 C        2.914    -0.069    29.714     8.939
    23   6 C        2.865     0.131    25.128     8.217
    24   8 O        1.706    -0.229    17.793     5.695
    25   6 C        3.646     0.027    20.452     6.499
    26   6 C        2.863     0.131    25.138     8.218
    27   8 O        1.706    -0.231    17.834     5.702
    28   6 C        3.645     0.030    20.412     6.493
    29   6 C        2.920    -0.081    30.016     8.984
    30   6 C        3.699    -0.064    21.899     6.693
    31   6 C        3.854    -0.009    20.699     6.471
    32   6 C        3.756    -0.118    22.813     6.810
    33   6 C        3.755    -0.122    22.885     6.821
    34   1 H        0.926     0.091     1.874     2.140
    35   1 H        0.810     0.349     0.590     1.206
    36   1 H        0.925     0.025     2.656     2.549
    37   1 H        0.925     0.030     2.590     2.517
    38   1 H        0.924     0.055     2.261     2.352
    39   1 H        0.925     0.077     2.009     2.216
    40   1 H        0.924     0.052     2.293     2.368
    41   1 H        0.926     0.061     2.188     2.313
    42   1 H        0.926     0.055     2.260     2.351
    43   1 H        0.925     0.062     2.174     2.306
    44   1 H        0.925     0.060     2.203     2.321
    45   1 H        0.925     0.061     2.189     2.314
    46   1 H        0.923     0.076     2.022     2.224
    47   1 H        0.923    -0.001     3.078     2.744
    48   1 H        0.926     0.063     2.160     2.298
    49   1 H        0.924     0.063     2.162     2.299
    50   1 H        0.924     0.067     2.123     2.279
    51   1 H        0.924     0.052     2.290     2.366
    52   1 H        0.924     0.052     2.298     2.370
    53   1 H        0.926     0.042     2.420     2.432
    54   1 H        0.926     0.055     2.255     2.349
    55   1 H        0.924     0.051     2.307     2.375
    56   1 H        0.924     0.053     2.285     2.364
    57   1 H        0.925     0.079     1.989     2.205
    58   1 H        0.925     0.078     1.995     2.209
    59   1 H        0.924     0.045     2.381     2.413
    60   1 H        0.924     0.049     2.331     2.388
    61   1 H        0.926     0.043     2.405     2.425
    62   1 H        0.924     0.071     2.078     2.254
    63   1 H        0.924     0.069     2.099     2.266
    64   1 H        0.925     0.076     2.016     2.220
    65   1 H        0.924     0.036     2.503     2.474
    66   1 H        0.925     0.065     2.144     2.290
    67   1 H        0.925     0.028     2.610     2.527
    68   1 H        0.925     0.050     2.317     2.381
    69   1 H        0.925     0.067     2.123     2.278
    70   1 H        0.925     0.036     2.498     2.471
    71   1 H        0.925     0.054     2.276     2.359
    72   1 H        0.860     0.151     1.393     1.849

Wiberg/Mayer (AO) data.
largest (>0.10) Wiberg bond orders for each atom

     #   Z sym  total        # sym  WBO       # sym  WBO       # sym  WBO
 ---------------------------------------------------------------------------
     1   7 N    3.017 --     2 C    1.945    72 H    0.945
     2   6 C    3.929 --     1 N    1.945     3 C    0.993    47 H    0.921
     3   6 C    3.981 --     2 C    0.993     4 C    0.982    14 C    0.955
                            31 C    0.940
     4   6 C    3.964 --    13 C    1.409     5 C    1.372     3 C    0.982
     5   6 C    3.945 --     6 C    1.425     4 C    1.372    34 H    0.948
     6   6 C    3.828 --     5 C    1.425     9 C    1.299     7 O    0.888
     7   8 O    2.609 --     6 C    0.888    35 H    0.861     8 C    0.775
     8   6 C    2.783 --    36 H    0.978    37 H    0.975     7 O    0.775
     9   6 C    3.917 --    12 C    1.373     6 C    1.299    10 O    1.069
    10   8 O    2.224 --     9 C    1.069    11 C    0.971
    11   6 C    3.931 --    39 H    0.978    38 H    0.977    40 H    0.977
                            10 O    0.971
    12   6 C    3.958 --    13 C    1.419     9 C    1.373    41 H    0.964
    13   6 C    3.957 --    12 C    1.419     4 C    1.409    42 H    0.963
    14   6 C    3.972 --    15 C    0.984    44 H    0.972    43 H    0.967
                             3 C    0.955
    15   6 C    3.988 --    16 C    1.060    14 C    0.984    45 H    0.961
                            46 H    0.929
    16   6 C    3.516 --    17 N    1.365    15 C    1.060    48 H    0.960
    17   7 N    3.433 --    16 C    1.365    30 C    1.001    18 C    0.990
    18   6 C    3.957 --    17 N    0.990    50 H    0.968    49 H    0.966
                            19 C    0.966
    19   6 C    3.975 --    20 C    1.008    52 H    0.972    51 H    0.972
                            18 C    0.966
    20   6 C    3.953 --    21 C    1.416    29 C    1.376    19 C    1.008
    21   6 C    3.958 --    20 C    1.416    22 C    1.413    53 H    0.968
    22   6 C    3.965 --    21 C    1.413    23 C    1.390    54 H    0.964
    23   6 C    3.905 --    22 C    1.390    26 C    1.228    24 O    1.101
    24   8 O    2.254 --    23 C    1.101    25 C    0.978
    25   6 C    3.932 --    24 O    0.978    57 H    0.977    55 H    0.974
                            56 H    0.974
    26   6 C    3.908 --    29 C    1.401    23 C    1.228    27 O    1.095
    27   8 O    2.253 --    26 C    1.095    28 C    0.981
    28   6 C    3.936 --    27 O    0.981    58 H    0.977    59 H    0.974
                            60 H    0.974
    29   6 C    3.964 --    26 C    1.401    20 C    1.376    61 H    0.963
    30   6 C    3.964 --    17 N    1.001    64 H    0.978    63 H    0.969
                            62 H    0.968
    31   6 C    3.979 --    32 C    1.010    33 C    1.008    65 H    0.964
                             3 C    0.940
    32   6 C    3.988 --    31 C    1.010    67 H    0.983    68 H    0.983
                            66 H    0.978
    33   6 C    3.985 --    31 C    1.008    70 H    0.984    71 H    0.981
                            69 H    0.977
    34   1 H    0.991 --     5 C    0.948
    35   1 H    0.878 --     7 O    0.861
    36   1 H    0.991 --     8 C    0.978
    37   1 H    0.984 --     8 C    0.975
    38   1 H    0.996 --    11 C    0.977
    39   1 H    0.994 --    11 C    0.978
    40   1 H    0.997 --    11 C    0.977
    41   1 H    0.995 --    12 C    0.964
    42   1 H    0.997 --    13 C    0.963
    43   1 H    0.994 --    14 C    0.967
    44   1 H    0.996 --    14 C    0.972
    45   1 H    0.995 --    15 C    0.961
    46   1 H    0.967 --    15 C    0.929
    47   1 H    0.991 --     2 C    0.921
    48   1 H    0.996 --    16 C    0.960
    49   1 H    0.992 --    18 C    0.966
    50   1 H    0.994 --    18 C    0.968
    51   1 H    0.996 --    19 C    0.972
    52   1 H    0.996 --    19 C    0.972
    53   1 H    0.998 --    21 C    0.968
    54   1 H    0.995 --    22 C    0.964
    55   1 H    0.993 --    25 C    0.974
    56   1 H    0.993 --    25 C    0.974
    57   1 H    0.993 --    25 C    0.977
    58   1 H    0.993 --    28 C    0.977
    59   1 H    0.995 --    28 C    0.974
    60   1 H    0.994 --    28 C    0.974
    61   1 H    0.997 --    29 C    0.963
    62   1 H    0.984 --    30 C    0.968
    63   1 H    0.988 --    30 C    0.969
    64   1 H    0.994 --    30 C    0.978
    65   1 H    0.996 --    31 C    0.964
    66   1 H    0.994 --    32 C    0.978
    67   1 H    0.998 --    32 C    0.983
    68   1 H    0.996 --    32 C    0.983
    69   1 H    0.994 --    33 C    0.977
    70   1 H    0.998 --    33 C    0.984
    71   1 H    0.995 --    33 C    0.981
    72   1 H    0.974 --     1 N    0.945
 ---------------------------------------------------------------------------

molecular dipole:
                 x           y           z       tot (Debye)
 q only:       -1.292      -1.056      -0.394
   full:       -1.268      -1.916      -0.455       5.953

           -------------------------------------------------
          | TOTAL ENERGY              -99.849397263165 Eh   |
          | GRADIENT NORM               0.003491913559 Eh/α |
          | HOMO-LUMO GAP               1.060066170163 eV   |
           -------------------------------------------------

 * finished run on 2024/04/06 at 11:13:07.789
