   * xtb version 6.6.1 (8d0f1dd) compiled by 'conda@1efc2f54142f' on 2023-08-01
          program call               : xtb xtbopt.xyz --opt crude --input .xc2 --gfn2

   ID    Z sym.   atoms
    1    7 N      1, 17
    2    6 C      2-6, 8, 9, 11-16, 18-23, 25, 26, 28-33
    3    8 O      7, 10, 24, 27
    4    1 H      34-72
########################################################################
[WARNING] Please study the warnings concerning your input carefully
-1- readin_getIntValue: could not parse ''
########################################################################

          :  Hamiltonian                  GFN2-xTB          :
 * total energy  :   -99.2363510 Eh     change       -0.1705303E-12 Eh
 * total energy  :   -99.2844515 Eh     change       -0.4810052E-01 Eh
 * total energy  :   -99.2848387 Eh     change       -0.3872138E-03 Eh
 * total energy  :   -99.2850083 Eh     change       -0.1695223E-03 Eh
   *** GEOMETRY OPTIMIZATION CONVERGED AFTER 4 ITERATIONS ***

 final structure:
================
72
 xtb: 6.6.1 (8d0f1dd)
N           -1.84792380075436        2.97865833716323        2.18369649681328
C           -1.87552325520994        2.07021770900908        1.32255883749000
C           -2.98610298050846        1.89899495156388        0.31957614529540
C           -3.49967483973265        0.47315961194131        0.36832452487682
C           -4.22330988526844       -0.05376578498028       -0.70112573949179
C           -4.75083705932560       -1.32429817510286       -0.61599632337496
O           -5.41211198628186       -1.92571228714933       -1.72986827801594
C           -5.82560461756166       -1.00625435858200       -2.82459727205421
C           -4.62740732442202       -2.11292625634814        0.53397996645054
O           -5.26410174944266       -3.31623529139598        0.49058897940035
C           -5.25772544921056       -4.11948816753575        1.65391660148034
C           -3.90206732153578       -1.58747478528032        1.59469774954162
C           -3.34324700793002       -0.31922255644814        1.49986238258313
C           -2.36371889161270        2.22256600061291       -1.06333517044575
C           -1.40634935556344        1.15296555646180       -1.61549647261958
C           -0.09828288647578        1.11732168021642       -0.92634512470997
N            0.55052286197373        0.01042802760566       -0.55633851261272
C            1.94106827312596        0.07787343317852       -0.17649093292101
C            2.87052191565985       -0.25379882737488       -1.36089849656965
C            4.30546253960498       -0.06984311690528       -0.95604361866966
C            4.92830226516674        1.15723932982361       -1.10433423271171
C            6.24355551617108        1.33811495563600       -0.70375381231434
C            6.95978241239727        0.29329341949266       -0.14011903669126
O            8.23838310120351        0.35609916109367        0.28442585479365
C            8.94260756604210        1.56888498620784        0.15332227445729
C            6.32833474826449       -0.96929138413614        0.01829325348420
O            7.09833948182402       -1.93213086038733        0.57080429528812
C            6.56416740087848       -3.22229223869759        0.74090875352820
C            5.01378380559439       -1.12682673872688       -0.38815402776924
C           -0.03602422594728       -1.29917781516833       -0.70157709114661
C           -4.21202223154190        2.83290489247437        0.56274130711783
C           -4.83765741597719        2.59881316328544        1.93589999748498
C           -3.88258406706754        4.31505249350854        0.40242358649798
H           -4.42500612643894        0.50987382327344       -1.59725517426100
H           -6.18597345307952       -2.41492403596408       -1.39906509761204
H           -6.72883823403967       -1.39430872187637       -3.27086494054391
H           -4.99837893236586       -0.94187365434785       -3.52350185055950
H           -5.71334707766782       -3.59523047962195        2.49757137760395
H           -5.85144783876009       -4.99679803226402        1.40616513967319
H           -4.24313074151252       -4.42973041663952        1.91505942962115
H           -3.77946058079540       -2.15004435371188        2.50510013842298
H           -2.80284727390415        0.06587027629994        2.35063116240738
H           -3.17076379443337        2.36303682406363       -1.78195764249247
H           -1.82582625067642        3.16727412948326       -0.98327937547247
H           -1.89008642603495        0.17820034579907       -1.60492420360250
H           -1.22001238036340        1.41656235045088       -2.66562505025507
H           -1.06262748285803        1.33938574172507        1.17369609183630
H            0.43056393088315        2.04876767183568       -0.80079833178357
H            2.12643026617035       -0.62332104464097        0.64125871171095
H            2.16771580972586        1.08505534162869        0.17874703750449
H            2.62860819608065        0.41421486841971       -2.18947534994895
H            2.69795394416459       -1.28158789666173       -1.68308796984285
H            4.39475251173324        1.98461409119041       -1.54723872408230
H            6.70426192272696        2.30255398840856       -0.84067412952113
H            8.46671922341531        2.37302323541081        0.72312020705641
H            9.03361619693935        1.86840835589953       -0.89525826093909
H            9.93324602965159        1.37616712335081        0.56053111351764
H            7.36446660722991       -3.81483966666525        1.17996062441253
H            5.70584108614583       -3.21561708855894        1.42091633965273
H            6.27005185526430       -3.66516530798902       -0.21600496685989
H            4.52655479291911       -2.08328766512265       -0.27953363157542
H           -0.16548944807611       -1.56692839409374       -1.75325286319187
H           -1.00999426885740       -1.33525426903125       -0.20803489960750
H            0.61413413265719       -2.03519413476524       -0.23509386312078
H           -4.95439101917837        2.56148041581269       -0.19777350273763
H           -4.14356967900950        2.89437590711437        2.71608457853909
H           -5.10921714504657        1.55533146935609        2.07732292849371
H           -5.73857904057443        3.19889006363357        2.03051503677126
H           -3.08123777951667        4.59485676729630        1.07816780995019
H           -3.59996487610140        4.56089249605428       -0.61716237727155
H           -4.76228634759359        4.90216331149856        0.65232240250451
H           -1.02848024832244        3.02339702138484        2.78241005374016

          :  Hamiltonian                  GFN2-xTB          :
         :: total energy             -99.285008268886 Eh    ::
         :: gradient norm              0.004076572443 Eh/a0 ::
         :: HOMO-LUMO gap              1.045718295675 eV    ::
         :: SCC energy              -100.657481082372 Eh    ::
         :: -> dispersion             -0.074704692607 Eh    ::
         :: repulsion energy           1.371246006685 Eh    ::

    * Orbital Energies and Occupations

         #    Occupation            Energy/Eh            Energy/eV
      -------------------------------------------------------------
         1        2.0000           -0.8710117             -23.7014
       ...           ...                  ...                  ...
        78        1.9992           -0.5231497             -14.2356
        79        1.9991           -0.5214949             -14.1906
        80        1.9990           -0.5203272             -14.1588
        81        1.9989           -0.5178206             -14.0906
        82        1.9985           -0.5138895             -13.9836
        83        1.9980           -0.5087772             -13.8445
        84        1.9977           -0.5070190             -13.7967
        85        1.9976           -0.5062820             -13.7766
        86        1.9929           -0.4889660             -13.3054
        87        1.9846           -0.4766257             -12.9696
        88        1.9626           -0.4623843             -12.5821
        89        1.8889           -0.4445497             -12.0968
        90        1.5825           -0.4207845             -11.4501 (HOMO)
        91        0.5015           -0.3823551             -10.4044 (LUMO)
        92        0.0453           -0.3400649              -9.2536
        93        0.0279           -0.3322808              -9.0418
        94        0.0227           -0.3289882              -8.9522
        95        0.0038           -0.3003926              -8.1741
        96        0.0032           -0.2977380              -8.1019
        97        0.0000           -0.2113210              -5.7503
        98        0.0000           -0.1829963              -4.9796
        99        0.0000           -0.1750457              -4.7632
       100                         -0.1234881              -3.3603
       101                         -0.0860196              -2.3407
       ...                                ...                  ...
       171                          0.5894990              16.0411
      -------------------------------------------------------------
                  HL-Gap            0.0384294 Eh            1.0457 eV

     #   Z          covCN         q      C6AA      α(0)
     1   7 N        1.774    -0.283    28.157     7.858
     2   6 C        2.827     0.098    25.822     8.327
     3   6 C        3.907     0.006    20.428     6.424
     4   6 C        2.978     0.007    27.866     8.659
     5   6 C        2.920    -0.059    29.465     8.901
     6   6 C        2.853     0.078    26.254     8.398
     7   8 O        2.490    -0.117    16.045     5.410
     8   6 C        2.694    -0.145    31.694     9.214
     9   6 C        2.860     0.119    25.372     8.256
    10   8 O        1.705    -0.277    18.595     5.822
    11   6 C        3.644     0.029    20.434     6.498
    12   6 C        2.918    -0.070    29.739     8.943
    13   6 C        2.923    -0.045    29.115     8.849
    14   6 C        3.812    -0.068    21.789     6.644
    15   6 C        3.802    -0.069    21.814     6.650
    16   6 C        2.843    -0.005    28.147     8.695
    17   7 N        2.729    -0.001    21.292     6.853
    18   6 C        3.755    -0.015    20.895     6.518
    19   6 C        3.808    -0.070    21.828     6.651
    20   6 C        2.969    -0.003    28.090     8.694
    21   6 C        2.922    -0.051    29.257     8.870
    22   6 C        2.914    -0.069    29.716     8.939
    23   6 C        2.865     0.131    25.131     8.217
    24   8 O        1.706    -0.229    17.798     5.696
    25   6 C        3.645     0.027    20.450     6.499
    26   6 C        2.863     0.131    25.140     8.219
    27   8 O        1.706    -0.232    17.840     5.703
    28   6 C        3.645     0.030    20.410     6.493
    29   6 C        2.920    -0.081    30.017     8.984
    30   6 C        3.699    -0.064    21.891     6.692
    31   6 C        3.854    -0.009    20.696     6.470
    32   6 C        3.756    -0.118    22.811     6.810
    33   6 C        3.755    -0.121    22.882     6.821
    34   1 H        0.926     0.089     1.887     2.148
    35   1 H        0.804     0.354     0.579     1.195
    36   1 H        0.926     0.024     2.680     2.560
    37   1 H        0.925     0.030     2.589     2.516
    38   1 H        0.924     0.055     2.258     2.350
    39   1 H        0.925     0.077     2.014     2.219
    40   1 H        0.924     0.053     2.285     2.364
    41   1 H        0.926     0.060     2.195     2.317
    42   1 H        0.926     0.054     2.264     2.353
    43   1 H        0.925     0.062     2.180     2.309
    44   1 H        0.925     0.059     2.207     2.323
    45   1 H        0.925     0.060     2.193     2.316
    46   1 H        0.923     0.075     2.028     2.227
    47   1 H        0.923    -0.001     3.078     2.744
    48   1 H        0.926     0.063     2.163     2.300
    49   1 H        0.924     0.063     2.165     2.301
    50   1 H        0.924     0.066     2.125     2.280
    51   1 H        0.924     0.052     2.291     2.367
    52   1 H        0.924     0.052     2.299     2.371
    53   1 H        0.926     0.042     2.422     2.434
    54   1 H        0.926     0.055     2.258     2.350
    55   1 H        0.924     0.051     2.309     2.376
    56   1 H        0.924     0.053     2.287     2.365
    57   1 H        0.925     0.079     1.990     2.206
    58   1 H        0.925     0.078     1.997     2.210
    59   1 H        0.924     0.045     2.383     2.414
    60   1 H        0.924     0.049     2.333     2.389
    61   1 H        0.926     0.043     2.407     2.426
    62   1 H        0.924     0.070     2.081     2.256
    63   1 H        0.924     0.068     2.103     2.268
    64   1 H        0.925     0.076     2.019     2.222
    65   1 H        0.924     0.036     2.507     2.476
    66   1 H        0.925     0.065     2.144     2.290
    67   1 H        0.925     0.028     2.612     2.527
    68   1 H        0.925     0.050     2.320     2.382
    69   1 H        0.925     0.067     2.123     2.279
    70   1 H        0.925     0.036     2.500     2.472
    71   1 H        0.925     0.053     2.279     2.361
    72   1 H        0.860     0.151     1.394     1.849

Wiberg/Mayer (AO) data.
largest (>0.10) Wiberg bond orders for each atom

     #   Z sym  total        # sym  WBO       # sym  WBO       # sym  WBO
 ---------------------------------------------------------------------------
     1   7 N    3.017 --     2 C    1.945    72 H    0.945
     2   6 C    3.928 --     1 N    1.945     3 C    0.993    47 H    0.921
     3   6 C    3.981 --     2 C    0.993     4 C    0.981    14 C    0.955
                            31 C    0.940
     4   6 C    3.964 --    13 C    1.409     5 C    1.372     3 C    0.981
     5   6 C    3.945 --     6 C    1.422     4 C    1.372    34 H    0.948
     6   6 C    3.832 --     5 C    1.422     9 C    1.300     7 O    0.898
     7   8 O    2.605 --     6 C    0.898    35 H    0.843     8 C    0.782
     8   6 C    2.789 --    36 H    0.979    37 H    0.972     7 O    0.782
     9   6 C    3.916 --    12 C    1.375     6 C    1.300    10 O    1.065
    10   8 O    2.223 --     9 C    1.065    11 C    0.970
    11   6 C    3.930 --    39 H    0.978    38 H    0.977    40 H    0.977
                            10 O    0.970
    12   6 C    3.958 --    13 C    1.418     9 C    1.375    41 H    0.964
    13   6 C    3.957 --    12 C    1.418     4 C    1.409    42 H    0.963
    14   6 C    3.972 --    15 C    0.984    44 H    0.972    43 H    0.967
                             3 C    0.955
    15   6 C    3.988 --    16 C    1.059    14 C    0.984    45 H    0.961
                            46 H    0.929
    16   6 C    3.515 --    17 N    1.363    15 C    1.059    48 H    0.960
    17   7 N    3.431 --    16 C    1.363    30 C    1.002    18 C    0.990
    18   6 C    3.957 --    17 N    0.990    50 H    0.968    49 H    0.966
                            19 C    0.966
    19   6 C    3.975 --    20 C    1.008    52 H    0.972    51 H    0.972
                            18 C    0.966
    20   6 C    3.953 --    21 C    1.417    29 C    1.376    19 C    1.008
    21   6 C    3.958 --    20 C    1.417    22 C    1.413    53 H    0.968
    22   6 C    3.965 --    21 C    1.413    23 C    1.390    54 H    0.964
    23   6 C    3.905 --    22 C    1.390    26 C    1.228    24 O    1.101
    24   8 O    2.254 --    23 C    1.101    25 C    0.978
    25   6 C    3.932 --    24 O    0.978    57 H    0.977    55 H    0.974
                            56 H    0.974
    26   6 C    3.908 --    29 C    1.401    23 C    1.228    27 O    1.094
    27   8 O    2.253 --    26 C    1.094    28 C    0.981
    28   6 C    3.936 --    27 O    0.981    58 H    0.977    59 H    0.974
                            60 H    0.974
    29   6 C    3.964 --    26 C    1.401    20 C    1.376    61 H    0.963
    30   6 C    3.964 --    17 N    1.002    64 H    0.978    63 H    0.969
                            62 H    0.968
    31   6 C    3.980 --    32 C    1.010    33 C    1.008    65 H    0.964
                             3 C    0.940
    32   6 C    3.988 --    31 C    1.010    68 H    0.983    67 H    0.983
                            66 H    0.978
    33   6 C    3.985 --    31 C    1.008    70 H    0.984    71 H    0.981
                            69 H    0.977
    34   1 H    0.991 --     5 C    0.948
    35   1 H    0.874 --     7 O    0.843
    36   1 H    0.991 --     8 C    0.979
    37   1 H    0.984 --     8 C    0.972
    38   1 H    0.996 --    11 C    0.977
    39   1 H    0.994 --    11 C    0.978
    40   1 H    0.997 --    11 C    0.977
    41   1 H    0.995 --    12 C    0.964
    42   1 H    0.997 --    13 C    0.963
    43   1 H    0.994 --    14 C    0.967
    44   1 H    0.996 --    14 C    0.972
    45   1 H    0.995 --    15 C    0.961
    46   1 H    0.967 --    15 C    0.929
    47   1 H    0.992 --     2 C    0.921
    48   1 H    0.996 --    16 C    0.960
    49   1 H    0.992 --    18 C    0.966
    50   1 H    0.994 --    18 C    0.968
    51   1 H    0.996 --    19 C    0.972
    52   1 H    0.996 --    19 C    0.972
    53   1 H    0.998 --    21 C    0.968
    54   1 H    0.995 --    22 C    0.964
    55   1 H    0.994 --    25 C    0.974
    56   1 H    0.993 --    25 C    0.974
    57   1 H    0.993 --    25 C    0.977
    58   1 H    0.993 --    28 C    0.977
    59   1 H    0.995 --    28 C    0.974
    60   1 H    0.994 --    28 C    0.974
    61   1 H    0.997 --    29 C    0.963
    62   1 H    0.984 --    30 C    0.968
    63   1 H    0.988 --    30 C    0.969
    64   1 H    0.994 --    30 C    0.978
    65   1 H    0.996 --    31 C    0.964
    66   1 H    0.994 --    32 C    0.978
    67   1 H    0.998 --    32 C    0.983
    68   1 H    0.996 --    32 C    0.983
    69   1 H    0.994 --    33 C    0.977
    70   1 H    0.998 --    33 C    0.984
    71   1 H    0.995 --    33 C    0.981
    72   1 H    0.974 --     1 N    0.945
 ---------------------------------------------------------------------------

molecular dipole:
                 x           y           z       tot (Debye)
 q only:       -1.464      -1.160      -0.399
   full:       -1.415      -1.989      -0.476       6.320

           -------------------------------------------------
          | TOTAL ENERGY              -99.285008268886 Eh   |
          | GRADIENT NORM               0.004076572443 Eh/α |
          | HOMO-LUMO GAP               1.045718295675 eV   |
           -------------------------------------------------

 * finished run on 2024/04/06 at 11:13:08.738
