   * xtb version 6.6.1 (8d0f1dd) compiled by 'conda@1efc2f54142f' on 2023-08-01
          program call               : xtb struc.xyz --opt loose --input .xc1 --gfn2

   ID    Z sym.   atoms
    1    6 C      1, 3, 5-7, 10, 11, 14
    2    7 N      2, 4, 9, 13
    3    8 O      8, 12
    4    1 H      15-25
constraining bond 4 5 to    3.9200000 Å, actual value:    1.3653241 Å

          :  Hamiltonian                  GFN2-xTB          :
 * total energy  :   -30.5922420 Eh     change       -0.6633627E-10 Eh
 * total energy  :   -34.7532737 Eh     change       -0.4161032E+01 Eh
 * total energy  :   -38.2552849 Eh     change       -0.3502011E+01 Eh
 * total energy  :   -40.5476377 Eh     change       -0.2292353E+01 Eh
 * total energy  :   -41.5569448 Eh     change       -0.1009307E+01 Eh
 * total energy  :   -41.7235504 Eh     change       -0.1666056E+00 Eh
 * total energy  :   -41.7451847 Eh     change       -0.2163428E-01 Eh
 * total energy  :   -41.7925615 Eh     change       -0.4737679E-01 Eh
 * total energy  :   -41.8355221 Eh     change       -0.4296061E-01 Eh
 * total energy  :   -41.8708706 Eh     change       -0.3534850E-01 Eh
 * total energy  :   -42.0833985 Eh     change       -0.1954463E-03 Eh
 * total energy  :   -42.0836450 Eh     change       -0.2465469E-03 Eh
 * total energy  :   -42.0838667 Eh     change       -0.2216727E-03 Eh
 * total energy  :   -42.0840097 Eh     change       -0.1429654E-03 Eh
 * total energy  :   -42.0841073 Eh     change       -0.9759196E-04 Eh
 * total energy  :   -42.0841830 Eh     change       -0.7575433E-04 Eh
 * total energy  :   -42.0842542 Eh     change       -0.7117460E-04 Eh
 * total energy  :   -42.0842962 Eh     change       -0.4202041E-04 Eh
 * total energy  :   -42.0843296 Eh     change       -0.3336611E-04 Eh
   *** GEOMETRY OPTIMIZATION CONVERGED AFTER 81 ITERATIONS ***

 final structure:
================
25
 xtb: 6.6.1 (8d0f1dd)
C            2.31807693131376       -0.13126198007927        1.30671282697083
N            1.80240255259500       -0.37979404288369       -0.02949323864747
C            2.55259718300965       -1.07673675171593       -0.95338912676906
N            2.36879751804956       -1.22477812474876       -2.17955266682220
C           -0.60689857821181        0.15305158867188       -0.03311813626110
C            0.70146384723351        0.43477763596371       -0.44184408802539
C            1.04399994939749        1.48636308771557       -1.20714424990540
O            1.46628638641375        2.31556358008456       -1.86823480134676
N           -1.79635205665782        0.79995333386618       -0.20907608333088
C           -2.21439712824919        2.10053921078343       -0.64841641188002
C           -2.42861951246456       -0.24093867215460        0.54327755977473
O           -3.52212684744224       -0.48656876466448        0.88248699451591
N           -1.14563304779614       -0.86159016966491        0.70251276379481
C           -0.74489377628214       -2.18724408330398        1.08125723872939
H            2.90771071406949       -0.98946103481646        1.62361219979212
H            2.95290685756485        0.75838883277297        1.33645595285219
H            1.49148582841054        0.00419729694415        2.00366966815799
H            3.39921502457196       -1.58864901299327       -0.51033035582340
H           -1.88597057493759        2.27967354086595       -1.67327995363198
H           -3.30281766593633        2.12070094630350       -0.61638492483125
H           -1.82438620234152        2.88650062155461        0.00289322028084
H            0.16164605843242       -2.15351426843627        1.68439550879925
H           -0.57244349185098       -2.81594443421068        0.20479546756149
H           -1.55292587407613       -2.61474129473267        1.67289797627871
H            1.59130741928425       -0.77024849952721       -2.64353172233582

          :  Hamiltonian                  GFN2-xTB          :
         :: total energy             -42.084329593963 Eh    ::
         :: gradient norm              0.003470532648 Eh/a0 ::
         :: HOMO-LUMO gap              1.258336703519 eV    ::
         :: SCC energy               -42.646987198924 Eh    ::
         :: -> dispersion             -0.021874651678 Eh    ::
         :: repulsion energy           0.562374110122 Eh    ::

    * Orbital Energies and Occupations

         #    Occupation            Energy/Eh            Energy/eV
      -------------------------------------------------------------
         1        2.0000           -0.9688391             -26.3635
       ...           ...                  ...                  ...
        25        2.0000           -0.6846797             -18.6311
        26        2.0000           -0.6813551             -18.5406
        27        2.0000           -0.6519103             -17.7394
        28        2.0000           -0.6475379             -17.6204
        29        2.0000           -0.6396169             -17.4049
        30        2.0000           -0.6370134             -17.3340
        31        2.0000           -0.6320210             -17.1982
        32        2.0000           -0.6271541             -17.0657
        33        2.0000           -0.6116213             -16.6431
        34        2.0000           -0.5990564             -16.3012
        35        1.9992           -0.5743333             -15.6284
        36        1.9875           -0.5525532             -15.0357
        37        1.8950           -0.5353172             -14.5667 (HOMO)
        38        0.0997           -0.4890741             -13.3084 (LUMO)
        39        0.0187           -0.4754979             -12.9390
        40        0.0000           -0.3922263             -10.6730
        41                         -0.3643023              -9.9132
        42                         -0.3368132              -9.1652
        43                         -0.2226114              -6.0576
        44                         -0.2034256              -5.5355
        45                         -0.1669006              -4.5416
        46                         -0.1332936              -3.6271
        47                         -0.0923544              -2.5131
        48                         -0.0651163              -1.7719
       ...                                ...                  ...
        67                          0.9288313              25.2748
      -------------------------------------------------------------
                  HL-Gap            0.0462430 Eh            1.2583 eV

     #   Z          covCN         q      C6AA      α(0)
     1   6 C        3.696    -0.066    21.950     6.702
     2   7 N        2.746    -0.070    22.588     7.059
     3   6 C        2.761     0.121    25.329     8.242
     4   7 N        1.774    -0.276    27.987     7.834
     5   6 C        3.406     0.155    21.103     7.078
     6   6 C        2.888     0.011    27.765     8.639
     7   6 C        1.864     0.277    24.806     8.045
     8   8 O        0.856    -0.053    15.844     5.337
     9   7 N        2.990    -0.091    23.005     7.124
    10   6 C        3.682    -0.064    21.941     6.707
    11   6 C        3.264     0.348    20.189     7.255
    12   8 O        0.856    -0.233    18.606     5.783
    13   7 N        2.990    -0.077    22.737     7.082
    14   6 C        3.683    -0.064    21.951     6.709
    15   1 H        0.925     0.096     1.826     2.113
    16   1 H        0.924     0.073     2.048     2.238
    17   1 H        0.925     0.071     2.070     2.250
    18   1 H        0.925     0.101     1.780     2.086
    19   1 H        0.924     0.087     1.912     2.163
    20   1 H        0.925     0.116     1.642     2.004
    21   1 H        0.924     0.087     1.912     2.163
    22   1 H        0.925     0.094     1.842     2.122
    23   1 H        0.924     0.090     1.883     2.146
    24   1 H        0.925     0.111     1.685     2.030
    25   1 H        0.860     0.157     1.354     1.823

Wiberg/Mayer (AO) data.
largest (>0.10) Wiberg bond orders for each atom

     #   Z sym  total        # sym  WBO       # sym  WBO       # sym  WBO
 ---------------------------------------------------------------------------
     1   6 C    3.948 --     2 N    0.980    17 H    0.978    16 H    0.972
                            15 H    0.968
     2   7 N    3.415 --     3 C    1.133     1 C    0.980     6 C    0.963
                             4 N    0.162
     3   6 C    3.953 --     4 N    1.846     2 N    1.133    18 H    0.927
     4   7 N    3.013 --     3 C    1.846    25 H    0.935     2 N    0.162
     5   6 C    3.902 --     6 C    1.255    13 N    1.200     9 N    1.190
     6   6 C    3.927 --     7 C    1.404     5 C    1.255     2 N    0.963
                             8 O    0.147
     7   6 C    3.819 --     8 O    2.200     6 C    1.404
     8   8 O    2.518 --     7 C    2.200     6 C    0.147
     9   7 N    3.510 --     5 C    1.190    10 C    0.988    11 C    0.968
                            13 N    0.140    12 O    0.106
    10   6 C    3.935 --     9 N    0.988    20 H    0.968    19 H    0.967
                            21 H    0.964
    11   6 C    3.928 --    12 O    1.892     9 N    0.968    13 N    0.963
    12   8 O    2.195 --    11 C    1.892     9 N    0.106    13 N    0.104
    13   7 N    3.514 --     5 C    1.200    14 C    0.985    11 C    0.963
                             9 N    0.140    12 O    0.104
    14   6 C    3.931 --    13 N    0.985    24 H    0.969    22 H    0.966
                            23 H    0.964
    15   1 H    0.990 --     1 C    0.968
    16   1 H    0.993 --     1 C    0.972
    17   1 H    0.993 --     1 C    0.978
    18   1 H    0.982 --     3 C    0.927
    19   1 H    0.991 --    10 C    0.967
    20   1 H    0.986 --    10 C    0.968
    21   1 H    0.991 --    10 C    0.964
    22   1 H    0.989 --    14 C    0.966
    23   1 H    0.989 --    14 C    0.964
    24   1 H    0.987 --    14 C    0.969
    25   1 H    0.969 --     4 N    0.935
 ---------------------------------------------------------------------------

molecular dipole:
                 x           y           z       tot (Debye)
 q only:        0.364       0.417       0.291
   full:        0.371       0.739       0.400       2.335

           -------------------------------------------------
          | TOTAL ENERGY              -42.084329593963 Eh   |
          | GRADIENT NORM               0.003470532648 Eh/α |
          | HOMO-LUMO GAP               1.258336703519 eV   |
           -------------------------------------------------

 * finished run on 2024/06/05 at 19:57:57.295
