   * xtb version 6.6.1 (8d0f1dd) compiled by 'conda@1efc2f54142f' on 2023-08-01
          program call               : xtb struc.xyz --opt loose --input .xc1 --gfn2

   ID    Z sym.   atoms
    1    6 C      1, 3, 5-7, 10, 11, 14
    2    7 N      2, 4, 9, 13
    3    8 O      8, 12
    4    1 H      15-25
constraining bond 9 10 to    3.9200000 Å, actual value:    1.4599811 Å

          :  Hamiltonian                  GFN2-xTB          :
 * total energy  :     0.9741090 Eh     change       -0.6650680E-10 Eh
 * total energy  :   -19.4991091 Eh     change       -0.2047322E+02 Eh
 * total energy  :   -32.0896015 Eh     change       -0.1259049E+02 Eh
 * total energy  :   -38.9638886 Eh     change       -0.6874287E+01 Eh
 * total energy  :   -41.2711130 Eh     change       -0.2307224E+01 Eh
 * total energy  :   -41.5290344 Eh     change       -0.2579214E+00 Eh
 * total energy  :   -41.5573021 Eh     change       -0.2826779E-01 Eh
 * total energy  :   -41.6130595 Eh     change       -0.5575737E-01 Eh
 * total energy  :   -41.6512461 Eh     change       -0.3818661E-01 Eh
 * total energy  :   -41.7043540 Eh     change       -0.5310792E-01 Eh
 * total energy  :   -42.1169671 Eh     change       -0.7958163E-03 Eh
 * total energy  :   -42.1171123 Eh     change       -0.1451941E-03 Eh
 * total energy  :   -42.1173187 Eh     change       -0.2064337E-03 Eh
 * total energy  :   -42.1174440 Eh     change       -0.1252130E-03 Eh
 * total energy  :   -42.1174818 Eh     change       -0.3780188E-04 Eh
 * total energy  :   -42.1175325 Eh     change       -0.5071391E-04 Eh
 * total energy  :   -42.1175809 Eh     change       -0.4838618E-04 Eh
 * total energy  :   -42.1176203 Eh     change       -0.3942261E-04 Eh
 * total energy  :   -42.1176621 Eh     change       -0.4183417E-04 Eh
   *** GEOMETRY OPTIMIZATION CONVERGED AFTER 41 ITERATIONS ***

 final structure:
================
25
 xtb: 6.6.1 (8d0f1dd)
C            3.42361924131495        0.91877017660069        0.07125182890085
N            2.49194939775312       -0.17515486091478        0.00037579581095
C            2.77788395291977       -1.45761374178655       -0.16404441515939
N            1.64078294004978       -2.18586549158860       -0.14921770450128
C            0.58871365173757       -1.32855917935132        0.03475963684806
C            1.13655768562341       -0.05401393572111        0.13060647671006
C            0.25540760303606        1.12577595049408        0.26905533017571
O            0.68476539414699        2.26186332797283        0.28569899810564
N           -1.03368712944686        0.77432677290966        0.34735531032411
C           -3.59871974527750        3.65658050421261       -0.34551519475924
C           -1.60442709168841       -0.42003006607287        0.29323493504696
O           -2.78391639273381       -0.63831882113277        0.37079991226424
N           -0.71661547301048       -1.58061479614974        0.10738651015115
C           -1.28641645622525       -2.90365327938785        0.03461384797611
H            3.96783130244234        0.88929096796286        1.01659855586914
H            4.13817609078138        0.86364518440736       -0.74909476988708
H            2.86412922039192        1.85384027747315        0.01758021996092
H            3.76263197609038       -1.86197062596695       -0.29364023688214
H           -2.73215113985095        4.28840945447382       -0.32516607961064
H           -3.98478531647485        3.29913337437273       -1.28036563707617
H           -4.07759905824779        3.37122737827140        0.57031909757319
H           -0.91399017273132       -3.53173947452260        0.84649207170662
H           -1.06812246028666       -3.36924366457844       -0.92882494384856
H           -2.36651924376076       -2.79042764885964        0.13863140262538
H            1.59493273754641       -3.18741924151825       -0.26771933042493

          :  Hamiltonian                  GFN2-xTB          :
         :: total energy             -42.117662118470 Eh    ::
         :: gradient norm              0.003563065021 Eh/a0 ::
         :: HOMO-LUMO gap              1.016211798615 eV    ::
         :: SCC energy               -42.649574232137 Eh    ::
         :: -> dispersion             -0.020551619986 Eh    ::
         :: repulsion energy           0.531862228462 Eh    ::

    * Orbital Energies and Occupations

         #    Occupation            Energy/Eh            Energy/eV
      -------------------------------------------------------------
         1        2.0000           -0.9093588             -24.7449
       ...           ...                  ...                  ...
        25        1.9998           -0.6523826             -17.7522
        26        1.9998           -0.6450079             -17.5516
        27        1.9994           -0.6303768             -17.1534
        28        1.9985           -0.6166408             -16.7796
        29        1.9984           -0.6157963             -16.7567
        30        1.9983           -0.6139749             -16.7071
        31        1.9982           -0.6131429             -16.6845
        32        1.9981           -0.6122302             -16.6596
        33        1.9697           -0.5685077             -15.4699
        34        1.9060           -0.5500661             -14.9681
        35        1.9031           -0.5495598             -14.9543
        36        1.8621           -0.5436375             -14.7931
        37        1.6827           -0.5288346             -14.3903 (HOMO)
        38        0.6680           -0.4914895             -13.3741 (LUMO)
        39        0.0166           -0.4267190             -11.6116
        40        0.0013           -0.3860449             -10.5048
        41        0.0002           -0.3567920              -9.7088
        42        0.0000           -0.2600833              -7.0772
        43                         -0.1943340              -5.2881
        44                         -0.1734727              -4.7204
        45                         -0.1384507              -3.7674
        46                         -0.0805032              -2.1906
        47                         -0.0558565              -1.5199
        48                         -0.0352780              -0.9600
       ...                                ...                  ...
        67                          0.5716359              15.5550
      -------------------------------------------------------------
                  HL-Gap            0.0373451 Eh            1.0162 eV

     #   Z          covCN         q      C6AA      α(0)
     1   6 C        3.692    -0.094    22.484     6.785
     2   7 N        2.835     0.089    19.696     6.591
     3   6 C        3.059     0.056    26.694     8.473
     4   7 N        2.799    -0.064    22.479     7.042
     5   6 C        3.031     0.123    25.268     8.245
     6   6 C        3.133    -0.017    28.223     8.697
     7   6 C        2.762     0.299    21.929     7.669
     8   8 O        0.858    -0.345    20.609     6.087
     9   7 N        1.844    -0.245    27.254     7.737
    10   6 C        2.779    -0.067    29.645     8.918
    11   6 C        2.707     0.337    21.269     7.549
    12   8 O        0.860    -0.336    20.451     6.063
    13   7 N        2.735    -0.071    22.609     7.062
    14   6 C        3.692    -0.066    21.962     6.706
    15   1 H        0.924     0.111     1.690     2.033
    16   1 H        0.925     0.106     1.736     2.060
    17   1 H        0.924     0.140     1.459     1.889
    18   1 H        0.926     0.125     1.574     1.962
    19   1 H        0.926     0.135     1.497     1.914
    20   1 H        0.926     0.131     1.525     1.931
    21   1 H        0.926     0.136     1.490     1.909
    22   1 H        0.924     0.081     1.967     2.194
    23   1 H        0.924     0.080     1.974     2.197
    24   1 H        0.924     0.127     1.556     1.950
    25   1 H        0.860     0.229     0.969     1.542

Wiberg/Mayer (AO) data.
largest (>0.10) Wiberg bond orders for each atom

     #   Z sym  total        # sym  WBO       # sym  WBO       # sym  WBO
 ---------------------------------------------------------------------------
     1   6 C    3.909 --     2 N    0.984    16 H    0.964    17 H    0.956
                            15 H    0.954
     2   7 N    3.716 --     3 C    1.405     6 C    1.183     1 C    0.984
     3   6 C    3.884 --     2 N    1.405     4 N    1.284    18 H    0.952
     4   7 N    3.590 --     3 C    1.284     5 C    1.171    25 H    0.919
     5   6 C    3.950 --     6 C    1.334    13 N    1.270     4 N    1.171
     6   6 C    3.806 --     5 C    1.334     2 N    1.183     7 C    0.990
     7   6 C    3.947 --     8 O    1.634     9 N    1.241     6 C    0.990
     8   8 O    1.928 --     7 C    1.634     9 N    0.133
     9   7 N    2.863 --    11 C    1.279     7 C    1.241     8 O    0.133
                            12 O    0.114
    10   6 C    2.938 --    20 H    0.980    19 H    0.979    21 H    0.979
    11   6 C    3.946 --    12 O    1.679     9 N    1.279    13 N    0.907
    12   8 O    1.978 --    11 C    1.679     9 N    0.114
    13   7 N    3.460 --     5 C    1.270    14 C    0.987    11 C    0.907
    14   6 C    3.917 --    13 N    0.987    22 H    0.964    23 H    0.964
                            24 H    0.960
    15   1 H    0.986 --     1 C    0.954
    16   1 H    0.987 --     1 C    0.964
    17   1 H    0.979 --     1 C    0.956
    18   1 H    0.983 --     3 C    0.952
    19   1 H    0.981 --    10 C    0.979
    20   1 H    0.982 --    10 C    0.980
    21   1 H    0.980 --    10 C    0.979
    22   1 H    0.982 --    14 C    0.964
    23   1 H    0.981 --    14 C    0.964
    24   1 H    0.981 --    14 C    0.960
    25   1 H    0.947 --     4 N    0.919
 ---------------------------------------------------------------------------

molecular dipole:
                 x           y           z       tot (Debye)
 q only:        2.031      -1.250      -0.577
   full:        2.476      -1.934      -0.657       8.159

           -------------------------------------------------
          | TOTAL ENERGY              -42.117662118470 Eh   |
          | GRADIENT NORM               0.003563065021 Eh/α |
          | HOMO-LUMO GAP               1.016211798615 eV   |
           -------------------------------------------------

 * finished run on 2024/06/05 at 20:00:15.357
