   * xtb version 6.6.1 (8d0f1dd) compiled by 'conda@1efc2f54142f' on 2023-08-01
          program call               : xtb struc.xyz --opt loose --input .xc1 --gfn2

   ID    Z sym.   atoms
    1    6 C      1, 3, 5-7, 10, 11, 14
    2    7 N      2, 4, 9, 13
    3    8 O      8, 12
    4    1 H      15-25
constraining bond 9 19 to    4.0600000 Å, actual value:    2.0735628 Å

          :  Hamiltonian                  GFN2-xTB          :
 * total energy  :   -35.2022694 Eh     change       -0.6650680E-10 Eh
 * total energy  :   -38.2277922 Eh     change       -0.3025523E+01 Eh
 * total energy  :   -40.4106589 Eh     change       -0.2182867E+01 Eh
 * total energy  :   -41.4731769 Eh     change       -0.1062518E+01 Eh
 * total energy  :   -41.7792173 Eh     change       -0.3060404E+00 Eh
 * total energy  :   -41.8214376 Eh     change       -0.4222034E-01 Eh
 * total energy  :   -41.8575168 Eh     change       -0.3607920E-01 Eh
 * total energy  :   -41.9077245 Eh     change       -0.5020763E-01 Eh
 * total energy  :   -41.9499279 Eh     change       -0.4220343E-01 Eh
 * total energy  :   -41.9762858 Eh     change       -0.2635787E-01 Eh
 * total energy  :   -42.1027510 Eh     change       -0.1631671E-02 Eh
 * total energy  :   -42.1035113 Eh     change       -0.7603265E-03 Eh
 * total energy  :   -42.1040347 Eh     change       -0.5233961E-03 Eh
 * total energy  :   -42.1044750 Eh     change       -0.4403033E-03 Eh
 * total energy  :   -42.1047095 Eh     change       -0.2345505E-03 Eh
 * total energy  :   -42.1049992 Eh     change       -0.2896510E-03 Eh
 * total energy  :   -42.1051303 Eh     change       -0.1310889E-03 Eh
 * total energy  :   -42.1052363 Eh     change       -0.1059982E-03 Eh
 * total energy  :   -42.1052711 Eh     change       -0.3484423E-04 Eh
   *** GEOMETRY OPTIMIZATION CONVERGED AFTER 48 ITERATIONS ***

 final structure:
================
25
 xtb: 6.6.1 (8d0f1dd)
C            3.14184266684140        1.14842540050047       -0.04538054450902
N            2.23134366704536        0.03514874129740       -0.03002788011393
C            2.55003755513544       -1.25591254357629       -0.00294590780507
N            1.42362806762769       -2.00639389925428        0.02157585476292
C            0.35356603163485       -1.16243152413720        0.01016157558046
C            0.85565717790160        0.13281863788041       -0.02011662783553
C            0.00859559266852        1.28601462093516       -0.04359479010755
O            0.33833345236436        2.45026060139777       -0.08646426617747
N           -1.38171586768846        0.91200899119215       -0.01226083891582
C           -2.28056968780608        1.90553518622582       -0.01028278131720
C           -1.89433319478987       -0.41628954857861        0.01467461482274
O           -3.07574069267510       -0.62806342787522        0.03400391858905
N           -0.96304740989266       -1.45212637749845        0.02137059350561
C           -1.43908261235324       -2.82360969584201        0.04034142736946
H            3.62378847494447        1.25766007844191        0.92752244425236
H            3.90983941895912        0.99808130491781       -0.80297536608446
H            2.58134801804354        2.05686125285672       -0.26201719563311
H            3.54607873270834       -1.65111695745054       -0.00148850506075
H           -1.79681109509411        4.94792179230286        0.11716865389578
H           -1.92202975998388        2.92783073619424       -0.00971941272404
H           -3.32413807783223        1.65581503073469       -0.00478364965093
H           -1.12110382097787       -3.32414994639808        0.95520038215856
H           -1.07335209277182       -3.36366495697168       -0.83303553830913
H           -2.52732255065365       -2.79678759873231        0.01193443703257
H            1.39561952074443       -3.01559735696252        0.04231102017394

          :  Hamiltonian                  GFN2-xTB          :
         :: total energy             -42.105271119549 Eh    ::
         :: gradient norm              0.002221374043 Eh/a0 ::
         :: HOMO-LUMO gap              0.084909284376 eV    ::
         :: SCC energy               -42.624723623047 Eh    ::
         :: -> dispersion             -0.022799347187 Eh    ::
         :: repulsion energy           0.519368748640 Eh    ::

    * Orbital Energies and Occupations

         #    Occupation            Energy/Eh            Energy/eV
      -------------------------------------------------------------
         1        2.0000           -0.9111714             -24.7942
       ...           ...                  ...                  ...
        25        2.0000           -0.6715746             -18.2745
        26        2.0000           -0.6690915             -18.2069
        27        2.0000           -0.6629023             -18.0385
        28        1.9999           -0.6331498             -17.2289
        29        1.9999           -0.6299795             -17.1426
        30        1.9999           -0.6278654             -17.0851
        31        1.9998           -0.6189275             -16.8419
        32        1.9997           -0.6143383             -16.7170
        33        1.9997           -0.6134026             -16.6915
        34        1.9982           -0.5852283             -15.9249
        35        1.9942           -0.5667889             -15.4231
        36        1.9902           -0.5585827             -15.1998
        37        0.9892           -0.4740724             -12.9002 (HOMO)
        38        0.8911           -0.4709520             -12.8153 (LUMO)
        39        0.1176           -0.4305038             -11.7146
        40        0.0176           -0.3995879             -10.8733
        41        0.0031           -0.3719864             -10.1223
        42        0.0000           -0.2876132              -7.8264
        43        0.0000           -0.2083663              -5.6699
        44                         -0.1968912              -5.3577
        45                         -0.1511405              -4.1127
        46                         -0.1455384              -3.9603
        47                         -0.0789125              -2.1473
        48                         -0.0539258              -1.4674
       ...                                ...                  ...
        67                          0.5479862              14.9115
      -------------------------------------------------------------
                  HL-Gap            0.0031204 Eh            0.0849 eV

     #   Z          covCN         q      C6AA      α(0)
     1   6 C        3.691    -0.094    22.482     6.785
     2   7 N        2.830     0.077    19.896     6.625
     3   6 C        3.048     0.047    26.897     8.506
     4   7 N        2.791    -0.058    22.362     7.023
     5   6 C        3.041     0.106    25.626     8.303
     6   6 C        3.108    -0.023    28.442     8.738
     7   6 C        2.775     0.254    22.735     7.809
     8   8 O        0.857    -0.363    20.953     6.137
     9   7 N        2.741    -0.030    21.828     6.939
    10   6 C        2.815    -0.021    28.515     8.749
    11   6 C        2.738     0.309    21.758     7.637
    12   8 O        0.859    -0.351    20.722     6.103
    13   7 N        2.737    -0.049    22.194     6.997
    14   6 C        3.698    -0.073    22.078     6.720
    15   1 H        0.924     0.108     1.714     2.047
    16   1 H        0.925     0.104     1.748     2.067
    17   1 H        0.925     0.134     1.505     1.918
    18   1 H        0.926     0.124     1.585     1.968
    19   1 H        0.000     0.011     7.159     4.892
    20   1 H        0.925     0.135     1.497     1.913
    21   1 H        0.926     0.130     1.535     1.937
    22   1 H        0.924     0.084     1.933     2.174
    23   1 H        0.925     0.083     1.945     2.181
    24   1 H        0.925     0.127     1.555     1.950
    25   1 H        0.860     0.229     0.970     1.543

Wiberg/Mayer (AO) data.
largest (>0.10) Wiberg bond orders for each atom

     #   Z sym  total        # sym  WBO       # sym  WBO       # sym  WBO
 ---------------------------------------------------------------------------
     1   6 C    3.917 --     2 N    0.987    16 H    0.964    17 H    0.962
                            15 H    0.956
     2   7 N    3.648 --     3 C    1.379     6 C    1.145     1 C    0.987
     3   6 C    3.821 --     2 N    1.379     4 N    1.266    18 H    0.953
     4   7 N    3.579 --     3 C    1.266     5 C    1.194    25 H    0.919
     5   6 C    3.899 --     6 C    1.327     4 N    1.194    13 N    1.191
     6   6 C    3.909 --     5 C    1.327     2 N    1.145     7 C    1.118
     7   6 C    3.867 --     8 O    1.674     6 C    1.118     9 N    0.984
     8   8 O    1.957 --     7 C    1.674     9 N    0.107
     9   7 N    3.615 --    10 C    1.348    11 C    1.015     7 C    0.984
                             8 O    0.107
    10   6 C    3.325 --     9 N    1.348    21 H    0.959    20 H    0.933
    11   6 C    3.903 --    12 O    1.707    13 N    1.087     9 N    1.015
    12   8 O    2.019 --    11 C    1.707    13 N    0.134
    13   7 N    3.565 --     5 C    1.191    11 C    1.087    14 C    0.970
                            12 O    0.134
    14   6 C    3.923 --    23 H    0.972    22 H    0.971    13 N    0.970
                            24 H    0.965
    15   1 H    0.983 --     1 C    0.956
    16   1 H    0.986 --     1 C    0.964
    17   1 H    0.982 --     1 C    0.962
    18   1 H    0.984 --     3 C    0.953
    19   1 H    0.028
    20   1 H    0.981 --    10 C    0.933
    21   1 H    0.981 --    10 C    0.959
    22   1 H    0.991 --    14 C    0.971
    23   1 H    0.991 --    14 C    0.972
    24   1 H    0.983 --    14 C    0.965
    25   1 H    0.947 --     4 N    0.919
 ---------------------------------------------------------------------------

molecular dipole:
                 x           y           z       tot (Debye)
 q only:        2.332      -2.010       0.028
   full:        2.577      -2.455       0.044       9.047

           -------------------------------------------------
          | TOTAL ENERGY              -42.105271119549 Eh   |
          | GRADIENT NORM               0.002221374043 Eh/α |
          | HOMO-LUMO GAP               0.084909284376 eV   |
           -------------------------------------------------

 * finished run on 2024/06/05 at 19:57:58.944
