   * xtb version 6.6.1 (8d0f1dd) compiled by 'conda@1efc2f54142f' on 2023-08-01
          program call               : xtb struc.xyz --opt loose --input .xc1 --gfn2

   ID    Z sym.   atoms
    1    7 N      1, 17
    2    6 C      2-6, 8, 9, 11-16, 18-23, 25, 26, 28-33
    3    8 O      7, 10, 24, 27
    4    1 H      34-72
constraining bond 17 50 to    2.6866700 Å, actual value:    2.0847679 Å

          :  Hamiltonian                  GFN2-xTB          :
 * total energy  :   -99.4688183 Eh     change       -0.4035485E-08 Eh
 * total energy  :   -99.5760744 Eh     change       -0.1072562E+00 Eh
 * total energy  :   -99.6821062 Eh     change       -0.1060318E+00 Eh
 * total energy  :   -99.2925441 Eh     change        0.3895620E+00 Eh
 * total energy  :   -99.7319603 Eh     change       -0.4394161E+00 Eh
 * total energy  :   -99.7382621 Eh     change       -0.6301812E-02 Eh
 * total energy  :   -99.7610878 Eh     change       -0.2282572E-01 Eh
 * total energy  :   -99.7733479 Eh     change       -0.1226011E-01 Eh
 * total energy  :   -99.7945197 Eh     change       -0.2117178E-01 Eh
 * total energy  :   -99.8124216 Eh     change       -0.1790195E-01 Eh
 * total energy  :   -99.8694622 Eh     change       -0.2207101E-03 Eh
 * total energy  :   -99.8696005 Eh     change       -0.1382530E-03 Eh
 * total energy  :   -99.8696929 Eh     change       -0.9239775E-04 Eh
 * total energy  :   -99.8696893 Eh     change        0.3558797E-05 Eh
 * total energy  :   -99.8698672 Eh     change       -0.1779470E-03 Eh
 * total energy  :   -99.8699312 Eh     change       -0.6399841E-04 Eh
 * total energy  :   -99.8699891 Eh     change       -0.5786548E-04 Eh
 * total energy  :   -99.8700607 Eh     change       -0.7159356E-04 Eh
 * total energy  :   -99.8700904 Eh     change       -0.2967481E-04 Eh
   *** GEOMETRY OPTIMIZATION CONVERGED AFTER 68 ITERATIONS ***

 final structure:
================
72
 xtb: 6.6.1 (8d0f1dd)
N           -0.62467721671654        1.41600193517004        1.56970588753605
C           -1.46948559329689        2.25448716774266        1.15659138619345
C           -2.62030304194479        1.92389978457773        0.24795168308061
C           -3.14795301410443        0.50150581769460        0.35002425350473
C           -4.05273091795208        0.05661663280834       -0.62015648523875
C           -4.62554462409362       -1.20259013777320       -0.56155106481368
O           -5.49436746899418       -1.70777894462879       -1.46246820587090
C           -5.92737870681552       -0.90379077411603       -2.53384699880136
C           -4.30330095331772       -2.06822328850118        0.51871993236621
O           -4.90927457368445       -3.27158871573324        0.49831094639240
C           -4.71525558495270       -4.15553968302846        1.57762083735544
C           -3.41887354877746       -1.61706788923442        1.48509872937767
C           -2.85287970976695       -0.35097458280643        1.40256942001057
C           -2.13366566873478        2.24255312372754       -1.19280326733809
C           -1.36118252700712        1.11746804296450       -1.93407525452798
C           -0.02672186577982        0.77389872256905       -1.40554943308163
N            0.12573860992576       -0.27505103597893       -0.38390372963972
C            1.53677554943745       -0.43186884940176       -0.05863106265398
C            2.49480907770740       -0.78509893036381       -1.13265023695824
C            3.88834830443263       -0.35249450960869       -0.75073371539376
C            4.28552285954014        0.96679994336426       -0.90715348958491
C            5.56000728753588        1.37166166410399       -0.54324350898674
C            6.46421810112423        0.46526054521350       -0.00554324515291
O            7.72173128193712        0.74400590592931        0.38247691587533
C            8.21241954927163        2.05776792793117        0.24830588300423
C            6.06278925392537       -0.88939368994552        0.16423410375551
O            6.99766240442875       -1.70359324084651        0.68987082414026
C            6.69773063884315       -3.06607105212280        0.88039095052321
C            4.78268895943523       -1.27045746603057       -0.21052296316164
C           -0.46774343946402       -1.57497733688677       -0.83012595891211
C           -3.82197046071349        2.86153219381078        0.61209468100780
C           -4.19822217843776        2.68799984194438        2.08372063304288
C           -3.60367235250572        4.34301145998873        0.30702405950301
H           -4.32836123164155        0.71376063654117       -1.42829995915750
H           -6.43841538288481       -0.00326393557160       -2.18005120741047
H           -6.62991367918393       -1.51825220261902       -3.09328539926553
H           -5.09604975039009       -0.62120779120282       -3.18812109218533
H           -5.02918651697714       -3.70687190106682        2.52461574162600
H           -5.34063525173183       -5.01978717143975        1.36306853305276
H           -3.67069007744298       -4.47417448248941        1.65252798454608
H           -3.16904339158203       -2.24171937738745        2.32703557199186
H           -2.18014582737916       -0.03842431925082        2.18312994518770
H           -3.00063367561346        2.48733862271195       -1.80711932614836
H           -1.49561341656080        3.12666968577397       -1.15923764738772
H           -1.99305503790645        0.23399480801096       -2.00255979758855
H           -1.21629221885722        1.49838576675891       -2.95092922373470
H           -1.39749738623347        3.32065361105009        1.38791654436171
H            0.70306023169612        1.55911298437263       -1.30358398925467
H            1.74335044121251       -0.67830858123279        0.96604785305404
H           -0.25560367852848       -0.03260760599346        0.29691166634793
H            2.18477536054754       -0.28919568518927       -2.05721973834631
H            2.51199968022184       -1.86860564366400       -1.33062234142597
H            3.60223091018848        1.68844998977812       -1.32691847513450
H            5.84495101605819        2.40131043047303       -0.68601466045090
H            7.61598860895591        2.76984011615549        0.82602540593865
H            8.23989613332456        2.36948523247660       -0.79997626017113
H            9.22578942132730        2.03149556781017        0.64369403996480
H            7.60027761181970       -3.50870699874475        1.29724469467538
H            5.87062279745057       -3.19938689554121        1.58484634956816
H            6.45639622311042       -3.55977957751167       -0.06595449169166
H            4.47093457205570       -2.29585690027055       -0.09029532012398
H           -0.12504486168882       -1.80747471145661       -1.83504030461123
H           -1.55276963728468       -1.51691003436062       -0.80958800060417
H           -0.14665312789107       -2.35667183504125       -0.14489200406843
H           -4.67166620445954        2.52707787983013        0.00810146336581
H           -3.39506109538093        3.02459575886988        2.73566994850191
H           -4.41277482103736        1.64704943718341        2.31226155535120
H           -5.08399632466608        3.27579545645716        2.31046157155949
H           -2.78606733875816        4.76648046925919        0.88436577104903
H           -3.41150722396120        4.51967410404363       -0.74723755813057
H           -4.50549960359297        4.88885309359571        0.57407477177341
H            0.11318092021007        1.79341093882532        2.15845972107206

          :  Hamiltonian                  GFN2-xTB          :
         :: total energy             -99.870090373011 Eh    ::
         :: gradient norm              0.001585509190 Eh/a0 ::
         :: HOMO-LUMO gap              0.042798953856 eV    ::
         :: SCC energy              -100.681999299901 Eh    ::
         :: -> dispersion             -0.078152966500 Eh    ::
         :: repulsion energy           1.434374148055 Eh    ::

    * Orbital Energies and Occupations

         #    Occupation            Energy/Eh            Energy/eV
      -------------------------------------------------------------
         1        2.0000           -0.8112817             -22.0761
       ...           ...                  ...                  ...
        78        1.9982           -0.5320488             -14.4778
        79        1.9977           -0.5277656             -14.3612
        80        1.9975           -0.5262818             -14.3209
        81        1.9973           -0.5250249             -14.2867
        82        1.9961           -0.5193908             -14.1333
        83        1.9960           -0.5191327             -14.1263
        84        1.9951           -0.5158670             -14.0375
        85        1.9775           -0.4914786             -13.3738
        86        1.9715           -0.4877023             -13.2711
        87        1.9679           -0.4857723             -13.2185
        88        1.8567           -0.4611609             -12.5488
        89        1.8001           -0.4554039             -12.3922
        90        1.2388           -0.4283167             -11.6551 (HOMO)
        91        1.1914           -0.4267439             -11.6123 (LUMO)
        92        0.0190           -0.3470357              -9.4433
        93        0.0032           -0.3185644              -8.6686
        94        0.0024           -0.3143787              -8.5547
        95        0.0019           -0.3107802              -8.4568
        96        0.0017           -0.3090835              -8.4106
        97        0.0000           -0.1928734              -5.2484
        98        0.0000           -0.1858443              -5.0571
        99                         -0.1494129              -4.0657
       100                         -0.0781975              -2.1279
       101                         -0.0729701              -1.9856
       ...                                ...                  ...
       171                          0.5927883              16.1306
      -------------------------------------------------------------
                  HL-Gap            0.0015728 Eh            0.0428 eV

     #   Z          covCN         q      C6AA      α(0)
     1   7 N        1.773    -0.337    29.559     8.051
     2   6 C        2.827     0.104    25.687     8.305
     3   6 C        3.905     0.004    20.452     6.428
     4   6 C        2.970     0.002    27.987     8.678
     5   6 C        2.922    -0.083    30.068     8.992
     6   6 C        2.861     0.127    25.218     8.231
     7   8 O        1.706    -0.231    17.833     5.702
     8   6 C        3.644     0.028    20.442     6.499
     9   6 C        2.864     0.128    25.199     8.228
    10   8 O        1.706    -0.228    17.787     5.694
    11   6 C        3.645     0.026    20.463     6.501
    12   6 C        2.914    -0.075    29.881     8.964
    13   6 C        2.921    -0.057    29.406     8.893
    14   6 C        3.808    -0.062    21.690     6.630
    15   6 C        3.800    -0.068    21.812     6.650
    16   6 C        2.838    -0.090    30.257     9.014
    17   7 N        3.580     0.046    20.432     6.713
    18   6 C        2.849    -0.081    30.007     8.978
    19   6 C        3.808    -0.066    21.759     6.640
    20   6 C        2.972     0.010    27.800     8.649
    21   6 C        2.922    -0.045    29.113     8.848
    22   6 C        2.914    -0.066    29.655     8.930
    23   6 C        2.864     0.134    25.067     8.207
    24   8 O        1.706    -0.219    17.629     5.669
    25   6 C        3.645     0.024    20.503     6.508
    26   6 C        2.863     0.135    25.053     8.204
    27   8 O        1.706    -0.220    17.658     5.674
    28   6 C        3.645     0.025    20.481     6.504
    29   6 C        2.919    -0.077    29.936     8.972
    30   6 C        3.697    -0.084    22.287     6.753
    31   6 C        3.856    -0.015    20.801     6.486
    32   6 C        3.755    -0.110    22.654     6.787
    33   6 C        3.754    -0.112    22.700     6.794
    34   1 H        0.926     0.052     2.299     2.371
    35   1 H        0.924     0.053     2.284     2.363
    36   1 H        0.925     0.081     1.966     2.193
    37   1 H        0.924     0.047     2.353     2.399
    38   1 H        0.924     0.055     2.254     2.348
    39   1 H        0.925     0.081     1.965     2.192
    40   1 H        0.924     0.049     2.328     2.386
    41   1 H        0.926     0.053     2.287     2.365
    42   1 H        0.926     0.059     2.209     2.324
    43   1 H        0.924     0.056     2.244     2.343
    44   1 H        0.924     0.049     2.337     2.390
    45   1 H        0.925     0.053     2.288     2.365
    46   1 H        0.924     0.069     2.096     2.264
    47   1 H        0.924     0.025     2.657     2.549
    48   1 H        0.926     0.050     2.318     2.381
    49   1 H        0.926     0.047     2.355     2.400
    50   1 H        0.863     0.250     0.884     1.472
    51   1 H        0.924     0.071     2.069     2.250
    52   1 H        0.923     0.065     2.147     2.291
    53   1 H        0.926     0.050     2.324     2.384
    54   1 H        0.926     0.059     2.208     2.324
    55   1 H        0.924     0.055     2.255     2.348
    56   1 H        0.924     0.057     2.230     2.336
    57   1 H        0.925     0.083     1.945     2.181
    58   1 H        0.925     0.083     1.949     2.183
    59   1 H        0.924     0.052     2.290     2.366
    60   1 H        0.924     0.055     2.263     2.353
    61   1 H        0.926     0.052     2.292     2.368
    62   1 H        0.925     0.094     1.843     2.123
    63   1 H        0.925     0.085     1.932     2.174
    64   1 H        0.925     0.083     1.952     2.185
    65   1 H        0.924     0.041     2.434     2.440
    66   1 H        0.925     0.039     2.462     2.454
    67   1 H        0.925     0.040     2.453     2.449
    68   1 H        0.925     0.052     2.298     2.371
    69   1 H        0.925     0.040     2.449     2.447
    70   1 H        0.925     0.042     2.425     2.435
    71   1 H        0.925     0.054     2.272     2.357
    72   1 H        0.860     0.153     1.382     1.841

Wiberg/Mayer (AO) data.
largest (>0.10) Wiberg bond orders for each atom

     #   Z sym  total        # sym  WBO       # sym  WBO       # sym  WBO
 ---------------------------------------------------------------------------
     1   7 N    3.007 --     2 C    1.911    72 H    0.946
     2   6 C    3.928 --     1 N    1.911     3 C    1.004    47 H    0.937
     3   6 C    3.979 --     2 C    1.004     4 C    0.984    14 C    0.947
                            31 C    0.934
     4   6 C    3.944 --    13 C    1.416     5 C    1.364     3 C    0.984
     5   6 C    3.960 --     6 C    1.402     4 C    1.364    34 H    0.957
     6   6 C    3.901 --     5 C    1.402     9 C    1.219     7 O    1.097
     7   8 O    2.250 --     6 C    1.097     8 C    0.979
     8   6 C    3.932 --     7 O    0.979    36 H    0.977    37 H    0.973
                            35 H    0.973
     9   6 C    3.897 --    12 C    1.391     6 C    1.219    10 O    1.102
    10   8 O    2.251 --     9 C    1.102    11 C    0.977
    11   6 C    3.930 --    10 O    0.977    39 H    0.977    40 H    0.973
                            38 H    0.973
    12   6 C    3.960 --    13 C    1.404     9 C    1.391    41 H    0.964
    13   6 C    3.949 --     4 C    1.416    12 C    1.404    42 H    0.959
    14   6 C    3.923 --    44 H    0.973    43 H    0.964    15 C    0.950
                             3 C    0.947
    15   6 C    3.976 --    16 C    1.074    45 H    0.962    14 C    0.950
                            46 H    0.948
    16   6 C    3.026 --    15 C    1.074    48 H    0.964    17 N    0.924
    17   7 N    3.744 --    18 C    0.951    30 C    0.931    16 C    0.924
                            50 H    0.880
    18   6 C    3.048 --    19 C    1.057    49 H    0.968    17 N    0.951
    19   6 C    3.970 --    18 C    1.057    20 C    0.992    51 H    0.949
                            52 H    0.920
    20   6 C    3.922 --    21 C    1.398    29 C    1.389    19 C    0.992
    21   6 C    3.936 --    22 C    1.422    20 C    1.398    53 H    0.968
    22   6 C    3.953 --    21 C    1.422    23 C    1.377    54 H    0.963
    23   6 C    3.882 --    22 C    1.377    26 C    1.215    24 O    1.113
    24   8 O    2.249 --    23 C    1.113    25 C    0.976
    25   6 C    3.927 --    57 H    0.977    24 O    0.976    55 H    0.972
                            56 H    0.972
    26   6 C    3.887 --    29 C    1.387    23 C    1.215    27 O    1.109
    27   8 O    2.251 --    26 C    1.109    28 C    0.977
    28   6 C    3.929 --    27 O    0.977    58 H    0.977    59 H    0.972
                            60 H    0.972
    29   6 C    3.955 --    20 C    1.389    26 C    1.387    61 H    0.961
    30   6 C    3.899 --    62 H    0.981    64 H    0.980    63 H    0.972
                            17 N    0.931
    31   6 C    3.978 --    33 C    1.009    32 C    1.009    65 H    0.963
                             3 C    0.934
    32   6 C    3.988 --    31 C    1.009    68 H    0.982    67 H    0.982
                            66 H    0.982
    33   6 C    3.988 --    31 C    1.009    70 H    0.982    71 H    0.980
                            69 H    0.979
    34   1 H    0.996 --     5 C    0.957
    35   1 H    0.993 --     8 C    0.973
    36   1 H    0.993 --     8 C    0.977
    37   1 H    0.993 --     8 C    0.973
    38   1 H    0.992 --    11 C    0.973
    39   1 H    0.993 --    11 C    0.977
    40   1 H    0.993 --    11 C    0.973
    41   1 H    0.995 --    12 C    0.964
    42   1 H    0.995 --    13 C    0.959
    43   1 H    0.991 --    14 C    0.964
    44   1 H    0.997 --    14 C    0.973
    45   1 H    0.995 --    15 C    0.962
    46   1 H    0.974 --    15 C    0.948
    47   1 H    0.991 --     2 C    0.937
    48   1 H    0.992 --    16 C    0.964
    49   1 H    0.994 --    18 C    0.968
    50   1 H    0.925 --    17 N    0.880
    51   1 H    0.983 --    19 C    0.949
    52   1 H    0.934 --    19 C    0.920
    53   1 H    0.997 --    21 C    0.968
    54   1 H    0.994 --    22 C    0.963
    55   1 H    0.991 --    25 C    0.972
    56   1 H    0.990 --    25 C    0.972
    57   1 H    0.992 --    25 C    0.977
    58   1 H    0.992 --    28 C    0.977
    59   1 H    0.991 --    28 C    0.972
    60   1 H    0.991 --    28 C    0.972
    61   1 H    0.996 --    29 C    0.961
    62   1 H    0.990 --    30 C    0.981
    63   1 H    0.989 --    30 C    0.972
    64   1 H    0.993 --    30 C    0.980
    65   1 H    0.996 --    31 C    0.963
    66   1 H    0.997 --    32 C    0.982
    67   1 H    0.997 --    32 C    0.982
    68   1 H    0.995 --    32 C    0.982
    69   1 H    0.997 --    33 C    0.979
    70   1 H    0.997 --    33 C    0.982
    71   1 H    0.995 --    33 C    0.980
    72   1 H    0.973 --     1 N    0.946
 ---------------------------------------------------------------------------

molecular dipole:
                 x           y           z       tot (Debye)
 q only:        0.528      -0.401      -0.607
   full:        0.228       0.125      -0.214       0.855

           -------------------------------------------------
          | TOTAL ENERGY              -99.870090373011 Eh   |
          | GRADIENT NORM               0.001585509190 Eh/α |
          | HOMO-LUMO GAP               0.042798953856 eV   |
           -------------------------------------------------

 * finished run on 2024/04/06 at 11:16:52.358
