   * xtb version 6.6.1 (8d0f1dd) compiled by 'conda@1efc2f54142f' on 2023-08-01
          program call               : xtb xtbopt.xyz --opt crude --input .xc2 --gfn2

   ID    Z sym.   atoms
    1    7 N      1, 17
    2    6 C      2-6, 8, 9, 11-16, 18-23, 25, 26, 28-33
    3    8 O      7, 10, 24, 27
    4    1 H      34-72
########################################################################
[WARNING] Please study the warnings concerning your input carefully
-1- readin_getIntValue: could not parse ''
########################################################################

          :  Hamiltonian                  GFN2-xTB          :
 * total energy  :   -99.2460185 Eh     change       -0.2046363E-11 Eh
 * total energy  :   -99.3011224 Eh     change       -0.5510389E-01 Eh
 * total energy  :   -99.3031745 Eh     change       -0.2052133E-02 Eh
 * total energy  :   -99.3050364 Eh     change       -0.1861843E-02 Eh
 * total energy  :   -99.3059796 Eh     change       -0.9432655E-03 Eh
 * total energy  :   -99.3072325 Eh     change       -0.1252825E-02 Eh
 * total energy  :   -99.3103884 Eh     change       -0.3155941E-02 Eh
 * total energy  :   -99.3136117 Eh     change       -0.3223297E-02 Eh
 * total energy  :   -99.3230226 Eh     change       -0.9410859E-02 Eh
 * total energy  :   -99.3193245 Eh     change        0.3698071E-02 Eh
 * total energy  :   -99.4015370 Eh     change       -0.6143867E-03 Eh
 * total energy  :   -99.4024577 Eh     change       -0.9206803E-03 Eh
 * total energy  :   -99.4030833 Eh     change       -0.6256002E-03 Eh
 * total energy  :   -99.4037857 Eh     change       -0.7024284E-03 Eh
 * total energy  :   -99.4043444 Eh     change       -0.5586450E-03 Eh
 * total energy  :   -99.4050540 Eh     change       -0.7096110E-03 Eh
 * total energy  :   -99.4058539 Eh     change       -0.7999519E-03 Eh
 * total energy  :   -99.4064870 Eh     change       -0.6330846E-03 Eh
 * total energy  :   -99.4069454 Eh     change       -0.4584193E-03 Eh
   *** GEOMETRY OPTIMIZATION CONVERGED AFTER 50 ITERATIONS ***

 final structure:
================
72
 xtb: 6.6.1 (8d0f1dd)
N           -0.44443488711640        1.93859847273698        1.57993470424227
C           -1.68534734834056        2.13084422444805        1.58508293822832
C           -2.56581114881758        1.87691807194615        0.39028837396397
C           -3.21376608231338        0.50598634542087        0.51139505198113
C           -4.06339061968022        0.06319505976960       -0.50583296215578
C           -4.68602373658640       -1.17097318104392       -0.44241872990498
O           -5.51332386627737       -1.67668372852509       -1.38110461681314
C           -5.86043109529150       -0.88555186268420       -2.49311372139264
C           -4.46147532384021       -2.01059768639268        0.68208205019719
O           -5.10712934248662       -3.19418907974986        0.65670671609428
C           -4.99665779120160       -4.05932877491424        1.76260607156916
C           -3.61884214945192       -1.56593981966804        1.68731057907170
C           -3.00171079538171       -0.32434039397099        1.60029440439042
C           -1.77690837911252        1.99583960812674       -0.94635496444578
C           -1.07819421926526        0.73085392495405       -1.46670789544663
C            0.32762754929207        0.54555512728757       -0.86994157727278
N            0.73759816135090       -0.83351138157943       -0.80977361998530
C            1.78518479099403       -1.34967517416150       -1.41393090440140
C            2.77595968245917       -0.63676018282735       -2.25640195009025
C            3.96209532764670       -0.18995429183677       -1.41267707908779
C            4.29959259613471        1.14732143727323       -1.31435012211585
C            5.42185532846938        1.54237008298643       -0.59782334981006
C            6.21134750368328        0.60762623240364        0.05346552872535
O            7.32838791705729        0.87169016081731        0.75751569953760
C            7.83542368375100        2.18749419488229        0.77767257304724
C            5.84633948823018       -0.76619849944688       -0.01032798373282
O            6.65377357011293       -1.60258267573249        0.67193713880913
C            6.38178789363831       -2.98345358985007        0.67067945219723
C            4.73615911219910       -1.14098216476264       -0.74915565035515
C           -0.08485960993417       -1.69281774815269        0.01308800620292
C           -3.71342364268102        2.94125830084500        0.39533479210807
C           -4.64912707970285        2.80863278743777        1.60030171967884
C           -3.17483525904772        4.36784233221287        0.31147721982066
H           -4.23693668638707        0.69623536202040       -1.35972720551745
H           -6.34162827094761        0.04831312400071       -2.18717019399401
H           -6.56700528803810       -1.48304341475483       -3.06591528901521
H           -4.98861083923265       -0.66174056905072       -3.11660876290073
H           -5.37098977099653       -3.58955563920059        2.67692997475704
H           -5.61463739767747       -4.92187952321317        1.52055940060933
H           -3.96292964408214       -4.38596263799217        1.91610055767016
H           -3.43832610193794       -2.17740546940211        2.55623393488172
H           -2.35937446652811       -0.01124837144715        2.40910549830623
H           -2.48222192603798        2.31764139909113       -1.71386649300340
H           -1.03318024495728        2.78400727841952       -0.83254623443719
H           -1.69333394673184       -0.13776859732692       -1.24333720685523
H           -0.99859202130859        0.80234170701261       -2.55266432552993
H           -2.21897759815037        2.49003509209615        2.46732772905404
H            1.05487539883731        1.11746237541345       -1.43897207865991
H            1.97364176991225       -2.39428880722796       -1.21436786823103
H            0.29015388074519        0.95511144127536        0.15403828793599
H            2.34839858281089        0.22840792912023       -2.76126724411795
H            3.14246859409116       -1.32683987561695       -3.01949337831997
H            3.71084385310789        1.89931918725465       -1.81705557441385
H            5.67523857398170        2.58926830240235       -0.56057019650371
H            7.15066396951521        2.87542179732722        1.28371491587173
H            8.03969882077711        2.55084143831205       -0.23441360264770
H            8.76820809687705        2.13232150526233        1.33644828814868
H            7.15616912517649       -3.43303870819834        1.28959336190815
H            5.40066609066265       -3.20008878293776        1.10632095210491
H            6.43666637456379       -3.40447660934452       -0.33812440255690
H            4.47774935795649       -2.18419818834317       -0.83557514932455
H           -0.84374243517836       -2.19771971026366       -0.58866872217819
H           -0.58854825857472       -1.09864310531574        0.77224649798811
H            0.52024152758281       -2.45487630267874        0.50014210712319
H           -4.31871459776042        2.75343217284443       -0.49777234384154
H           -4.17980127412820        3.15055926382939        2.52007495847967
H           -4.97640075756930        1.78082634100668        1.73669027470752
H           -5.53027647578720        3.42589646489163        1.43866223228052
H           -2.46018556724382        4.56591800296320        1.10823967416280
H           -2.68787956911838        4.55691878284820       -0.64210647585522
H           -3.99819520330314        5.07117741938240        0.41270355345233
H            0.04387969362579        2.15697131976968        2.44909749825761

          :  Hamiltonian                  GFN2-xTB          :
         :: total energy             -99.406945445028 Eh    ::
         :: gradient norm              0.009353905189 Eh/a0 ::
         :: HOMO-LUMO gap              1.840510849598 eV    ::
         :: SCC energy              -100.784885957642 Eh    ::
         :: -> dispersion             -0.075248653122 Eh    ::
         :: repulsion energy           1.376168324733 Eh    ::

    * Orbital Energies and Occupations

         #    Occupation            Energy/Eh            Energy/eV
      -------------------------------------------------------------
         1        2.0000           -0.8077047             -21.9788
       ...           ...                  ...                  ...
        78        1.9989           -0.5339969             -14.5308
        79        1.9986           -0.5304294             -14.4337
        80        1.9983           -0.5274433             -14.3525
        81        1.9978           -0.5235535             -14.2466
        82        1.9975           -0.5210391             -14.1782
        83        1.9968           -0.5175400             -14.0830
        84        1.9966           -0.5162886             -14.0489
        85        1.9948           -0.5096601             -13.8686
        86        1.9814           -0.4892746             -13.3138
        87        1.9805           -0.4885975             -13.2954
        88        1.9632           -0.4783789             -13.0174
        89        1.8744           -0.4581848             -12.4678
        90        1.8681           -0.4573645             -12.4455 (HOMO)
        91        0.3302           -0.3897270             -10.6050 (LUMO)
        92        0.0182           -0.3411688              -9.2837
        93        0.0035           -0.3149307              -8.5697
        94        0.0033           -0.3140296              -8.5452
        95        0.0029           -0.3119898              -8.4897
        96        0.0026           -0.3102806              -8.4432
        97        0.0000           -0.1892185              -5.1489
        98        0.0000           -0.1877033              -5.1077
        99                         -0.1263369              -3.4378
       100                         -0.0747359              -2.0337
       101                         -0.0633495              -1.7238
       ...                                ...                  ...
       171                          0.5769694              15.7001
      -------------------------------------------------------------
                  HL-Gap            0.0676375 Eh            1.8405 eV

     #   Z          covCN         q      C6AA      α(0)
     1   7 N        1.774    -0.310    28.861     7.955
     2   6 C        2.824     0.104    25.686     8.304
     3   6 C        3.905     0.004    20.462     6.430
     4   6 C        2.974     0.006    27.891     8.663
     5   6 C        2.921    -0.079    29.981     8.979
     6   6 C        2.862     0.129    25.177     8.225
     7   8 O        1.706    -0.231    17.833     5.702
     8   6 C        3.644     0.028    20.448     6.500
     9   6 C        2.864     0.128    25.190     8.227
    10   8 O        1.706    -0.230    17.809     5.698
    11   6 C        3.645     0.027    20.457     6.500
    12   6 C        2.914    -0.074    29.857     8.960
    13   6 C        2.921    -0.054    29.340     8.883
    14   6 C        3.803    -0.069    21.827     6.651
    15   6 C        3.799    -0.069    21.821     6.651
    16   6 C        3.748    -0.054    21.616     6.631
    17   7 N        2.728     0.047    20.426     6.712
    18   6 C        2.851     0.013    27.712     8.628
    19   6 C        3.808    -0.070    21.826     6.650
    20   6 C        2.970     0.004    27.931     8.669
    21   6 C        2.920    -0.049    29.207     8.862
    22   6 C        2.915    -0.068    29.683     8.934
    23   6 C        2.864     0.133    25.090     8.211
    24   8 O        1.706    -0.224    17.717     5.683
    25   6 C        3.644     0.025    20.492     6.507
    26   6 C        2.863     0.133    25.091     8.211
    27   8 O        1.706    -0.226    17.748     5.688
    28   6 C        3.644     0.027    20.450     6.500
    29   6 C        2.919    -0.081    30.029     8.986
    30   6 C        3.713    -0.080    22.163     6.727
    31   6 C        3.855    -0.015    20.811     6.488
    32   6 C        3.754    -0.110    22.666     6.789
    33   6 C        3.754    -0.112    22.695     6.793
    34   1 H        0.926     0.054     2.268     2.355
    35   1 H        0.924     0.053     2.283     2.363
    36   1 H        0.925     0.081     1.973     2.197
    37   1 H        0.924     0.048     2.351     2.398
    38   1 H        0.924     0.055     2.262     2.352
    39   1 H        0.925     0.081     1.972     2.196
    40   1 H        0.924     0.048     2.344     2.394
    41   1 H        0.926     0.052     2.292     2.367
    42   1 H        0.926     0.036     2.496     2.471
    43   1 H        0.924     0.052     2.293     2.368
    44   1 H        0.925     0.060     2.201     2.320
    45   1 H        0.925     0.054     2.265     2.353
    46   1 H        0.924     0.047     2.355     2.400
    47   1 H        0.924     0.029     2.605     2.524
    48   1 H        0.925     0.073     2.052     2.240
    49   1 H        0.926     0.072     2.068     2.249
    50   1 H        0.923     0.126     1.564     1.956
    51   1 H        0.925     0.069     2.093     2.263
    52   1 H        0.924     0.079     1.985     2.203
    53   1 H        0.926     0.046     2.365     2.405
    54   1 H        0.926     0.060     2.203     2.321
    55   1 H        0.924     0.054     2.272     2.357
    56   1 H        0.924     0.055     2.254     2.348
    57   1 H        0.925     0.082     1.957     2.188
    58   1 H        0.925     0.082     1.960     2.189
    59   1 H        0.924     0.047     2.362     2.403
    60   1 H        0.924     0.053     2.287     2.365
    61   1 H        0.926     0.048     2.350     2.397
    62   1 H        0.924     0.077     2.005     2.215
    63   1 H        0.925     0.092     1.856     2.130
    64   1 H        0.925     0.077     2.007     2.215
    65   1 H        0.924     0.040     2.444     2.445
    66   1 H        0.925     0.041     2.432     2.439
    67   1 H        0.925     0.039     2.463     2.454
    68   1 H        0.925     0.050     2.321     2.382
    69   1 H        0.925     0.038     2.479     2.462
    70   1 H        0.925     0.041     2.431     2.438
    71   1 H        0.925     0.054     2.271     2.357
    72   1 H        0.860     0.152     1.386     1.844

Wiberg/Mayer (AO) data.
largest (>0.10) Wiberg bond orders for each atom

     #   Z sym  total        # sym  WBO       # sym  WBO       # sym  WBO
 ---------------------------------------------------------------------------
     1   7 N    3.046 --     2 C    1.924    72 H    0.945
     2   6 C    3.928 --     1 N    1.924     3 C    1.000    47 H    0.937
     3   6 C    3.982 --     2 C    1.000     4 C    0.967    14 C    0.965
                            31 C    0.940
     4   6 C    3.949 --    13 C    1.417     5 C    1.362     3 C    0.967
     5   6 C    3.963 --     6 C    1.404     4 C    1.362    34 H    0.958
     6   6 C    3.906 --     5 C    1.404     9 C    1.221     7 O    1.097
     7   8 O    2.253 --     6 C    1.097     8 C    0.978
     8   6 C    3.933 --     7 O    0.978    36 H    0.977    35 H    0.974
                            37 H    0.974
     9   6 C    3.902 --    12 C    1.394     6 C    1.221    10 O    1.100
    10   8 O    2.251 --     9 C    1.100    11 C    0.978
    11   6 C    3.932 --    10 O    0.978    39 H    0.977    40 H    0.974
                            38 H    0.974
    12   6 C    3.963 --    13 C    1.403     9 C    1.394    41 H    0.964
    13   6 C    3.955 --     4 C    1.417    12 C    1.403    42 H    0.963
    14   6 C    3.986 --    15 C    1.006    44 H    0.973    43 H    0.971
                             3 C    0.965
    15   6 C    3.981 --    14 C    1.006    16 C    0.983    46 H    0.977
                            45 H    0.964
    16   6 C    3.931 --    17 N    0.988    15 C    0.983    48 H    0.964
                            50 H    0.896
    17   7 N    3.537 --    18 C    1.480    30 C    0.996    16 C    0.988
    18   6 C    3.641 --    17 N    1.480    19 C    1.048    49 H    0.958
    19   6 C    3.987 --    18 C    1.048    51 H    0.959    20 C    0.956
                            52 H    0.948
    20   6 C    3.925 --    21 C    1.421    29 C    1.373    19 C    0.956
    21   6 C    3.953 --    20 C    1.421    22 C    1.404    53 H    0.967
    22   6 C    3.960 --    21 C    1.404    23 C    1.391    54 H    0.963
    23   6 C    3.902 --    22 C    1.391    26 C    1.219    24 O    1.108
    24   8 O    2.256 --    23 C    1.108    25 C    0.975
    25   6 C    3.929 --    57 H    0.977    24 O    0.975    56 H    0.973
                            55 H    0.973
    26   6 C    3.905 --    29 C    1.401    23 C    1.219    27 O    1.103
    27   8 O    2.258 --    26 C    1.103    28 C    0.979
    28   6 C    3.933 --    27 O    0.979    58 H    0.977    59 H    0.974
                            60 H    0.973
    29   6 C    3.961 --    26 C    1.401    20 C    1.373    61 H    0.963
    30   6 C    3.955 --    17 N    0.996    64 H    0.974    63 H    0.969
                            62 H    0.964
    31   6 C    3.983 --    33 C    1.009    32 C    1.009    65 H    0.962
                             3 C    0.940
    32   6 C    3.989 --    31 C    1.009    68 H    0.982    67 H    0.982
                            66 H    0.980
    33   6 C    3.990 --    31 C    1.009    70 H    0.984    69 H    0.982
                            71 H    0.982
    34   1 H    0.996 --     5 C    0.958
    35   1 H    0.994 --     8 C    0.974
    36   1 H    0.993 --     8 C    0.977
    37   1 H    0.994 --     8 C    0.974
    38   1 H    0.993 --    11 C    0.974
    39   1 H    0.993 --    11 C    0.977
    40   1 H    0.993 --    11 C    0.974
    41   1 H    0.996 --    12 C    0.964
    42   1 H    0.998 --    13 C    0.963
    43   1 H    0.996 --    14 C    0.971
    44   1 H    0.995 --    14 C    0.973
    45   1 H    0.997 --    15 C    0.964
    46   1 H    0.996 --    15 C    0.977
    47   1 H    0.990 --     2 C    0.937
    48   1 H    0.994 --    16 C    0.964
    49   1 H    0.994 --    18 C    0.958
    50   1 H    0.975 --    16 C    0.896
    51   1 H    0.992 --    19 C    0.959
    52   1 H    0.985 --    19 C    0.948
    53   1 H    0.997 --    21 C    0.967
    54   1 H    0.994 --    22 C    0.963
    55   1 H    0.992 --    25 C    0.973
    56   1 H    0.992 --    25 C    0.973
    57   1 H    0.992 --    25 C    0.977
    58   1 H    0.993 --    28 C    0.977
    59   1 H    0.994 --    28 C    0.974
    60   1 H    0.993 --    28 C    0.973
    61   1 H    0.996 --    29 C    0.963
    62   1 H    0.985 --    30 C    0.964
    63   1 H    0.989 --    30 C    0.969
    64   1 H    0.991 --    30 C    0.974
    65   1 H    0.996 --    31 C    0.962
    66   1 H    0.997 --    32 C    0.980
    67   1 H    0.998 --    32 C    0.982
    68   1 H    0.996 --    32 C    0.982
    69   1 H    0.997 --    33 C    0.982
    70   1 H    0.997 --    33 C    0.984
    71   1 H    0.995 --    33 C    0.982
    72   1 H    0.972 --     1 N    0.945
 ---------------------------------------------------------------------------

molecular dipole:
                 x           y           z       tot (Debye)
 q only:        0.766      -0.503      -0.669
   full:        0.535      -0.358      -0.373       1.890

           -------------------------------------------------
          | TOTAL ENERGY              -99.406945445028 Eh   |
          | GRADIENT NORM               0.009353905189 Eh/α |
          | HOMO-LUMO GAP               1.840510849598 eV   |
           -------------------------------------------------

 * finished run on 2024/04/06 at 11:17:01.079
