   * xtb version 6.6.1 (8d0f1dd) compiled by 'conda@1efc2f54142f' on 2023-08-01
          program call               : xtb struc.xyz --opt loose --input .xc1 --gfn2

   ID    Z sym.   atoms
    1    7 N      1, 17
    2    6 C      2-6, 8, 9, 11-16, 18-23, 25, 26, 28-33
    3    8 O      7, 10, 24, 27
    4    1 H      34-72
constraining bond 6 63 to    9.7133300 Å, actual value:    3.8622456 Å

          :  Hamiltonian                  GFN2-xTB          :
 * total energy  :  -105.5169336 Eh     change       -0.4035485E-08 Eh
 * total energy  :  -106.9725562 Eh     change       -0.1455623E+01 Eh
 * total energy  :  -108.5283847 Eh     change       -0.1555829E+01 Eh
 * total energy  :  -110.2563228 Eh     change       -0.1727938E+01 Eh
 * total energy  :  -112.2517515 Eh     change       -0.1995429E+01 Eh
 * total energy  :  -112.5423284 Eh     change       -0.2905769E+00 Eh
 * total energy  :  -113.1052583 Eh     change       -0.5629299E+00 Eh
 * total energy  :  -113.2860517 Eh     change       -0.1807934E+00 Eh
 * total energy  :  -113.3419600 Eh     change       -0.5590836E-01 Eh
 * total energy  :  -113.4074958 Eh     change       -0.6553576E-01 Eh
 * total energy  :  -113.6575756 Eh     change       -0.1082265E-03 Eh
 * total energy  :  -113.6576121 Eh     change       -0.3646840E-04 Eh
 * total energy  :  -113.6576677 Eh     change       -0.5558972E-04 Eh
 * total energy  :  -113.6577183 Eh     change       -0.5067146E-04 Eh
 * total energy  :  -113.6577354 Eh     change       -0.1706944E-04 Eh
 * total energy  :  -113.6577875 Eh     change       -0.5213116E-04 Eh
 * total energy  :  -113.6578222 Eh     change       -0.3468931E-04 Eh
 * total energy  :  -113.6578772 Eh     change       -0.5492523E-04 Eh
 * total energy  :  -113.6579028 Eh     change       -0.2563667E-04 Eh
   *** GEOMETRY OPTIMIZATION CONVERGED AFTER 72 ITERATIONS ***

 final structure:
================
72
 xtb: 6.6.1 (8d0f1dd)
N           -2.03846559188274        2.91716678693621        2.21326257674358
C           -1.87668132290854        2.16306736943542        1.23025297118173
C           -2.90341125506181        1.94954353484170        0.15144595405046
C           -3.34700954566971        0.49316280486789        0.13997684643530
C           -4.04125778242336       -0.00826558281932       -0.91731030899495
C           -4.68408912898282       -1.37626604435612       -0.94378583446230
O           -6.09654773507863       -1.11938572349104       -0.54856249272010
C           -7.01753434735123       -1.36714353254830       -1.57804111801665
C           -4.15993214063046       -2.22787027452830        0.20753999714908
O           -4.54370886474793       -3.50013984886850        0.07269616163053
C           -4.29976417099647       -4.42342820802752        1.11385901704567
C           -3.45610790031022       -1.68483983177507        1.25230676564115
C           -3.07791022523063       -0.34340050028991        1.24486707778493
C           -2.20466781093760        2.32991536814920       -1.17993852815942
C           -1.21293202543684        1.29232794499414       -1.73895605045925
C            0.07984929476493        1.21902042534505       -1.01108839190537
N            0.62250309966567        0.12245485721178       -0.49286819986248
C            2.01585389780059        0.22302181981454       -0.06594704617873
C            2.95009275938223       -0.14273619310508       -1.23005334424543
C            4.38957161049339       -0.01750297300341       -0.81520580346720
C            5.07059012045442        1.17859443323205       -0.97878934801022
C            6.39476584201670        1.30095553303258       -0.58861975726938
C            7.06579937898062        0.22655535932183       -0.02086412306483
O            8.34649081498217        0.22847725145925        0.38876466349598
C            9.12173681915354        1.39362439187145        0.22326612736783
C            6.37331728709003       -1.00448111402865        0.15610095794372
O            7.09924658759885       -1.99475332586221        0.70865906742480
C            6.51170752885209       -3.26005628904440        0.89850088304166
C            5.04837496315510       -1.10133058399970       -0.24095515427393
C            0.05240210343082       -1.06768826674708       -0.37089737841923
C           -4.18571041169217        2.81667777484515        0.33554668289974
C           -4.94560477872534        2.43569639769949        1.60353460895562
C           -3.90543546358950        4.31647509689139        0.33061442230910
H           -4.28811422281461        0.60810514132226       -1.76783853174996
H           -6.87791077349708       -0.67823400692306       -2.42262601279463
H           -7.99808764319987       -1.19286710216661       -1.13468958135946
H           -6.96011959776739       -2.40285831018813       -1.93902655304927
H           -4.78359614982221       -4.10611284722373        2.04108492469651
H           -4.73103243508385       -5.36528975011977        0.78023956453891
H           -3.22708427891786       -4.55163487910444        1.28409603715010
H           -3.18311340095101       -2.29219081004896        2.10109433069038
H           -2.57586213719113        0.05819250607283        2.10945443046690
H           -2.97280295620033        2.49590924096766       -1.93481575836292
H           -1.67746362567654        3.27389114991323       -1.03578734926312
H           -1.69326371185518        0.31746539045209       -1.79326355287644
H           -0.98963198507438        1.60782889899947       -2.76539660710435
H           -0.94420723736933        1.60982383301370        1.03245061285010
H            0.68824375953834        2.10871473902525       -0.99957735505180
H            2.18765394867494       -0.45383057161152        0.77249066103332
H            2.22583899276305        1.24214800262903        0.26374778314986
H            2.74749873398550        0.52533168869451       -2.06913321487479
H            2.73768921836129       -1.16515643868013       -1.54734868322023
H            4.57423293642681        2.02554753569615       -1.42731560062081
H            6.90057696812028        2.24075209459645       -0.73697983929123
H            8.70842306662828        2.23364117674073        0.78963878115054
H            9.20693720308932        1.67024045494698       -0.83183512090472
H           10.10741269302343        1.14616331809765        0.61259000115308
H            7.29110536288823       -3.88139021148793        1.33487308174744
H            5.66275239269882       -3.20853873091220        1.58725482829670
H            6.18827515594090       -3.69842709188894       -0.05038966764409
H            4.51720731398228       -2.03249437743331       -0.12089381580619
H           -0.96060217838757       -1.23359713221652       -0.67219937393678
H           -4.66748820553173       -1.66078093921534       -1.49612528265545
H            0.61393723659830       -1.87338398069614        0.05413849893367
H           -4.83179540572263        2.58637150588858       -0.51966094704871
H           -4.33725422908639        2.63776049573160        2.47980316699971
H           -5.22394938893991        1.38458462780203        1.59414508712549
H           -5.85531377595209        3.02638967573815        1.67216871805961
H           -3.24283522623148        4.57758214535667        1.15017610144591
H           -3.46394121737888        4.64454759250745       -0.60645236947441
H           -4.84063599616491        4.85407564242375        0.46432957315904
H           -1.27069521309563        3.01841098833455        2.86953197547256

          :  Hamiltonian                  GFN2-xTB          :
         :: total energy            -113.657902803988 Eh    ::
         :: gradient norm              0.003709012346 Eh/a0 ::
         :: HOMO-LUMO gap              0.724660512417 eV    ::
         :: SCC energy              -100.725706976540 Eh    ::
         :: -> dispersion             -0.075311419232 Eh    ::
         :: repulsion energy           1.826009417518 Eh    ::

    * Orbital Energies and Occupations

         #    Occupation            Energy/Eh            Energy/eV
      -------------------------------------------------------------
         1        2.0000           -0.8277551             -22.5244
       ...           ...                  ...                  ...
        78        1.9976           -0.5291207             -14.3981
        79        1.9970           -0.5256149             -14.3027
        80        1.9966           -0.5233608             -14.2414
        81        1.9963           -0.5220136             -14.2047
        82        1.9939           -0.5141602             -13.9910
        83        1.9920           -0.5098416             -13.8735
        84        1.9911           -0.5082029             -13.8289
        85        1.9822           -0.4971536             -13.5282
        86        1.9736           -0.4908579             -13.3569
        87        1.9539           -0.4819097             -13.1134
        88        1.9086           -0.4706943             -12.8082
        89        1.8109           -0.4583430             -12.4721
        90        1.5749           -0.4433100             -12.0631 (HOMO)
        91        0.8160           -0.4166792             -11.3384 (LUMO)
        92        0.0137           -0.3438157              -9.3557
        93        0.0085           -0.3362600              -9.1501
        94        0.0022           -0.3147813              -8.5656
        95        0.0021           -0.3143475              -8.5538
        96        0.0018           -0.3119619              -8.4889
        97        0.0000           -0.2456765              -6.6852
        98        0.0000           -0.1897428              -5.1632
        99                         -0.1182845              -3.2187
       100                         -0.0930343              -2.5316
       101                         -0.0813447              -2.2135
       ...                                ...                  ...
       171                          2.8573232              77.7517
      -------------------------------------------------------------
                  HL-Gap            0.0266308 Eh            0.7247 eV

     #   Z          covCN         q      C6AA      α(0)
     1   7 N        1.774    -0.265    27.705     7.794
     2   6 C        2.827     0.104    25.700     8.307
     3   6 C        3.908     0.006    20.416     6.422
     4   6 C        2.960     0.016    27.660     8.626
     5   6 C        2.911    -0.063    29.563     8.916
     6   6 C        3.737     0.068    19.520     6.305
     7   8 O        1.690    -0.321    19.359     5.940
     8   6 C        3.635     0.039    20.288     6.482
     9   6 C        2.853     0.139    24.955     8.188
    10   8 O        1.705    -0.212    17.522     5.652
    11   6 C        3.644     0.020    20.570     6.519
    12   6 C        2.898    -0.068    29.701     8.936
    13   6 C        2.922    -0.035    28.868     8.811
    14   6 C        3.811    -0.066    21.749     6.638
    15   6 C        3.801    -0.066    21.757     6.641
    16   6 C        2.862    -0.039    28.956     8.820
    17   7 N        2.731     0.091    19.668     6.587
    18   6 C        3.781    -0.020    20.957     6.521
    19   6 C        3.809    -0.069    21.812     6.648
    20   6 C        2.968     0.003    27.965     8.674
    21   6 C        2.922    -0.047    29.164     8.856
    22   6 C        2.913    -0.066    29.652     8.929
    23   6 C        2.865     0.135    25.054     8.205
    24   8 O        1.706    -0.218    17.620     5.667
    25   6 C        3.645     0.024    20.508     6.509
    26   6 C        2.863     0.134    25.060     8.205
    27   8 O        1.706    -0.221    17.667     5.675
    28   6 C        3.645     0.026    20.474     6.503
    29   6 C        2.919    -0.078    29.956     8.975
    30   6 C        2.811    -0.104    30.597     9.063
    31   6 C        3.854    -0.008    20.679     6.468
    32   6 C        3.755    -0.119    22.828     6.813
    33   6 C        3.755    -0.120    22.848     6.816
    34   1 H        0.926     0.054     2.272     2.357
    35   1 H        0.923     0.039     2.460     2.453
    36   1 H        0.925     0.076     2.021     2.223
    37   1 H        0.923     0.043     2.404     2.425
    38   1 H        0.924     0.067     2.117     2.276
    39   1 H        0.925     0.086     1.918     2.166
    40   1 H        0.924     0.058     2.225     2.333
    41   1 H        0.926     0.056     2.246     2.343
    42   1 H        0.926     0.049     2.328     2.386
    43   1 H        0.925     0.059     2.210     2.325
    44   1 H        0.924     0.054     2.267     2.354
    45   1 H        0.925     0.055     2.259     2.350
    46   1 H        0.924     0.068     2.104     2.268
    47   1 H        0.923     0.011     2.873     2.651
    48   1 H        0.926     0.053     2.283     2.363
    49   1 H        0.924     0.073     2.058     2.243
    50   1 H        0.924     0.070     2.090     2.261
    51   1 H        0.924     0.058     2.221     2.330
    52   1 H        0.924     0.059     2.214     2.327
    53   1 H        0.926     0.049     2.333     2.389
    54   1 H        0.926     0.061     2.190     2.314
    55   1 H        0.924     0.056     2.243     2.342
    56   1 H        0.924     0.058     2.226     2.333
    57   1 H        0.925     0.084     1.940     2.178
    58   1 H        0.925     0.083     1.946     2.182
    59   1 H        0.924     0.051     2.310     2.377
    60   1 H        0.924     0.054     2.267     2.355
    61   1 H        0.926     0.050     2.317     2.380
    62   1 H        0.927     0.056     2.250     2.346
    63   1 H        0.931     0.127     1.559     1.952
    64   1 H        0.927     0.059     2.213     2.326
    65   1 H        0.924     0.042     2.417     2.431
    66   1 H        0.925     0.066     2.126     2.280
    67   1 H        0.925     0.042     2.417     2.431
    68   1 H        0.925     0.054     2.273     2.358
    69   1 H        0.925     0.065     2.138     2.287
    70   1 H        0.925     0.038     2.482     2.463
    71   1 H        0.925     0.056     2.251     2.346
    72   1 H        0.860     0.158     1.348     1.819

Wiberg/Mayer (AO) data.
largest (>0.10) Wiberg bond orders for each atom

     #   Z sym  total        # sym  WBO       # sym  WBO       # sym  WBO
 ---------------------------------------------------------------------------
     1   7 N    3.017 --     2 C    1.954    72 H    0.941
     2   6 C    3.935 --     1 N    1.954     3 C    0.993    47 H    0.917
     3   6 C    3.968 --     2 C    0.993     4 C    0.966    14 C    0.955
                            31 C    0.941
     4   6 C    3.966 --     5 C    1.594    13 C    1.266     3 C    0.966
     5   6 C    3.719 --     4 C    1.594     6 C    1.010    34 H    0.963
     6   6 C    3.934 --     5 C    1.010     9 C    0.978    63 H    0.960
                             7 O    0.890
     7   8 O    1.995 --     8 C    1.000     6 C    0.890
     8   6 C    3.933 --     7 O    1.000    37 H    0.974    35 H    0.974
                            36 H    0.968
     9   6 C    3.703 --    12 C    1.454    10 O    1.155     6 C    0.978
    10   8 O    2.263 --     9 C    1.155    11 C    0.966
    11   6 C    3.924 --    39 H    0.977    40 H    0.972    38 H    0.972
                            10 O    0.966
    12   6 C    3.953 --     9 C    1.454    13 C    1.373    41 H    0.959
    13   6 C    3.684 --    12 C    1.373     4 C    1.266    42 H    0.964
    14   6 C    3.971 --    15 C    0.980    44 H    0.972    43 H    0.967
                             3 C    0.955
    15   6 C    3.983 --    16 C    1.049    14 C    0.980    45 H    0.961
                            46 H    0.941
    16   6 C    3.670 --    17 N    1.346    15 C    1.049    48 H    0.963
                            30 C    0.222
    17   7 N    3.740 --    30 C    1.367    16 C    1.346    18 C    0.965
    18   6 C    3.952 --    19 C    0.976    49 H    0.969    50 H    0.968
                            17 N    0.965
    19   6 C    3.986 --    20 C    1.007    18 C    0.976    51 H    0.971
                            52 H    0.970
    20   6 C    3.938 --    21 C    1.405    29 C    1.383    19 C    1.007
    21   6 C    3.943 --    22 C    1.419    20 C    1.405    53 H    0.968
    22   6 C    3.955 --    21 C    1.419    23 C    1.380    54 H    0.963
    23   6 C    3.888 --    22 C    1.380    26 C    1.215    24 O    1.115
    24   8 O    2.254 --    23 C    1.115    25 C    0.975
    25   6 C    3.926 --    57 H    0.976    24 O    0.975    56 H    0.972
                            55 H    0.972
    26   6 C    3.891 --    29 C    1.391    23 C    1.215    27 O    1.108
    27   8 O    2.253 --    26 C    1.108    28 C    0.977
    28   6 C    3.930 --    27 O    0.977    58 H    0.976    59 H    0.973
                            60 H    0.973
    29   6 C    3.957 --    26 C    1.391    20 C    1.383    61 H    0.962
    30   6 C    3.604 --    17 N    1.367    64 H    0.975    62 H    0.969
                            16 C    0.222
    31   6 C    3.966 --    33 C    1.008    32 C    1.008    65 H    0.957
                             3 C    0.941
    32   6 C    3.972 --    31 C    1.008    68 H    0.979    67 H    0.979
                            66 H    0.972
    33   6 C    3.975 --    31 C    1.008    70 H    0.982    71 H    0.979
                            69 H    0.972
    34   1 H    0.995 --     5 C    0.963
    35   1 H    0.992 --     8 C    0.974
    36   1 H    0.988 --     8 C    0.968
    37   1 H    0.992 --     8 C    0.974
    38   1 H    0.989 --    11 C    0.972
    39   1 H    0.992 --    11 C    0.977
    40   1 H    0.991 --    11 C    0.972
    41   1 H    0.995 --    12 C    0.959
    42   1 H    0.997 --    13 C    0.964
    43   1 H    0.994 --    14 C    0.967
    44   1 H    0.996 --    14 C    0.972
    45   1 H    0.997 --    15 C    0.961
    46   1 H    0.977 --    15 C    0.941
    47   1 H    0.978 --     2 C    0.917
    48   1 H    0.997 --    16 C    0.963
    49   1 H    0.994 --    18 C    0.969
    50   1 H    0.995 --    18 C    0.968
    51   1 H    0.995 --    19 C    0.971
    52   1 H    0.995 --    19 C    0.970
    53   1 H    0.997 --    21 C    0.968
    54   1 H    0.994 --    22 C    0.963
    55   1 H    0.990 --    25 C    0.972
    56   1 H    0.990 --    25 C    0.972
    57   1 H    0.992 --    25 C    0.976
    58   1 H    0.992 --    28 C    0.976
    59   1 H    0.992 --    28 C    0.973
    60   1 H    0.992 --    28 C    0.973
    61   1 H    0.996 --    29 C    0.962
    62   1 H    0.996 --    30 C    0.969
    63   1 H    0.977 --     6 C    0.960
    64   1 H    0.996 --    30 C    0.975
    65   1 H    0.988 --    31 C    0.957
    66   1 H    0.989 --    32 C    0.972
    67   1 H    0.994 --    32 C    0.979
    68   1 H    0.992 --    32 C    0.979
    69   1 H    0.990 --    33 C    0.972
    70   1 H    0.996 --    33 C    0.982
    71   1 H    0.993 --    33 C    0.979
    72   1 H    0.968 --     1 N    0.941
 ---------------------------------------------------------------------------

molecular dipole:
                 x           y           z       tot (Debye)
 q only:        0.988      -0.512      -0.434
   full:        1.186      -0.784      -0.606       3.928

           -------------------------------------------------
          | TOTAL ENERGY             -113.657902803988 Eh   |
          | GRADIENT NORM               0.003709012346 Eh/α |
          | HOMO-LUMO GAP               0.724660512417 eV   |
           -------------------------------------------------

 * finished run on 2024/04/06 at 11:16:11.508
