   * xtb version 6.6.1 (8d0f1dd) compiled by 'conda@1efc2f54142f' on 2023-08-01
          program call               : xtb xtbopt.xyz --opt crude --input .xc2 --gfn2

   ID    Z sym.   atoms
    1    7 N      1, 17
    2    6 C      2-6, 8, 9, 11-16, 18-23, 25, 26, 28-33
    3    8 O      7, 10, 24, 27
    4    1 H      34-72
########################################################################
[WARNING] Please study the warnings concerning your input carefully
-1- readin_getIntValue: could not parse ''
########################################################################

          :  Hamiltonian                  GFN2-xTB          :
 * total energy  :   -98.8985566 Eh     change       -0.8967049E-11 Eh
 * total energy  :   -99.3267806 Eh     change       -0.4282240E+00 Eh
 * total energy  :   -99.3323877 Eh     change       -0.5607133E-02 Eh
 * total energy  :   -99.3338040 Eh     change       -0.1416270E-02 Eh
 * total energy  :   -99.3341065 Eh     change       -0.3025164E-03 Eh
 * total energy  :   -99.3344456 Eh     change       -0.3391200E-03 Eh
 * total energy  :   -99.3345535 Eh     change       -0.1078809E-03 Eh
   *** GEOMETRY OPTIMIZATION CONVERGED AFTER 7 ITERATIONS ***

 final structure:
================
72
 xtb: 6.6.1 (8d0f1dd)
N           -2.02630271887696        2.92314009771482        2.21212302514428
C           -1.86850192704720        2.16835726872008        1.22873730782728
C           -2.90083042635267        1.95525806737029        0.15461822577897
C           -3.35100538319157        0.50007942157173        0.14489769658566
C           -4.07368170454925        0.00847199946181       -0.89816660480568
C           -4.72550530083497       -1.33533242749849       -0.86125513355211
O           -6.11697511248534       -1.13144758712476       -0.53914101956122
C           -7.03364394032708       -1.37729831287013       -1.57501696128752
C           -4.17452359254430       -2.22062962215687        0.22673105511235
O           -4.56090313501912       -3.49074269324308        0.09308070733303
C           -4.29254149535940       -4.41982867702415        1.12449830459130
C           -3.44225428267925       -1.68316648925070        1.25415445091106
C           -3.06249461260046       -0.34129875820967        1.24169273752016
C           -2.20566525360152        2.33108398035979       -1.17978643541565
C           -1.21844526910993        1.28945659926581       -1.73860370265797
C            0.07643807513954        1.21353692002217       -1.01421228336543
N            0.61936021349992        0.11620959229046       -0.49742338069423
C            2.01261726195770        0.21571631489134       -0.06935110454876
C            2.95102155732982       -0.14504281826939       -1.23186379536222
C            4.38929881073871       -0.01744477186940       -0.81263630949390
C            5.06907570617710        1.17974092886635       -0.97306733883499
C            6.39282538856757        1.30320923671451       -0.58135149725263
C            7.06522621444330        0.22900893427927       -0.01507755917780
O            8.34635414981945        0.23113939064894        0.39295740627206
C            9.12051644476356        1.39743043534131        0.22947376672998
C            6.37333966029548       -1.00253305615112        0.16099653346270
O            7.09921836883522       -1.99210809836785        0.71528730588496
C            6.51307048122415       -3.25844498688614        0.90157154330817
C            5.04914200058123       -1.10071644173430       -0.23808921078262
C            0.04699730974204       -1.07314224542060       -0.37550787696665
C           -4.17859612844824        2.82865919372221        0.34400978152897
C           -4.93528765175380        2.45005243649106        1.61468915590867
C           -3.89369227063677        4.32752939705872        0.33888006422879
H           -4.33940170151521        0.62781666179025       -1.74052817261807
H           -6.87618402071063       -0.70237071117597       -2.42415208846071
H           -8.01810809623312       -1.19170471212072       -1.14965589286992
H           -6.97819903490637       -2.41532513374216       -1.92173322592678
H           -4.75737195867396       -4.10984832592412        2.06356647762597
H           -4.72822546482955       -5.36063728078398        0.79459931478874
H           -3.21632817585706       -4.54619433524318        1.27144032939010
H           -3.14676764740815       -2.29417585093673        2.09262612910994
H           -2.53874454999790        0.05568457852406        2.09591647607007
H           -2.97589921768533        2.49579444517480       -1.93273203676189
H           -1.67607281980412        3.27446080622763       -1.03990221622038
H           -1.70348701445218        0.31663299279759       -1.79019074053161
H           -0.99642660867925        1.60232283695284       -2.76627800104021
H           -0.93524642926866        1.61811067641901        1.02598768186450
H            0.68763591362720        2.10148975452649       -1.00620665514831
H            2.18339217325503       -0.46415421434548        0.76693743430903
H            2.22198382244148        1.23379306500436        0.26432971813665
H            2.74957234247187        0.52473340409267       -2.06982239536466
H            2.74217419576097       -1.16706172349555       -1.55268716305488
H            4.57244776652552        2.02705529410612       -1.42061148337708
H            6.89750712373114        2.24394202741198       -0.72794719543465
H            8.70799204662533        2.23533087934131        0.79946271726153
H            9.20363626840669        1.67752830627869       -0.82483595222151
H           10.10709767160306        1.14923113729154        0.61598555334169
H            7.29233066025469       -3.87944770670920        1.33904333459902
H            5.66219030630791       -3.20942603885849        1.58850570361787
H            6.19273792458388       -3.69592201830694       -0.04901364721434
H            4.51904209752975       -2.03266962898369       -0.11939219004964
H           -0.96731965342299       -1.23376599218598       -0.67661108028414
H           -4.67353746470171       -1.84652417908853       -1.83215111631920
H            0.60649860808939       -1.88034740671443        0.04956232436479
H           -4.82858499975025        2.60234736584684       -0.50901116802890
H           -4.32277011679548        2.64899455899171        2.48881278556985
H           -5.21731492112413        1.39993342326162        1.60617418440634
H           -5.84254376840643        3.04398422354294        1.68735415108415
H           -3.22975939652780        4.58766375745221        1.15767323739724
H           -3.45223314744605        4.65436852863549       -0.59865303559024
H           -4.82753998404497        4.86726947233176        0.47326950817856
H           -1.25530856969623        3.02632335638676        2.86428438365455

          :  Hamiltonian                  GFN2-xTB          :
         :: total energy             -99.334553483614 Eh    ::
         :: gradient norm              0.004973235899 Eh/a0 ::
         :: HOMO-LUMO gap              0.728983401229 eV    ::
         :: SCC energy              -100.702698495061 Eh    ::
         :: -> dispersion             -0.075283418683 Eh    ::
         :: repulsion energy           1.367013294805 Eh    ::

    * Orbital Energies and Occupations

         #    Occupation            Energy/Eh            Energy/eV
      -------------------------------------------------------------
         1        2.0000           -0.8269373             -22.5021
       ...           ...                  ...                  ...
        78        1.9977           -0.5292654             -14.4020
        79        1.9971           -0.5257294             -14.3058
        80        1.9966           -0.5231765             -14.2364
        81        1.9963           -0.5217318             -14.1970
        82        1.9941           -0.5142723             -13.9941
        83        1.9922           -0.5099247             -13.8758
        84        1.9914           -0.5085030             -13.8371
        85        1.9807           -0.4955214             -13.4838
        86        1.9737           -0.4905630             -13.3489
        87        1.9551           -0.4819550             -13.1147
        88        1.9103           -0.4706337             -12.8066
        89        1.8121           -0.4580900             -12.4653
        90        1.5751           -0.4429512             -12.0533 (HOMO)
        91        0.8115           -0.4161616             -11.3243 (LUMO)
        92        0.0139           -0.3435857              -9.3494
        93        0.0087           -0.3361606              -9.1474
        94        0.0023           -0.3147582              -8.5650
        95        0.0022           -0.3140840              -8.5467
        96        0.0019           -0.3117039              -8.4819
        97        0.0000           -0.2439568              -6.6384
        98        0.0000           -0.1894929              -5.1564
        99                         -0.1183456              -3.2203
       100                         -0.0851402              -2.3168
       101                         -0.0622579              -1.6941
       ...                                ...                  ...
       171                          0.5737796              15.6133
      -------------------------------------------------------------
                  HL-Gap            0.0267896 Eh            0.7290 eV

     #   Z          covCN         q      C6AA      α(0)
     1   7 N        1.774    -0.266    27.715     7.796
     2   6 C        2.827     0.103    25.703     8.307
     3   6 C        3.908     0.006    20.416     6.422
     4   6 C        2.961     0.016    27.658     8.626
     5   6 C        2.911    -0.059    29.454     8.899
     6   6 C        3.746     0.108    18.880     6.198
     7   8 O        1.699    -0.301    19.005     5.886
     8   6 C        3.636     0.037    20.323     6.486
     9   6 C        2.853     0.144    24.872     8.174
    10   8 O        1.705    -0.210    17.498     5.648
    11   6 C        3.645     0.020    20.570     6.519
    12   6 C        2.899    -0.068    29.702     8.936
    13   6 C        2.921    -0.035    28.871     8.811
    14   6 C        3.811    -0.065    21.745     6.638
    15   6 C        3.801    -0.065    21.751     6.640
    16   6 C        2.862    -0.039    28.956     8.820
    17   7 N        2.731     0.091    19.674     6.588
    18   6 C        3.781    -0.020    20.957     6.521
    19   6 C        3.808    -0.069    21.811     6.648
    20   6 C        2.968     0.002    27.967     8.674
    21   6 C        2.922    -0.047    29.165     8.856
    22   6 C        2.913    -0.066    29.653     8.929
    23   6 C        2.864     0.135    25.054     8.205
    24   8 O        1.706    -0.218    17.622     5.668
    25   6 C        3.645     0.024    20.508     6.509
    26   6 C        2.863     0.134    25.062     8.206
    27   8 O        1.706    -0.221    17.670     5.675
    28   6 C        3.645     0.026    20.472     6.503
    29   6 C        2.919    -0.078    29.956     8.975
    30   6 C        2.811    -0.103    30.594     9.062
    31   6 C        3.854    -0.008    20.678     6.467
    32   6 C        3.755    -0.118    22.816     6.811
    33   6 C        3.755    -0.119    22.844     6.815
    34   1 H        0.926     0.056     2.251     2.346
    35   1 H        0.924     0.041     2.434     2.440
    36   1 H        0.925     0.077     2.011     2.217
    37   1 H        0.924     0.046     2.376     2.411
    38   1 H        0.924     0.067     2.115     2.275
    39   1 H        0.925     0.087     1.910     2.161
    40   1 H        0.924     0.058     2.218     2.329
    41   1 H        0.926     0.056     2.247     2.344
    42   1 H        0.926     0.049     2.331     2.388
    43   1 H        0.925     0.059     2.213     2.326
    44   1 H        0.924     0.054     2.267     2.354
    45   1 H        0.925     0.055     2.264     2.353
    46   1 H        0.924     0.068     2.104     2.268
    47   1 H        0.923     0.011     2.874     2.651
    48   1 H        0.926     0.053     2.283     2.363
    49   1 H        0.924     0.072     2.059     2.244
    50   1 H        0.924     0.070     2.091     2.261
    51   1 H        0.924     0.058     2.221     2.331
    52   1 H        0.924     0.059     2.215     2.327
    53   1 H        0.926     0.049     2.335     2.389
    54   1 H        0.926     0.061     2.192     2.315
    55   1 H        0.924     0.056     2.243     2.342
    56   1 H        0.924     0.058     2.227     2.334
    57   1 H        0.925     0.084     1.940     2.178
    58   1 H        0.925     0.083     1.947     2.182
    59   1 H        0.924     0.051     2.312     2.378
    60   1 H        0.924     0.054     2.268     2.355
    61   1 H        0.926     0.050     2.318     2.381
    62   1 H        0.927     0.056     2.251     2.346
    63   1 H        0.923     0.056     2.243     2.342
    64   1 H        0.927     0.059     2.212     2.326
    65   1 H        0.924     0.042     2.426     2.436
    66   1 H        0.925     0.066     2.127     2.281
    67   1 H        0.925     0.041     2.434     2.440
    68   1 H        0.925     0.053     2.277     2.360
    69   1 H        0.925     0.065     2.139     2.287
    70   1 H        0.925     0.037     2.483     2.464
    71   1 H        0.925     0.056     2.252     2.347
    72   1 H        0.860     0.158     1.349     1.819

Wiberg/Mayer (AO) data.
largest (>0.10) Wiberg bond orders for each atom

     #   Z sym  total        # sym  WBO       # sym  WBO       # sym  WBO
 ---------------------------------------------------------------------------
     1   7 N    3.017 --     2 C    1.954    72 H    0.941
     2   6 C    3.935 --     1 N    1.954     3 C    0.993    47 H    0.916
     3   6 C    3.968 --     2 C    0.993     4 C    0.966    14 C    0.955
                            31 C    0.941
     4   6 C    3.967 --     5 C    1.593    13 C    1.266     3 C    0.966
     5   6 C    3.717 --     4 C    1.593     6 C    1.012    34 H    0.963
     6   6 C    3.950 --     5 C    1.012     9 C    0.981    63 H    0.941
                             7 O    0.927
     7   8 O    2.029 --     8 C    0.993     6 C    0.927
     8   6 C    3.931 --     7 O    0.993    35 H    0.974    37 H    0.973
                            36 H    0.971
     9   6 C    3.705 --    12 C    1.453    10 O    1.157     6 C    0.981
    10   8 O    2.265 --     9 C    1.157    11 C    0.965
    11   6 C    3.923 --    39 H    0.977    40 H    0.973    38 H    0.972
                            10 O    0.965
    12   6 C    3.952 --     9 C    1.453    13 C    1.371    41 H    0.960
    13   6 C    3.682 --    12 C    1.371     4 C    1.266    42 H    0.963
    14   6 C    3.971 --    15 C    0.980    44 H    0.972    43 H    0.968
                             3 C    0.955
    15   6 C    3.983 --    16 C    1.049    14 C    0.980    45 H    0.961
                            46 H    0.941
    16   6 C    3.670 --    17 N    1.346    15 C    1.049    48 H    0.963
                            30 C    0.222
    17   7 N    3.740 --    30 C    1.367    16 C    1.346    18 C    0.965
    18   6 C    3.952 --    19 C    0.976    49 H    0.969    50 H    0.968
                            17 N    0.965
    19   6 C    3.986 --    20 C    1.007    18 C    0.976    51 H    0.971
                            52 H    0.970
    20   6 C    3.938 --    21 C    1.405    29 C    1.383    19 C    1.007
    21   6 C    3.944 --    22 C    1.419    20 C    1.405    53 H    0.968
    22   6 C    3.955 --    21 C    1.419    23 C    1.380    54 H    0.963
    23   6 C    3.888 --    22 C    1.380    26 C    1.215    24 O    1.114
    24   8 O    2.254 --    23 C    1.114    25 C    0.975
    25   6 C    3.926 --    57 H    0.976    24 O    0.975    56 H    0.972
                            55 H    0.972
    26   6 C    3.892 --    29 C    1.392    23 C    1.215    27 O    1.108
    27   8 O    2.253 --    26 C    1.108    28 C    0.978
    28   6 C    3.930 --    27 O    0.978    58 H    0.976    59 H    0.973
                            60 H    0.973
    29   6 C    3.957 --    26 C    1.392    20 C    1.383    61 H    0.962
    30   6 C    3.604 --    17 N    1.367    64 H    0.975    62 H    0.969
                            16 C    0.222
    31   6 C    3.967 --    33 C    1.008    32 C    1.008    65 H    0.957
                             3 C    0.941
    32   6 C    3.973 --    31 C    1.008    68 H    0.980    67 H    0.980
                            66 H    0.972
    33   6 C    3.975 --    31 C    1.008    70 H    0.982    71 H    0.979
                            69 H    0.972
    34   1 H    0.995 --     5 C    0.963
    35   1 H    0.992 --     8 C    0.974
    36   1 H    0.990 --     8 C    0.971
    37   1 H    0.992 --     8 C    0.973
    38   1 H    0.990 --    11 C    0.972
    39   1 H    0.992 --    11 C    0.977
    40   1 H    0.991 --    11 C    0.973
    41   1 H    0.995 --    12 C    0.960
    42   1 H    0.997 --    13 C    0.963
    43   1 H    0.994 --    14 C    0.968
    44   1 H    0.996 --    14 C    0.972
    45   1 H    0.997 --    15 C    0.961
    46   1 H    0.977 --    15 C    0.941
    47   1 H    0.978 --     2 C    0.916
    48   1 H    0.997 --    16 C    0.963
    49   1 H    0.994 --    18 C    0.969
    50   1 H    0.995 --    18 C    0.968
    51   1 H    0.995 --    19 C    0.971
    52   1 H    0.995 --    19 C    0.970
    53   1 H    0.997 --    21 C    0.968
    54   1 H    0.995 --    22 C    0.963
    55   1 H    0.990 --    25 C    0.972
    56   1 H    0.990 --    25 C    0.972
    57   1 H    0.992 --    25 C    0.976
    58   1 H    0.992 --    28 C    0.976
    59   1 H    0.992 --    28 C    0.973
    60   1 H    0.992 --    28 C    0.973
    61   1 H    0.996 --    29 C    0.962
    62   1 H    0.996 --    30 C    0.969
    63   1 H    0.975 --     6 C    0.941
    64   1 H    0.996 --    30 C    0.975
    65   1 H    0.988 --    31 C    0.957
    66   1 H    0.989 --    32 C    0.972
    67   1 H    0.995 --    32 C    0.980
    68   1 H    0.992 --    32 C    0.980
    69   1 H    0.990 --    33 C    0.972
    70   1 H    0.996 --    33 C    0.982
    71   1 H    0.993 --    33 C    0.979
    72   1 H    0.968 --     1 N    0.941
 ---------------------------------------------------------------------------

molecular dipole:
                 x           y           z       tot (Debye)
 q only:        0.904      -0.499      -0.377
   full:        1.124      -0.782      -0.588       3.788

           -------------------------------------------------
          | TOTAL ENERGY              -99.334553483614 Eh   |
          | GRADIENT NORM               0.004973235899 Eh/α |
          | HOMO-LUMO GAP               0.728983401229 eV   |
           -------------------------------------------------

 * finished run on 2024/04/06 at 11:16:12.942
