   * xtb version 6.6.1 (8d0f1dd) compiled by 'conda@1efc2f54142f' on 2023-08-01
          program call               : xtb struc.xyz --opt loose --input .xc1 --gfn2

   ID    Z sym.   atoms
    1    6 C      1, 3, 5-7, 10, 11, 14
    2    7 N      2, 4, 9, 13
    3    8 O      8, 12
    4    1 H      15-25
constraining bond 9 19 to    4.0600000 Å, actual value:    2.0735628 Å

          :  Hamiltonian                  GFN2-xTB          :
 * total energy  :   -28.1566802 Eh     change       -0.6650680E-10 Eh
 * total energy  :   -35.1894039 Eh     change       -0.7032724E+01 Eh
 * total energy  :   -39.3379574 Eh     change       -0.4148553E+01 Eh
 * total energy  :   -41.2655623 Eh     change       -0.1927605E+01 Eh
 * total energy  :   -41.7143100 Eh     change       -0.4487477E+00 Eh
 * total energy  :   -41.7483456 Eh     change       -0.3403552E-01 Eh
 * total energy  :   -41.7844414 Eh     change       -0.3609584E-01 Eh
 * total energy  :   -41.8311408 Eh     change       -0.4669944E-01 Eh
 * total energy  :   -41.8687621 Eh     change       -0.3762130E-01 Eh
 * total energy  :   -41.9031182 Eh     change       -0.3435604E-01 Eh
 * total energy  :   -42.1016566 Eh     change       -0.1405077E-03 Eh
 * total energy  :   -42.1031823 Eh     change       -0.1525681E-02 Eh
 * total energy  :   -42.1036745 Eh     change       -0.4921955E-03 Eh
 * total energy  :   -42.1041999 Eh     change       -0.5253939E-03 Eh
 * total energy  :   -42.1047683 Eh     change       -0.5684524E-03 Eh
 * total energy  :   -42.1049838 Eh     change       -0.2154737E-03 Eh
 * total energy  :   -42.1051750 Eh     change       -0.1911929E-03 Eh
 * total energy  :   -42.1052324 Eh     change       -0.5738322E-04 Eh
 * total energy  :   -42.1052630 Eh     change       -0.3060035E-04 Eh
   *** GEOMETRY OPTIMIZATION CONVERGED AFTER 49 ITERATIONS ***

 final structure:
================
25
 xtb: 6.6.1 (8d0f1dd)
C            3.14878936301429        1.14069722022842       -0.05149562627375
N            2.23554468200080        0.02989734573347       -0.02863839469986
C            2.55054427514799       -1.26193054928993       -0.00373753403639
N            1.42223768036026       -2.00933193273964        0.02172005383575
C            0.35443917516258       -1.16252805504066        0.01316368987793
C            0.86015353306455        0.13131583717082       -0.01655981994934
C            0.01551352121840        1.28629893258083       -0.04199612105280
O            0.34810701936391        2.44933987444961       -0.08457705953279
N           -1.37480681537822        0.91649021370502       -0.01450103396463
C           -2.27154635483821        1.91218891778828       -0.01898288926628
C           -1.89145383422716       -0.41062737145755        0.01395372180417
O           -3.07266390031757       -0.61857138612560        0.03101770727035
N           -0.96275939856187       -1.44884609126001        0.02317980255748
C           -1.44290270329551       -2.81886298556900        0.05080334155303
H            3.64574983059104        1.24375458363577        0.91423162342074
H            3.90482772370195        0.99201564012492       -0.82145701877500
H            2.58766398724961        2.05153973620894       -0.25554850313446
H            3.54581645601942       -1.65903267169677       -0.00439592074935
H           -1.86824543701989        4.94373904143384        0.12047150599033
H           -1.91611187639040        2.93368483716780       -0.01473774235105
H           -3.31518105434868        1.66455436379346       -0.01566938901343
H           -1.11548791223109       -3.31835063383068        0.96282716227488
H           -1.08944358868257       -3.36203145113538       -0.82560691058858
H           -2.53126445879313       -2.78874754264495        0.03480407854055
H            1.39291160128965       -3.01841733163105        0.04290289416290

          :  Hamiltonian                  GFN2-xTB          :
         :: total energy             -42.105262975463 Eh    ::
         :: gradient norm              0.002559656802 Eh/a0 ::
         :: HOMO-LUMO gap              0.086233877164 eV    ::
         :: SCC energy               -42.625582976409 Eh    ::
         :: -> dispersion             -0.022796949456 Eh    ::
         :: repulsion energy           0.520237738470 Eh    ::

    * Orbital Energies and Occupations

         #    Occupation            Energy/Eh            Energy/eV
      -------------------------------------------------------------
         1        2.0000           -0.9112426             -24.7962
       ...           ...                  ...                  ...
        25        2.0000           -0.6718192             -18.2811
        26        2.0000           -0.6691961             -18.2098
        27        2.0000           -0.6629397             -18.0395
        28        1.9999           -0.6330942             -17.2274
        29        1.9999           -0.6300490             -17.1445
        30        1.9999           -0.6279252             -17.0867
        31        1.9998           -0.6190268             -16.8446
        32        1.9997           -0.6144056             -16.7188
        33        1.9997           -0.6134271             -16.6922
        34        1.9982           -0.5854476             -15.9308
        35        1.9941           -0.5667352             -15.4217
        36        1.9902           -0.5586323             -15.2012
        37        0.9903           -0.4741456             -12.9022 (HOMO)
        38        0.8907           -0.4709765             -12.8159 (LUMO)
        39        0.1170           -0.4304653             -11.7136
        40        0.0175           -0.3995421             -10.8721
        41        0.0031           -0.3719633             -10.1216
        42        0.0000           -0.2874756              -7.8226
        43        0.0000           -0.2082714              -5.6674
        44                         -0.1968255              -5.3559
        45                         -0.1510274              -4.1097
        46                         -0.1452714              -3.9530
        47                         -0.0789655              -2.1488
        48                         -0.0540258              -1.4701
       ...                                ...                  ...
        67                          0.5494598              14.9516
      -------------------------------------------------------------
                  HL-Gap            0.0031690 Eh            0.0862 eV

     #   Z          covCN         q      C6AA      α(0)
     1   6 C        3.691    -0.094    22.484     6.785
     2   7 N        2.830     0.077    19.895     6.625
     3   6 C        3.049     0.047    26.897     8.506
     4   7 N        2.791    -0.058    22.361     7.023
     5   6 C        3.041     0.106    25.625     8.303
     6   6 C        3.108    -0.024    28.443     8.738
     7   6 C        2.775     0.254    22.730     7.809
     8   8 O        0.857    -0.363    20.954     6.137
     9   7 N        2.741    -0.030    21.827     6.939
    10   6 C        2.816    -0.021    28.515     8.749
    11   6 C        2.738     0.309    21.754     7.636
    12   8 O        0.859    -0.350    20.711     6.102
    13   7 N        2.737    -0.049    22.197     6.997
    14   6 C        3.698    -0.074    22.079     6.720
    15   1 H        0.924     0.108     1.714     2.048
    16   1 H        0.925     0.104     1.747     2.067
    17   1 H        0.925     0.134     1.504     1.918
    18   1 H        0.926     0.124     1.585     1.968
    19   1 H        0.000     0.010     7.191     4.903
    20   1 H        0.925     0.135     1.496     1.913
    21   1 H        0.926     0.130     1.538     1.939
    22   1 H        0.925     0.084     1.936     2.176
    23   1 H        0.925     0.084     1.942     2.179
    24   1 H        0.925     0.127     1.555     1.950
    25   1 H        0.860     0.229     0.970     1.543

Wiberg/Mayer (AO) data.
largest (>0.10) Wiberg bond orders for each atom

     #   Z sym  total        # sym  WBO       # sym  WBO       # sym  WBO
 ---------------------------------------------------------------------------
     1   6 C    3.917 --     2 N    0.987    16 H    0.964    17 H    0.962
                            15 H    0.956
     2   7 N    3.649 --     3 C    1.379     6 C    1.145     1 C    0.987
     3   6 C    3.821 --     2 N    1.379     4 N    1.266    18 H    0.953
     4   7 N    3.579 --     3 C    1.266     5 C    1.194    25 H    0.919
     5   6 C    3.899 --     6 C    1.328     4 N    1.194    13 N    1.191
     6   6 C    3.909 --     5 C    1.328     2 N    1.145     7 C    1.117
     7   6 C    3.868 --     8 O    1.674     6 C    1.117     9 N    0.985
     8   8 O    1.957 --     7 C    1.674     9 N    0.107
     9   7 N    3.615 --    10 C    1.347    11 C    1.014     7 C    0.985
                             8 O    0.107
    10   6 C    3.324 --     9 N    1.347    21 H    0.959    20 H    0.933
    11   6 C    3.903 --    12 O    1.708    13 N    1.087     9 N    1.014
    12   8 O    2.020 --    11 C    1.708    13 N    0.135
    13   7 N    3.565 --     5 C    1.191    11 C    1.087    14 C    0.970
                            12 O    0.135
    14   6 C    3.923 --    23 H    0.972    22 H    0.971    13 N    0.970
                            24 H    0.965
    15   1 H    0.983 --     1 C    0.956
    16   1 H    0.986 --     1 C    0.964
    17   1 H    0.982 --     1 C    0.962
    18   1 H    0.984 --     3 C    0.953
    19   1 H    0.029
    20   1 H    0.981 --    10 C    0.933
    21   1 H    0.981 --    10 C    0.959
    22   1 H    0.991 --    14 C    0.971
    23   1 H    0.991 --    14 C    0.972
    24   1 H    0.983 --    14 C    0.965
    25   1 H    0.947 --     4 N    0.919
 ---------------------------------------------------------------------------

molecular dipole:
                 x           y           z       tot (Debye)
 q only:        2.332      -2.023       0.027
   full:        2.576      -2.468       0.045       9.069

           -------------------------------------------------
          | TOTAL ENERGY              -42.105262975463 Eh   |
          | GRADIENT NORM               0.002559656802 Eh/α |
          | HOMO-LUMO GAP               0.086233877164 eV   |
           -------------------------------------------------

 * finished run on 2024/06/05 at 19:59:17.704
