   * xtb version 6.6.1 (8d0f1dd) compiled by 'conda@1efc2f54142f' on 2023-08-01
          program call               : xtb struc.xyz --opt loose --input .xc1 --gfn2

   ID    Z sym.   atoms
    1    7 N      1, 17
    2    6 C      2-6, 8, 9, 11-16, 18-23, 25, 26, 28-33
    3    8 O      7, 10, 24, 27
    4    1 H      34-72
constraining bond 16 43 to    5.1400000 Å, actual value:    3.4405812 Å

          :  Hamiltonian                  GFN2-xTB          :
 * total energy  :   -98.8884649 Eh     change       -0.4035485E-08 Eh
 * total energy  :   -99.0780119 Eh     change       -0.1895470E+00 Eh
 * total energy  :   -99.1694541 Eh     change       -0.9144221E-01 Eh
 * total energy  :   -99.2076602 Eh     change       -0.3820608E-01 Eh
 * total energy  :   -99.2213653 Eh     change       -0.1370514E-01 Eh
 * total energy  :   -99.2277557 Eh     change       -0.6390365E-02 Eh
 * total energy  :   -99.2322683 Eh     change       -0.4512641E-02 Eh
 * total energy  :   -99.2362323 Eh     change       -0.3963978E-02 Eh
 * total energy  :   -99.2405116 Eh     change       -0.4279251E-02 Eh
 * total energy  :   -99.2455868 Eh     change       -0.5075259E-02 Eh
 * total energy  :   -99.3144855 Eh     change       -0.2997257E-03 Eh
 * total energy  :   -99.3147299 Eh     change       -0.2444751E-03 Eh
 * total energy  :   -99.3149126 Eh     change       -0.1826437E-03 Eh
 * total energy  :   -99.3150961 Eh     change       -0.1835533E-03 Eh
 * total energy  :   -99.3151917 Eh     change       -0.9554817E-04 Eh
 * total energy  :   -99.3152844 Eh     change       -0.9269088E-04 Eh
 * total energy  :   -99.3153572 Eh     change       -0.7280733E-04 Eh
 * total energy  :   -99.3154087 Eh     change       -0.5149573E-04 Eh
 * total energy  :   -99.3154481 Eh     change       -0.3937478E-04 Eh
   *** GEOMETRY OPTIMIZATION CONVERGED AFTER 59 ITERATIONS ***

 final structure:
================
72
 xtb: 6.6.1 (8d0f1dd)
N           -1.44658905128297        2.69506178805851        2.35138310779926
C           -1.42241163311657        1.79557231453330        1.48231128957114
C           -2.47511796948979        1.66775345669272        0.37736186915663
C           -3.11660626181253        0.28940963519526        0.46241573496915
C           -4.00871395425289       -0.11381798897810       -0.53350891718897
C           -4.62254156081848       -1.35525842146050       -0.49479869392098
O           -5.47824996781378       -1.82768060722658       -1.42370978355461
C           -5.82607103207813       -1.01536169725516       -2.52000960385586
C           -4.35693997371238       -2.23400082377286        0.59020800435157
O           -4.98967346662594       -3.42118161663752        0.54436654129928
C           -4.79213718394048       -4.34432266496799        1.59058536109427
C           -3.49985258802200       -1.80923083380100        1.59396366377749
C           -2.89000659350375       -0.56412625949866        1.53162759022389
C           -1.66755283773779        1.87575612698886       -0.91564402002098
C           -1.62732931242217        0.94186784952915       -2.09455216518258
C           -0.38703080291351        1.12660722791075       -1.27986427953603
N            0.17029299690318        0.09165072786611       -0.46646627740164
C            1.57317006479887        0.25501609657979       -0.16336938331201
C            2.52807989712583       -0.11377136757113       -1.32274444882471
C            3.95221381211579        0.06770873097479       -0.89567573118657
C            4.60806684224850        1.27643704357710       -1.08108726262289
C            5.91887036780364        1.44498031568983       -0.66557780292593
C            6.60463714299761        0.40805924951447       -0.04633722011723
O            7.87623348265365        0.45806470372301        0.38917484466259
C            8.62608402388384        1.63514691277604        0.19495990334323
C            5.93760867718080       -0.83269267850068        0.15927087461502
O            6.66865932442764       -1.78637304386869        0.76791961189704
C            6.09790681734533       -3.05431074885807        0.98857150111227
C            4.62662540629918       -0.97640870924629       -0.26748881259232
C           -0.24601864351643       -1.26886197576656       -0.72363803381496
C           -3.52414817636647        2.74337477792799        0.60056139774454
C           -4.52042689790520        2.46079600945642        1.66900786205055
C           -3.14195310666360        4.17309851375802        0.46608323436672
H           -4.23469264198549        0.56311916600423       -1.33947946055188
H           -6.32286553372291       -0.09575386954090       -2.19679729193020
H           -6.51811350145457       -1.60973091758016       -3.11320269250943
H           -4.95189128907876       -0.76405404681631       -3.12943846130540
H           -5.13938712869626       -3.94465258649846        2.54803619617345
H           -5.38742425483910       -5.21620536963690        1.32680950129336
H           -3.74037168079667       -4.63482606280577        1.67476969322021
H           -3.30132204498445       -2.44255746844223        2.44275138498827
H           -2.24623278805844       -0.26798025709200        2.34422510942952
H           -5.22800234092117        2.83156973843759       -1.43866774471800
H           -1.61253528620206        2.92438662404152       -1.17545306184328
H           -2.13398974786114       -0.00463135888202       -2.02726470330596
H           -1.66003119260856        1.38129363166307       -3.08094578049845
H           -0.64222394164523        1.03615294514676        1.37958456290357
H            0.37767630231672        1.76578130716387       -1.71194602832795
H            1.80861744123745       -0.37714300328846        0.69796310811633
H            1.74662925778911        1.29519947079856        0.12471752807682
H            2.31017632770085        0.52171114583505       -2.18281777381837
H            2.35461987424960       -1.15224405762727       -1.60752907279437
H            4.10070156835335        2.09647932796558       -1.56605558457955
H            6.40436023750000        2.39256163921587       -0.83249338215851
H            8.18582265095053        2.48327984220823        0.72803340855352
H            8.71899596976357        1.87928604138988       -0.86749880807883
H            9.61202491820118        1.42416826825285        0.60459207087910
H            6.87276222026943       -3.64412070807512        1.47408201405298
H            5.22532792612232       -2.99203842624466        1.64656332008748
H            5.81341180199966       -3.53483055778133        0.04739557514652
H            4.11448319941517       -1.91533547104647       -0.12677365684336
H           -0.09534362252889       -1.56831600312137       -1.76791236354329
H           -1.30010811371020       -1.38806598411799       -0.47476471691177
H            0.32691934880577       -1.93565810943203       -0.08227427449731
H           -4.64295609350035        2.73229950879230       -0.81160251018368
H           -4.00143905766680        2.52133869089319        2.63197514522342
H           -4.95510134687530        1.46763705680455        1.58975774362351
H           -5.31466080582814        3.20266454124148        1.67583872593311
H           -2.37522708160386        4.37999057942281        1.22202122079610
H           -2.73183997009538        4.43415685196046       -0.50642246762849
H           -3.99416406273280        4.81763895034134        0.66383978244185
H           -0.68516776206534        2.71260640960760        3.02234863171347

          :  Hamiltonian                  GFN2-xTB          :
         :: total energy             -99.315448058592 Eh    ::
         :: gradient norm              0.001717825367 Eh/a0 ::
         :: HOMO-LUMO gap              1.120112449543 eV    ::
         :: SCC energy              -100.693980182999 Eh    ::
         :: -> dispersion             -0.078024101838 Eh    ::
         :: repulsion energy           1.376936959835 Eh    ::

    * Orbital Energies and Occupations

         #    Occupation            Energy/Eh            Energy/eV
      -------------------------------------------------------------
         1        2.0000           -0.8117321             -22.0884
       ...           ...                  ...                  ...
        78        1.9984           -0.5340825             -14.5331
        79        1.9983           -0.5328827             -14.5005
        80        1.9979           -0.5300112             -14.4223
        81        1.9974           -0.5264303             -14.3249
        82        1.9973           -0.5256675             -14.3041
        83        1.9965           -0.5215335             -14.1916
        84        1.9956           -0.5180097             -14.0958
        85        1.9796           -0.4936447             -13.4328
        86        1.9744           -0.4899517             -13.3323
        87        1.9687           -0.4867366             -13.2448
        88        1.8621           -0.4623917             -12.5823
        89        1.8461           -0.4605166             -12.5313
        90        1.7285           -0.4504826             -12.2583 (HOMO)
        91        0.6422           -0.4093192             -11.1381 (LUMO)
        92        0.0178           -0.3465824              -9.4310
        93        0.0032           -0.3194636              -8.6930
        94        0.0027           -0.3164490              -8.6110
        95        0.0019           -0.3106004              -8.4519
        96        0.0016           -0.3082886              -8.3890
        97        0.0000           -0.1934968              -5.2653
        98        0.0000           -0.1859211              -5.0592
        99        0.0000           -0.1743452              -4.7442
       100                         -0.1050119              -2.8575
       101                         -0.0775738              -2.1109
       ...                                ...                  ...
       171                          0.5764120              15.6850
      -------------------------------------------------------------
                  HL-Gap            0.0411634 Eh            1.1201 eV

     #   Z          covCN         q      C6AA      α(0)
     1   7 N        1.773    -0.289    28.301     7.878
     2   6 C        2.835     0.096    25.872     8.335
     3   6 C        3.909     0.014    20.281     6.401
     4   6 C        2.972     0.002    27.975     8.676
     5   6 C        2.920    -0.082    30.053     8.990
     6   6 C        2.862     0.129    25.168     8.223
     7   8 O        1.706    -0.228    17.782     5.693
     8   6 C        3.644     0.027    20.462     6.502
     9   6 C        2.864     0.131    25.132     8.217
    10   8 O        1.706    -0.225    17.726     5.684
    11   6 C        3.646     0.026    20.478     6.503
    12   6 C        2.914    -0.071    29.778     8.948
    13   6 C        2.921    -0.049    29.217     8.864
    14   6 C        3.869    -0.036    21.172     6.543
    15   6 C        3.806    -0.077    21.973     6.673
    16   6 C        3.805     0.035    19.987     6.364
    17   7 N        2.725    -0.119    23.599     7.215
    18   6 C        3.756     0.001    20.619     6.474
    19   6 C        3.807    -0.071    21.859     6.656
    20   6 C        2.968     0.007    27.873     8.660
    21   6 C        2.922    -0.045    29.122     8.850
    22   6 C        2.913    -0.066    29.643     8.928
    23   6 C        2.864     0.134    25.062     8.206
    24   8 O        1.706    -0.218    17.620     5.667
    25   6 C        3.645     0.024    20.501     6.507
    26   6 C        2.863     0.134    25.059     8.205
    27   8 O        1.706    -0.221    17.671     5.676
    28   6 C        3.645     0.026    20.464     6.501
    29   6 C        2.920    -0.077    29.932     8.972
    30   6 C        3.697    -0.046    21.566     6.642
    31   6 C        2.946     0.040    27.105     8.539
    32   6 C        3.757    -0.121    22.871     6.819
    33   6 C        3.756    -0.125    22.954     6.831
    34   1 H        0.926     0.057     2.236     2.339
    35   1 H        0.924     0.053     2.289     2.366
    36   1 H        0.925     0.083     1.948     2.183
    37   1 H        0.924     0.049     2.337     2.391
    38   1 H        0.924     0.056     2.250     2.346
    39   1 H        0.925     0.082     1.954     2.186
    40   1 H        0.924     0.052     2.292     2.368
    41   1 H        0.926     0.057     2.239     2.340
    42   1 H        0.926     0.044     2.393     2.419
    43   1 H        0.442     0.010     5.208     4.001
    44   1 H        0.925     0.050     2.314     2.379
    45   1 H        0.926     0.060     2.199     2.319
    46   1 H        0.926     0.052     2.294     2.369
    47   1 H        0.924     0.046     2.369     2.407
    48   1 H        0.925     0.040     2.454     2.450
    49   1 H        0.924     0.050     2.326     2.385
    50   1 H        0.924     0.047     2.356     2.400
    51   1 H        0.924     0.048     2.347     2.396
    52   1 H        0.924     0.053     2.287     2.365
    53   1 H        0.926     0.048     2.340     2.392
    54   1 H        0.926     0.059     2.207     2.323
    55   1 H        0.924     0.056     2.244     2.343
    56   1 H        0.924     0.058     2.227     2.334
    57   1 H        0.925     0.083     1.945     2.181
    58   1 H        0.925     0.083     1.953     2.186
    59   1 H        0.924     0.051     2.308     2.376
    60   1 H        0.924     0.055     2.262     2.352
    61   1 H        0.926     0.051     2.312     2.378
    62   1 H        0.924     0.045     2.379     2.412
    63   1 H        0.925     0.055     2.254     2.348
    64   1 H        0.925     0.056     2.246     2.344
    65   1 H        0.444     0.028     4.686     3.792
    66   1 H        0.924     0.096     1.824     2.112
    67   1 H        0.925     0.060     2.199     2.319
    68   1 H        0.925     0.069     2.095     2.264
    69   1 H        0.924     0.107     1.726     2.055
    70   1 H        0.925     0.060     2.200     2.320
    71   1 H        0.925     0.071     2.077     2.254
    72   1 H        0.860     0.164     1.309     1.792

Wiberg/Mayer (AO) data.
largest (>0.10) Wiberg bond orders for each atom

     #   Z sym  total        # sym  WBO       # sym  WBO       # sym  WBO
 ---------------------------------------------------------------------------
     1   7 N    3.024 --     2 C    1.958    72 H    0.937
     2   6 C    3.896 --     1 N    1.958     3 C    0.930    47 H    0.920
     3   6 C    3.973 --    31 C    0.996     4 C    0.968    14 C    0.950
                             2 C    0.930
     4   6 C    3.944 --    13 C    1.413     5 C    1.369     3 C    0.968
     5   6 C    3.961 --     6 C    1.396     4 C    1.369    34 H    0.957
     6   6 C    3.902 --     5 C    1.396     9 C    1.221     7 O    1.101
     7   8 O    2.254 --     6 C    1.101     8 C    0.978
     8   6 C    3.931 --     7 O    0.978    36 H    0.976    37 H    0.973
                            35 H    0.973
     9   6 C    3.901 --    12 C    1.387     6 C    1.221    10 O    1.108
    10   8 O    2.256 --     9 C    1.108    11 C    0.976
    11   6 C    3.929 --    39 H    0.977    10 O    0.976    40 H    0.973
                            38 H    0.973
    12   6 C    3.961 --    13 C    1.410     9 C    1.387    41 H    0.963
    13   6 C    3.954 --     4 C    1.413    12 C    1.410    42 H    0.961
    14   6 C    3.898 --    44 H    0.961    15 C    0.960     3 C    0.950
                            16 C    0.917
    15   6 C    3.931 --    46 H    0.975    45 H    0.965    16 C    0.965
                            14 C    0.960
    16   6 C    3.918 --    17 N    1.021    15 C    0.965    48 H    0.960
                            14 C    0.917
    17   7 N    3.151 --    16 C    1.021    18 C    1.008    30 C    1.008
    18   6 C    3.966 --    17 N    1.008    50 H    0.971    49 H    0.968
                            19 C    0.959
    19   6 C    3.971 --    20 C    1.017    51 H    0.970    52 H    0.969
                            18 C    0.959
    20   6 C    3.931 --    21 C    1.394    29 C    1.380    19 C    1.017
    21   6 C    3.932 --    22 C    1.424    20 C    1.394    53 H    0.968
    22   6 C    3.952 --    21 C    1.424    23 C    1.376    54 H    0.963
    23   6 C    3.876 --    22 C    1.376    26 C    1.213    24 O    1.114
    24   8 O    2.247 --    23 C    1.114    25 C    0.975
    25   6 C    3.926 --    57 H    0.976    24 O    0.975    56 H    0.972
                            55 H    0.972
    26   6 C    3.885 --    29 C    1.392    23 C    1.213    27 O    1.107
    27   8 O    2.249 --    26 C    1.107    28 C    0.978
    28   6 C    3.930 --    27 O    0.978    58 H    0.977    59 H    0.973
                            60 H    0.972
    29   6 C    3.952 --    26 C    1.392    20 C    1.380    61 H    0.962
    30   6 C    3.968 --    17 N    1.008    64 H    0.980    63 H    0.970
                            62 H    0.967
    31   6 C    3.402 --    33 C    1.069    32 C    1.066     3 C    0.996
                            65 H    0.153
    32   6 C    3.974 --    31 C    1.066    68 H    0.973    67 H    0.969
                            66 H    0.917
    33   6 C    3.971 --    31 C    1.069    71 H    0.975    70 H    0.962
                            69 H    0.906
    34   1 H    0.995 --     5 C    0.957
    35   1 H    0.993 --     8 C    0.973
    36   1 H    0.992 --     8 C    0.976
    37   1 H    0.993 --     8 C    0.973
    38   1 H    0.992 --    11 C    0.973
    39   1 H    0.992 --    11 C    0.977
    40   1 H    0.993 --    11 C    0.973
    41   1 H    0.995 --    12 C    0.963
    42   1 H    0.997 --    13 C    0.961
    43   1 H    0.883 --    65 H    0.835
    44   1 H    0.996 --    14 C    0.961
    45   1 H    0.996 --    15 C    0.965
    46   1 H    0.993 --    15 C    0.975
    47   1 H    0.979 --     2 C    0.920
    48   1 H    0.991 --    16 C    0.960
    49   1 H    0.993 --    18 C    0.968
    50   1 H    0.996 --    18 C    0.971
    51   1 H    0.995 --    19 C    0.970
    52   1 H    0.995 --    19 C    0.969
    53   1 H    0.997 --    21 C    0.968
    54   1 H    0.995 --    22 C    0.963
    55   1 H    0.990 --    25 C    0.972
    56   1 H    0.990 --    25 C    0.972
    57   1 H    0.992 --    25 C    0.976
    58   1 H    0.992 --    28 C    0.977
    59   1 H    0.992 --    28 C    0.973
    60   1 H    0.991 --    28 C    0.972
    61   1 H    0.996 --    29 C    0.962
    62   1 H    0.981 --    30 C    0.967
    63   1 H    0.990 --    30 C    0.970
    64   1 H    0.996 --    30 C    0.980
    65   1 H    0.999 --    43 H    0.835    31 C    0.153
    66   1 H    0.950 --    32 C    0.917
    67   1 H    0.990 --    32 C    0.969
    68   1 H    0.990 --    32 C    0.973
    69   1 H    0.949 --    33 C    0.906
    70   1 H    0.987 --    33 C    0.962
    71   1 H    0.991 --    33 C    0.975
    72   1 H    0.965 --     1 N    0.937
 ---------------------------------------------------------------------------

molecular dipole:
                 x           y           z       tot (Debye)
 q only:       -0.505       0.884       0.131
   full:       -0.108       0.736      -0.002       1.890

           -------------------------------------------------
          | TOTAL ENERGY              -99.315448058592 Eh   |
          | GRADIENT NORM               0.001717825367 Eh/α |
          | HOMO-LUMO GAP               1.120112449543 eV   |
           -------------------------------------------------

 * finished run on 2024/04/06 at 11:13:25.352
