   * xtb version 6.6.1 (8d0f1dd) compiled by 'conda@1efc2f54142f' on 2023-08-01
          program call               : xtb struc.xyz --opt loose --input .xc1 --gfn2

   ID    Z sym.   atoms
    1    7 N      1, 17
    2    6 C      2-6, 8, 9, 11-16, 18-23, 25, 26, 28-33
    3    8 O      7, 10, 24, 27
    4    1 H      34-72
constraining bond 6 37 to    3.7133300 Å, actual value:    2.7417552 Å

          :  Hamiltonian                  GFN2-xTB          :
 * total energy  :   -99.5726776 Eh     change       -0.4035485E-08 Eh
 * total energy  :   -99.8118179 Eh     change       -0.2391403E+00 Eh
 * total energy  :  -100.1049174 Eh     change       -0.2930995E+00 Eh
 * total energy  :  -100.4580022 Eh     change       -0.3530848E+00 Eh
 * total energy  :   -98.5880044 Eh     change        0.1869998E+01 Eh
 * total energy  :  -100.5527892 Eh     change       -0.1964785E+01 Eh
 * total energy  :  -100.6195790 Eh     change       -0.6678980E-01 Eh
 * total energy  :  -100.6425201 Eh     change       -0.2294104E-01 Eh
 * total energy  :  -100.6628485 Eh     change       -0.2032846E-01 Eh
 * total energy  :  -100.6721213 Eh     change       -0.9272811E-02 Eh
 * total energy  :  -100.7820363 Eh     change        0.4440501E-04 Eh
 * total energy  :  -100.7822334 Eh     change       -0.1971514E-03 Eh
 * total energy  :  -100.7822476 Eh     change       -0.1413617E-04 Eh
 * total energy  :  -100.7823381 Eh     change       -0.9056957E-04 Eh
 * total energy  :  -100.7824028 Eh     change       -0.6461083E-04 Eh
 * total energy  :  -100.7826317 Eh     change       -0.2289097E-03 Eh
 * total energy  :  -100.7827324 Eh     change       -0.1007550E-03 Eh
 * total energy  :  -100.7827911 Eh     change       -0.5866846E-04 Eh
 * total energy  :  -100.7828344 Eh     change       -0.4329928E-04 Eh
   *** GEOMETRY OPTIMIZATION CONVERGED AFTER 55 ITERATIONS ***

 final structure:
================
72
 xtb: 6.6.1 (8d0f1dd)
N           -2.14607695097182        2.82566063610361        2.14009804818182
C           -1.96050497183725        2.10706025719080        1.13609678960420
C           -2.97433594703474        1.87236676706886        0.05077275097692
C           -3.34616553440361        0.40020114340236        0.02027961833873
C           -3.98038961447171       -0.15724228763141       -1.08818455617463
C           -4.37889842898853       -1.48477179683674       -1.13845230486272
O           -6.76001841466307       -0.34714849419987        0.03294582739759
C           -7.77296723882972       -0.46796049039878       -0.59407932105692
C           -4.14377487757375       -2.28668241252724       -0.00093013557072
O           -4.57431738779810       -3.56303051818518       -0.10727606582693
C           -4.46002737645257       -4.42416556658153        1.00166009473698
C           -3.51374716753132       -1.74916838175025        1.11699296321506
C           -3.12287893486661       -0.42144020393450        1.11817080420830
C           -2.27697578100740        2.29703895220808       -1.26753652540175
C           -1.23593532603214        1.29624490142936       -1.80167957526110
C            0.01180562119565        1.22974710641554       -1.01135960175585
N            0.61036268737423        0.11539961773879       -0.61298849776285
C            1.97879899705928        0.14526580175876       -0.15231110959506
C            2.94936858063306       -0.27669549949486       -1.27361304774687
C            4.37370658265441       -0.10274939578927       -0.82797439641074
C            5.03171302836454        1.10004533891387       -1.02866202647594
C            6.34207756909440        1.27112724475203       -0.61076014032729
C            7.02103425113883        0.24068842483030        0.02388024537073
O            8.29128980373624        0.29147437933213        0.46384813257179
C            9.04180296029941        1.46753508410883        0.26484289778744
C            6.35087894470877       -0.99527665518011        0.24248375846552
O            7.08252835689443       -1.94060593987317        0.86424710117636
C            6.51635094442241       -3.20742774031431        1.10062941508039
C            5.04045467704211       -1.14256250654991       -0.18458547255476
C           -0.01117804051733       -1.18026519251348       -0.74987220121496
C           -4.28982092541833        2.68739306614190        0.23463380911443
C           -5.05262539933533        2.24910322075488        1.48169405735822
C           -4.05974378142425        4.19561530257593        0.26982405252566
H           -4.19741560242455        0.45913061425651       -1.94837379669550
H           -8.19851153233088        0.34695092870835       -1.19799040414505
H           -8.34962794048074       -1.40356863052759       -0.61661789486359
H           -4.74713427698680       -1.78940174810230       -1.76008517814969
H           -5.01536931059542       -4.04077058573995        1.86216029167847
H           -4.89257166879926       -5.37102009749466        0.68488325860682
H           -3.41393292942195       -4.58037875699187        1.28131649784281
H           -3.34157067605389       -2.34454214160179        1.99900937359100
H           -2.66236938503421       -0.01886864173564        2.00821844412321
H           -3.03724083287969        2.42948763846759       -2.03649794517484
H           -1.79465691536983        3.26295010669605       -1.11176836949941
H           -1.69297703256227        0.31513850170168       -1.91088314236566
H           -0.95679959107923        1.64981471037159       -2.80299796960594
H           -1.00200082935559        1.59924248951332        0.91252357657001
H            0.56089279855820        2.14883798379920       -0.86683517194521
H            2.08958261697345       -0.52677466841392        0.70228390752936
H            2.23038085767376        1.15708506982305        0.17185645236562
H            2.75879897975830        0.34676282200024       -2.14916145058918
H            2.76447890672282       -1.31710746789314       -1.54340307985773
H            4.52933789083928        1.91379828108834       -1.52931073605673
H            6.83058796828697        2.21457459905839       -0.79069958671849
H            8.59593181168495        2.32021746262256        0.78581281172751
H            9.14445892967497        1.70145510525215       -0.79898989781112
H           10.02407036927787        1.26141550004981        0.68545271295806
H            7.29267390796334       -3.78602037486914        1.59736434514314
H            5.64145962578638       -3.14058875248902        1.75519385092011
H            6.23815928924259       -3.70333311705693        0.16548489749703
H            4.52754796501154       -2.07958589949681       -0.03403672095143
H           -0.06690785033351       -1.48827836045425       -1.79603386267348
H           -1.02107670014425       -1.16173315440179       -0.33502589745470
H            0.57399451269488       -1.91596645672439       -0.20389696424948
H           -4.91501829402967        2.45334086366559       -0.63481127789346
H           -4.44554150124404        2.40233748246413        2.36835812043004
H           -5.34012328074422        1.20366448014321        1.41435206714956
H           -5.95839502135714        2.84198324786330        1.57838966994263
H           -3.40911871586400        4.45665826657864        1.09888062824190
H           -3.62736072835513        4.56456023824987       -0.65649677170872
H           -5.01250534608956        4.69779972820640        0.41529620410137
H           -1.37940577702069        2.94009809299497        2.79550846252575

          :  Hamiltonian                  GFN2-xTB          :
         :: total energy            -100.782834392314 Eh    ::
         :: gradient norm              0.002056870540 Eh/a0 ::
         :: HOMO-LUMO gap              1.663835816684 eV    ::
         :: SCC energy              -100.791365835185 Eh    ::
         :: -> dispersion             -0.075575494647 Eh    ::
         :: repulsion energy           1.539292159724 Eh    ::

    * Orbital Energies and Occupations

         #    Occupation            Energy/Eh            Energy/eV
      -------------------------------------------------------------
         1        2.0000           -0.8069272             -21.9576
       ...           ...                  ...                  ...
        78        1.9975           -0.5239084             -14.2563
        79        1.9972           -0.5221907             -14.2095
        80        1.9969           -0.5205230             -14.1642
        81        1.9943           -0.5108334             -13.9005
        82        1.9941           -0.5100699             -13.8797
        83        1.9925           -0.5064175             -13.7803
        84        1.9911           -0.5036994             -13.7064
        85        1.9864           -0.4968657             -13.5204
        86        1.9778           -0.4890387             -13.3074
        87        1.9740           -0.4865420             -13.2395
        88        1.9258           -0.4695210             -12.7763
        89        1.9015           -0.4648421             -12.6490
        90        1.8380           -0.4564235             -12.4199 (HOMO)
        91        0.3854           -0.3952786             -10.7561 (LUMO)
        92        0.0355           -0.3544185              -9.6442
        93        0.0116           -0.3365104              -9.1569
        94        0.0038           -0.3188766              -8.6771
        95        0.0026           -0.3129497              -8.5158
        96        0.0023           -0.3106387              -8.4529
        97        0.0019           -0.3080920              -8.3836
        98        0.0000           -0.1886903              -5.1345
        99        0.0000           -0.1880406              -5.1168
       100                         -0.1351734              -3.6783
       101                         -0.0656592              -1.7867
       ...                                ...                  ...
       171                          1.2260278              33.3619
      -------------------------------------------------------------
                  HL-Gap            0.0611448 Eh            1.6638 eV

     #   Z          covCN         q      C6AA      α(0)
     1   7 N        1.774    -0.266    27.728     7.798
     2   6 C        2.828     0.103    25.709     8.309
     3   6 C        3.907     0.006    20.417     6.423
     4   6 C        2.973     0.004    27.939     8.670
     5   6 C        2.927    -0.036    28.892     8.815
     6   6 C        2.913    -0.075    29.875     8.963
     7   8 O        0.856    -0.289    19.585     5.933
     8   6 C        2.702     0.178    24.157     8.045
     9   6 C        2.868     0.149    24.772     8.159
    10   8 O        1.706    -0.247    18.094     5.743
    11   6 C        3.644     0.029    20.423     6.496
    12   6 C        2.911    -0.066    29.650     8.929
    13   6 C        2.926    -0.037    28.921     8.819
    14   6 C        3.812    -0.065    21.728     6.635
    15   6 C        3.802    -0.071    21.859     6.656
    16   6 C        2.844     0.009    27.802     8.641
    17   7 N        2.729     0.013    21.023     6.810
    18   6 C        3.756    -0.017    20.933     6.524
    19   6 C        3.808    -0.070    21.840     6.653
    20   6 C        2.969     0.000    28.022     8.683
    21   6 C        2.922    -0.048    29.203     8.862
    22   6 C        2.914    -0.067    29.674     8.933
    23   6 C        2.865     0.134    25.071     8.207
    24   8 O        1.706    -0.221    17.663     5.674
    25   6 C        3.645     0.025    20.494     6.506
    26   6 C        2.863     0.133    25.080     8.209
    27   8 O        1.706    -0.224    17.711     5.682
    28   6 C        3.645     0.027    20.459     6.501
    29   6 C        2.919    -0.079    29.980     8.979
    30   6 C        3.700    -0.071    22.032     6.713
    31   6 C        3.854    -0.006    20.654     6.464
    32   6 C        3.756    -0.121    22.875     6.819
    33   6 C        3.755    -0.119    22.837     6.814
    34   1 H        0.926     0.044     2.391     2.418
    35   1 H        0.923     0.049     2.337     2.391
    36   1 H        0.923     0.051     2.312     2.378
    37   1 H        0.930     0.100     1.785     2.089
    38   1 H        0.924     0.055     2.257     2.349
    39   1 H        0.925     0.076     2.025     2.225
    40   1 H        0.924     0.046     2.375     2.410
    41   1 H        0.926     0.048     2.348     2.396
    42   1 H        0.926     0.039     2.463     2.454
    43   1 H        0.925     0.063     2.160     2.298
    44   1 H        0.924     0.053     2.277     2.360
    45   1 H        0.925     0.070     2.088     2.260
    46   1 H        0.923     0.082     1.961     2.190
    47   1 H        0.922     0.004     2.990     2.704
    48   1 H        0.926     0.070     2.089     2.260
    49   1 H        0.924     0.068     2.108     2.270
    50   1 H        0.924     0.068     2.103     2.268
    51   1 H        0.924     0.055     2.261     2.352
    52   1 H        0.924     0.056     2.244     2.343
    53   1 H        0.926     0.046     2.376     2.410
    54   1 H        0.926     0.059     2.210     2.325
    55   1 H        0.924     0.055     2.260     2.351
    56   1 H        0.924     0.056     2.243     2.342
    57   1 H        0.925     0.083     1.950     2.184
    58   1 H        0.925     0.082     1.955     2.187
    59   1 H        0.924     0.049     2.330     2.387
    60   1 H        0.924     0.053     2.284     2.364
    61   1 H        0.926     0.048     2.348     2.396
    62   1 H        0.924     0.077     2.011     2.218
    63   1 H        0.924     0.082     1.960     2.189
    64   1 H        0.925     0.080     1.983     2.202
    65   1 H        0.924     0.043     2.413     2.429
    66   1 H        0.925     0.063     2.166     2.302
    67   1 H        0.925     0.055     2.257     2.349
    68   1 H        0.925     0.051     2.310     2.377
    69   1 H        0.925     0.063     2.159     2.298
    70   1 H        0.925     0.034     2.528     2.486
    71   1 H        0.925     0.054     2.268     2.355
    72   1 H        0.860     0.157     1.353     1.822

Wiberg/Mayer (AO) data.
largest (>0.10) Wiberg bond orders for each atom

     #   Z sym  total        # sym  WBO       # sym  WBO       # sym  WBO
 ---------------------------------------------------------------------------
     1   7 N    3.037 --     2 C    1.956    72 H    0.941
     2   6 C    3.932 --     1 N    1.956     3 C    0.994    47 H    0.904
     3   6 C    3.972 --     2 C    0.994     4 C    0.971    14 C    0.957
                            31 C    0.938
     4   6 C    3.943 --    13 C    1.400     5 C    1.376     3 C    0.971
     5   6 C    3.975 --     6 C    1.474     4 C    1.376    34 H    0.964
     6   6 C    3.954 --     5 C    1.474     9 C    1.312    37 H    0.973
                            13 C    0.100
     7   8 O    2.067 --     8 C    1.971
     8   6 C    3.857 --     7 O    1.971    36 H    0.941    35 H    0.940
     9   6 C    3.906 --    12 C    1.359     6 C    1.312    10 O    1.094
    10   8 O    2.241 --     9 C    1.094    11 C    0.978
    11   6 C    3.934 --    10 O    0.978    39 H    0.978    40 H    0.974
                            38 H    0.974
    12   6 C    3.957 --    13 C    1.439     9 C    1.359    41 H    0.964
    13   6 C    3.972 --    12 C    1.439     4 C    1.400    42 H    0.962
                             6 C    0.100
    14   6 C    3.970 --    15 C    0.978    44 H    0.973    43 H    0.967
                             3 C    0.957
    15   6 C    3.985 --    16 C    1.062    14 C    0.978    45 H    0.960
                            46 H    0.926
    16   6 C    3.599 --    17 N    1.410    15 C    1.062    48 H    0.957
    17   7 N    3.485 --    16 C    1.410    30 C    0.998    18 C    0.988
    18   6 C    3.954 --    17 N    0.988    50 H    0.967    19 C    0.965
                            49 H    0.965
    19   6 C    3.976 --    20 C    1.008    51 H    0.972    52 H    0.972
                            18 C    0.965
    20   6 C    3.943 --    21 C    1.408    29 C    1.380    19 C    1.008
    21   6 C    3.948 --    22 C    1.418    20 C    1.408    53 H    0.968
    22   6 C    3.959 --    21 C    1.418    23 C    1.382    54 H    0.963
    23   6 C    3.894 --    22 C    1.382    26 C    1.218    24 O    1.112
    24   8 O    2.255 --    23 C    1.112    25 C    0.976
    25   6 C    3.928 --    57 H    0.977    24 O    0.976    56 H    0.972
                            55 H    0.972
    26   6 C    3.897 --    29 C    1.394    23 C    1.218    27 O    1.105
    27   8 O    2.255 --    26 C    1.105    28 C    0.978
    28   6 C    3.931 --    27 O    0.978    58 H    0.977    59 H    0.973
                            60 H    0.973
    29   6 C    3.958 --    26 C    1.394    20 C    1.380    61 H    0.962
    30   6 C    3.957 --    17 N    0.998    64 H    0.977    62 H    0.965
                            63 H    0.962
    31   6 C    3.966 --    32 C    1.008    33 C    1.008    65 H    0.959
                             3 C    0.938
    32   6 C    3.972 --    31 C    1.008    68 H    0.980    67 H    0.976
                            66 H    0.974
    33   6 C    3.978 --    31 C    1.008    70 H    0.982    71 H    0.979
                            69 H    0.974
    34   1 H    0.996 --     5 C    0.964
    35   1 H    0.990 --     8 C    0.940
    36   1 H    0.989 --     8 C    0.941
    37   1 H    0.989 --     6 C    0.973
    38   1 H    0.993 --    11 C    0.974
    39   1 H    0.994 --    11 C    0.978
    40   1 H    0.994 --    11 C    0.974
    41   1 H    0.996 --    12 C    0.964
    42   1 H    0.997 --    13 C    0.962
    43   1 H    0.994 --    14 C    0.967
    44   1 H    0.996 --    14 C    0.973
    45   1 H    0.995 --    15 C    0.960
    46   1 H    0.970 --    15 C    0.926
    47   1 H    0.984 --     2 C    0.904
    48   1 H    0.995 --    16 C    0.957
    49   1 H    0.991 --    18 C    0.965
    50   1 H    0.994 --    18 C    0.967
    51   1 H    0.996 --    19 C    0.972
    52   1 H    0.996 --    19 C    0.972
    53   1 H    0.997 --    21 C    0.968
    54   1 H    0.995 --    22 C    0.963
    55   1 H    0.991 --    25 C    0.972
    56   1 H    0.991 --    25 C    0.972
    57   1 H    0.992 --    25 C    0.977
    58   1 H    0.993 --    28 C    0.977
    59   1 H    0.993 --    28 C    0.973
    60   1 H    0.992 --    28 C    0.973
    61   1 H    0.996 --    29 C    0.962
    62   1 H    0.984 --    30 C    0.965
    63   1 H    0.988 --    30 C    0.962
    64   1 H    0.993 --    30 C    0.977
    65   1 H    0.989 --    31 C    0.959
    66   1 H    0.990 --    32 C    0.974
    67   1 H    0.993 --    32 C    0.976
    68   1 H    0.993 --    32 C    0.980
    69   1 H    0.991 --    33 C    0.974
    70   1 H    0.996 --    33 C    0.982
    71   1 H    0.993 --    33 C    0.979
    72   1 H    0.969 --     1 N    0.941
 ---------------------------------------------------------------------------

molecular dipole:
                 x           y           z       tot (Debye)
 q only:        0.816      -0.147      -0.839
   full:        0.897      -0.312      -0.956       3.426

           -------------------------------------------------
          | TOTAL ENERGY             -100.782834392314 Eh   |
          | GRADIENT NORM               0.002056870540 Eh/α |
          | HOMO-LUMO GAP               1.663835816684 eV   |
           -------------------------------------------------

 * finished run on 2024/04/06 at 11:16:04.222
