   * xtb version 6.6.1 (8d0f1dd) compiled by 'conda@1efc2f54142f' on 2023-08-01
          program call               : xtb xtbopt.xyz --opt crude --input .xc2 --gfn2

   ID    Z sym.   atoms
    1    7 N      1, 17
    2    6 C      2-6, 8, 9, 11-16, 18-23, 25, 26, 28-33
    3    8 O      7, 10, 24, 27
    4    1 H      34-72

          :  Hamiltonian                  GFN2-xTB          :
 * total energy  :   -99.2507864 Eh     change       -0.9805490E-12 Eh
 * total energy  :   -99.3576414 Eh     change       -0.1068550E+00 Eh
 * total energy  :   -99.3590358 Eh     change       -0.1394472E-02 Eh
 * total energy  :   -99.3571398 Eh     change        0.1896067E-02 Eh
 * total energy  :   -99.3592088 Eh     change       -0.2069027E-02 Eh
 * total energy  :   -99.3595781 Eh     change       -0.3693101E-03 Eh
   *** GEOMETRY OPTIMIZATION CONVERGED AFTER 6 ITERATIONS ***

 final structure:
================
72
 xtb: 6.6.1 (8d0f1dd)
N           -2.14588677190313        2.82943780765534        2.14448743721277
C           -1.95711336284843        2.11725230106987        1.13670704992455
C           -2.97247709719786        1.87725249938622        0.05409873248530
C           -3.34446761836214        0.40575916349917        0.02474693570853
C           -3.97786545248700       -0.14793043383869       -1.08604839184006
C           -4.35422042875051       -1.46987388038672       -1.10136796788554
O           -6.76387594504457       -0.35613825249186        0.05094045968531
C           -7.77413239450076       -0.47513073680194       -0.58122929237594
C           -4.13569013357016       -2.29270249655691        0.00747597875963
O           -4.55883273572131       -3.56910390237185       -0.10899093891800
C           -4.45794844856844       -4.42906836994798        1.00356679971877
C           -3.50936048358363       -1.74883652095962        1.12408448254675
C           -3.12234867801260       -0.41921873202660        1.12092264774604
C           -2.27530681211041        2.29958023430917       -1.26489360559938
C           -1.23585793237263        1.29747184950143       -1.79965512466250
C            0.01209522269077        1.23047962745417       -1.00969873738209
N            0.61169885110026        0.11593327107501       -0.61333436707059
C            1.98012653726252        0.14584879103190       -0.15289426720187
C            2.95074437585323       -0.27664964406567       -1.27383222596349
C            4.37487536585884       -0.10262605642029       -0.82750920726708
C            5.03270397151508        1.10040951850795       -1.02711046547583
C            6.34279129093520        1.27146869165837       -0.60828438367705
C            7.02147957483268        0.24073988732863        0.02612113170448
O            8.29153657578310        0.29150915321514        0.46685864970764
C            9.04237042048616        1.46725482142449        0.26736149249114
C            6.35142615411482       -0.99542189462483        0.24377014899136
O            7.08281308008674       -1.94099031374532        0.86546997426790
C            6.51641287022007       -3.20796172922698        1.10066166606940
C            5.04128214852317       -1.14264191763052       -0.18409803738045
C           -0.00848203264130       -1.18012730927637       -0.75361599638803
C           -4.28824734817406        2.69233429526363        0.23597363618723
C           -5.05014140075682        2.25859333487478        1.48529950504959
C           -4.05797361043551        4.20065893213649        0.26515014271858
H           -4.19923318482437        0.46191562130378       -1.94899398895143
H           -8.20110122172406        0.34561259631456       -1.17843085241401
H           -8.36234702407502       -1.40511749301011       -0.59281010215767
H           -4.84991822089872       -1.88951975132196       -1.95263306768635
H           -5.01587918210360       -4.03920193670072        1.85957135574500
H           -4.89556276277235       -5.37368288425964        0.68671780158420
H           -3.41444167933261       -4.59307061265371        1.29031708492304
H           -3.33614648125233       -2.34198366680469        2.00680417709089
H           -2.66239514784505       -0.01512391453139        2.01031521259892
H           -3.03593632104942        2.43337165093754       -2.03321456650621
H           -1.79119515438450        3.26461850873058       -1.10913663584004
H           -1.69396218978469        0.31681045317939       -1.90901092269297
H           -0.95683640199534        1.65052253322101       -2.80122732565917
H           -0.99912714418051        1.60767908212956        0.91429978881174
H            0.56101835170734        2.14976191338709       -0.86497491012303
H            2.09089600350081       -0.52580850631081        0.70204546701991
H            2.23180278027037        1.15779144383523        0.17081604287477
H            2.76059228501133        0.34645578876717       -2.14972368653655
H            2.76594322330385       -1.31715397686155       -1.54325459093596
H            4.53039862296322        1.91436748918248       -1.52749595936521
H            6.83121943590360        2.21512144151276       -0.78729487216860
H            8.59673478565582        2.32036804376699        0.78787227610396
H            9.14511923339168        1.70059465987496       -0.79660975210121
H           10.02456557022663        1.26108970807476        0.68813324612264
H            7.29328760326211       -3.78782334574710        1.59507071071908
H            5.64269569919113       -3.14166795952930        1.75689423474938
H            6.23626829553236       -3.70216530801844        0.16520056929979
H            4.52813856888429       -2.07962852432921       -0.03418187454180
H           -0.05935934873645       -1.48774571225879       -1.80040425300463
H           -1.02035904746599       -1.16266141876906       -0.34339055960366
H            0.57470576630591       -1.91569853737472       -0.20516158634872
H           -4.91409711903793        2.45490606682238       -0.63219811452256
H           -4.44205102984222        2.41496181688421        2.37081810493759
H           -5.33798009182252        1.21276910298408        1.42202874348523
H           -5.95549340976872        2.85228981391186        1.58066827672830
H           -3.41115659544869        4.46537077163993        1.09608831324979
H           -3.62124649666099        4.56556160054315       -0.66077681721104
H           -5.01136336804651        4.70376943128614        0.40371022894870
H           -1.38180975722651        2.93892154371902        2.80368378413636

          :  Hamiltonian                  GFN2-xTB          :
         :: total energy             -99.359578108277 Eh    ::
         :: gradient norm              0.007058520000 Eh/a0 ::
         :: HOMO-LUMO gap              1.663518705644 eV    ::
         :: SCC energy              -100.767041842734 Eh    ::
         :: -> dispersion             -0.075515224340 Eh    ::
         :: repulsion energy           1.406181754419 Eh    ::

    * Orbital Energies and Occupations

         #    Occupation            Energy/Eh            Energy/eV
      -------------------------------------------------------------
         1        2.0000           -0.8069469             -21.9581
       ...           ...                  ...                  ...
        78        1.9975           -0.5240042             -14.2589
        79        1.9973           -0.5224395             -14.2163
        80        1.9969           -0.5205537             -14.1650
        81        1.9943           -0.5107543             -13.8983
        82        1.9938           -0.5093963             -13.8614
        83        1.9926           -0.5065688             -13.7844
        84        1.9912           -0.5039250             -13.7125
        85        1.9863           -0.4968182             -13.5191
        86        1.9778           -0.4890670             -13.3082
        87        1.9737           -0.4863449             -13.2341
        88        1.9263           -0.4696635             -12.7802
        89        1.9025           -0.4650356             -12.6543
        90        1.8380           -0.4564555             -12.4208 (HOMO)
        91        0.3856           -0.3953223             -10.7573 (LUMO)
        92        0.0351           -0.3542673              -9.6401
        93        0.0116           -0.3366119              -9.1597
        94        0.0032           -0.3161600              -8.6032
        95        0.0026           -0.3129734              -8.5164
        96        0.0023           -0.3106632              -8.4536
        97        0.0019           -0.3078317              -8.3765
        98        0.0000           -0.1880638              -5.1175
        99        0.0000           -0.1853603              -5.0439
       100                         -0.1351912              -3.6787
       101                         -0.0658591              -1.7921
       ...                                ...                  ...
       171                          0.5758296              15.6691
      -------------------------------------------------------------
                  HL-Gap            0.0611332 Eh            1.6635 eV

     #   Z          covCN         q      C6AA      α(0)
     1   7 N        1.774    -0.266    27.727     7.797
     2   6 C        2.828     0.103    25.708     8.308
     3   6 C        3.907     0.006    20.415     6.422
     4   6 C        2.977     0.005    27.914     8.666
     5   6 C        2.924    -0.032    28.795     8.800
     6   6 C        2.921    -0.048    29.204     8.862
     7   8 O        0.856    -0.289    19.581     5.933
     8   6 C        2.702     0.178    24.156     8.044
     9   6 C        2.866     0.153    24.684     8.144
    10   8 O        1.706    -0.246    18.073     5.740
    11   6 C        3.645     0.029    20.420     6.495
    12   6 C        2.916    -0.065    29.625     8.925
    13   6 C        2.925    -0.038    28.936     8.822
    14   6 C        3.813    -0.065    21.727     6.635
    15   6 C        3.802    -0.071    21.856     6.656
    16   6 C        2.844     0.009    27.803     8.641
    17   7 N        2.729     0.013    21.024     6.810
    18   6 C        3.756    -0.017    20.932     6.523
    19   6 C        3.808    -0.070    21.840     6.653
    20   6 C        2.969     0.000    28.022     8.683
    21   6 C        2.922    -0.048    29.203     8.862
    22   6 C        2.914    -0.067    29.674     8.933
    23   6 C        2.865     0.134    25.071     8.208
    24   8 O        1.706    -0.221    17.664     5.674
    25   6 C        3.645     0.025    20.494     6.506
    26   6 C        2.863     0.133    25.079     8.209
    27   8 O        1.706    -0.224    17.710     5.682
    28   6 C        3.645     0.027    20.459     6.501
    29   6 C        2.919    -0.079    29.980     8.979
    30   6 C        3.700    -0.071    22.025     6.712
    31   6 C        3.854    -0.006    20.653     6.464
    32   6 C        3.756    -0.121    22.873     6.819
    33   6 C        3.755    -0.119    22.834     6.814
    34   1 H        0.926     0.047     2.358     2.401
    35   1 H        0.923     0.049     2.334     2.389
    36   1 H        0.923     0.051     2.308     2.376
    37   1 H        0.926     0.058     2.217     2.328
    38   1 H        0.924     0.056     2.252     2.347
    39   1 H        0.925     0.076     2.019     2.222
    40   1 H        0.924     0.046     2.368     2.407
    41   1 H        0.926     0.048     2.349     2.397
    42   1 H        0.926     0.039     2.468     2.457
    43   1 H        0.925     0.063     2.162     2.299
    44   1 H        0.924     0.054     2.277     2.360
    45   1 H        0.925     0.070     2.091     2.261
    46   1 H        0.923     0.082     1.961     2.190
    47   1 H        0.922     0.004     2.992     2.705
    48   1 H        0.926     0.070     2.089     2.260
    49   1 H        0.924     0.068     2.108     2.271
    50   1 H        0.924     0.068     2.102     2.268
    51   1 H        0.924     0.055     2.261     2.352
    52   1 H        0.924     0.056     2.244     2.343
    53   1 H        0.926     0.046     2.376     2.410
    54   1 H        0.926     0.059     2.210     2.325
    55   1 H        0.924     0.055     2.260     2.351
    56   1 H        0.924     0.056     2.243     2.342
    57   1 H        0.925     0.083     1.950     2.184
    58   1 H        0.925     0.082     1.955     2.187
    59   1 H        0.924     0.049     2.330     2.387
    60   1 H        0.924     0.053     2.285     2.364
    61   1 H        0.926     0.048     2.348     2.396
    62   1 H        0.924     0.077     2.012     2.218
    63   1 H        0.924     0.082     1.964     2.191
    64   1 H        0.925     0.080     1.983     2.202
    65   1 H        0.924     0.042     2.417     2.431
    66   1 H        0.925     0.063     2.163     2.300
    67   1 H        0.925     0.055     2.261     2.352
    68   1 H        0.925     0.051     2.310     2.377
    69   1 H        0.925     0.063     2.161     2.299
    70   1 H        0.925     0.034     2.527     2.486
    71   1 H        0.925     0.054     2.270     2.356
    72   1 H        0.860     0.157     1.352     1.822

Wiberg/Mayer (AO) data.
largest (>0.10) Wiberg bond orders for each atom

     #   Z sym  total        # sym  WBO       # sym  WBO       # sym  WBO
 ---------------------------------------------------------------------------
     1   7 N    3.037 --     2 C    1.957    72 H    0.941
     2   6 C    3.932 --     1 N    1.957     3 C    0.994    47 H    0.904
     3   6 C    3.972 --     2 C    0.994     4 C    0.971    14 C    0.957
                            31 C    0.938
     4   6 C    3.943 --    13 C    1.402     5 C    1.370     3 C    0.971
     5   6 C    3.975 --     6 C    1.480     4 C    1.370    34 H    0.963
     6   6 C    3.956 --     5 C    1.480     9 C    1.319    37 H    0.966
     7   8 O    2.067 --     8 C    1.972
     8   6 C    3.857 --     7 O    1.972    36 H    0.940    35 H    0.940
     9   6 C    3.909 --    12 C    1.355     6 C    1.319    10 O    1.094
    10   8 O    2.241 --     9 C    1.094    11 C    0.977
    11   6 C    3.933 --    39 H    0.978    10 O    0.977    40 H    0.974
                            38 H    0.974
    12   6 C    3.958 --    13 C    1.439     9 C    1.355    41 H    0.964
    13   6 C    3.972 --    12 C    1.439     4 C    1.402    42 H    0.963
    14   6 C    3.971 --    15 C    0.978    44 H    0.972    43 H    0.967
                             3 C    0.957
    15   6 C    3.985 --    16 C    1.062    14 C    0.978    45 H    0.960
                            46 H    0.926
    16   6 C    3.599 --    17 N    1.410    15 C    1.062    48 H    0.957
    17   7 N    3.485 --    16 C    1.410    30 C    0.998    18 C    0.988
    18   6 C    3.954 --    17 N    0.988    50 H    0.967    19 C    0.965
                            49 H    0.965
    19   6 C    3.976 --    20 C    1.008    51 H    0.972    52 H    0.972
                            18 C    0.965
    20   6 C    3.943 --    21 C    1.408    29 C    1.380    19 C    1.008
    21   6 C    3.948 --    22 C    1.418    20 C    1.408    53 H    0.968
    22   6 C    3.959 --    21 C    1.418    23 C    1.382    54 H    0.963
    23   6 C    3.894 --    22 C    1.382    26 C    1.218    24 O    1.112
    24   8 O    2.255 --    23 C    1.112    25 C    0.976
    25   6 C    3.928 --    57 H    0.977    24 O    0.976    56 H    0.972
                            55 H    0.972
    26   6 C    3.897 --    29 C    1.394    23 C    1.218    27 O    1.105
    27   8 O    2.255 --    26 C    1.105    28 C    0.978
    28   6 C    3.931 --    27 O    0.978    58 H    0.977    59 H    0.973
                            60 H    0.973
    29   6 C    3.958 --    26 C    1.394    20 C    1.380    61 H    0.962
    30   6 C    3.957 --    17 N    0.998    64 H    0.977    62 H    0.965
                            63 H    0.963
    31   6 C    3.966 --    32 C    1.008    33 C    1.008    65 H    0.959
                             3 C    0.938
    32   6 C    3.972 --    31 C    1.008    68 H    0.980    67 H    0.976
                            66 H    0.973
    33   6 C    3.978 --    31 C    1.008    70 H    0.982    71 H    0.979
                            69 H    0.974
    34   1 H    0.996 --     5 C    0.963
    35   1 H    0.989 --     8 C    0.940
    36   1 H    0.989 --     8 C    0.940
    37   1 H    0.995 --     6 C    0.966
    38   1 H    0.993 --    11 C    0.974
    39   1 H    0.993 --    11 C    0.978
    40   1 H    0.994 --    11 C    0.974
    41   1 H    0.996 --    12 C    0.964
    42   1 H    0.997 --    13 C    0.963
    43   1 H    0.994 --    14 C    0.967
    44   1 H    0.996 --    14 C    0.972
    45   1 H    0.995 --    15 C    0.960
    46   1 H    0.970 --    15 C    0.926
    47   1 H    0.984 --     2 C    0.904
    48   1 H    0.995 --    16 C    0.957
    49   1 H    0.991 --    18 C    0.965
    50   1 H    0.994 --    18 C    0.967
    51   1 H    0.996 --    19 C    0.972
    52   1 H    0.996 --    19 C    0.972
    53   1 H    0.997 --    21 C    0.968
    54   1 H    0.995 --    22 C    0.963
    55   1 H    0.991 --    25 C    0.972
    56   1 H    0.991 --    25 C    0.972
    57   1 H    0.992 --    25 C    0.977
    58   1 H    0.993 --    28 C    0.977
    59   1 H    0.993 --    28 C    0.973
    60   1 H    0.993 --    28 C    0.973
    61   1 H    0.996 --    29 C    0.962
    62   1 H    0.984 --    30 C    0.965
    63   1 H    0.988 --    30 C    0.963
    64   1 H    0.993 --    30 C    0.977
    65   1 H    0.989 --    31 C    0.959
    66   1 H    0.990 --    32 C    0.973
    67   1 H    0.993 --    32 C    0.976
    68   1 H    0.993 --    32 C    0.980
    69   1 H    0.991 --    33 C    0.974
    70   1 H    0.996 --    33 C    0.982
    71   1 H    0.993 --    33 C    0.979
    72   1 H    0.969 --     1 N    0.941
 ---------------------------------------------------------------------------

molecular dipole:
                 x           y           z       tot (Debye)
 q only:        0.830      -0.132      -0.795
   full:        0.900      -0.304      -0.942       3.400

           -------------------------------------------------
          | TOTAL ENERGY              -99.359578108277 Eh   |
          | GRADIENT NORM               0.007058520000 Eh/α |
          | HOMO-LUMO GAP               1.663518705644 eV   |
           -------------------------------------------------

 * finished run on 2024/04/06 at 11:16:05.498
