   * xtb version 6.6.1 (8d0f1dd) compiled by 'conda@1efc2f54142f' on 2023-08-01
          program call               : xtb struc.xyz --opt loose --input .xc1 --gfn2

   ID    Z sym.   atoms
    1    7 N      1, 17
    2    6 C      2-6, 8, 9, 11-16, 18-23, 25, 26, 28-33
    3    8 O      7, 10, 24, 27
    4    1 H      34-72
constraining bond 41 42 to    4.2800000 Å, actual value:    2.4246174 Å

          :  Hamiltonian                  GFN2-xTB          :
 * total energy  :   -98.7894714 Eh     change       -0.4035485E-08 Eh
 * total energy  :   -99.0465735 Eh     change       -0.2571021E+00 Eh
 * total energy  :   -99.1975776 Eh     change       -0.1510041E+00 Eh
 * total energy  :   -99.2373526 Eh     change       -0.3977503E-01 Eh
 * total energy  :   -99.2422806 Eh     change       -0.4928006E-02 Eh
 * total energy  :   -99.2443212 Eh     change       -0.2040548E-02 Eh
 * total energy  :   -99.2469409 Eh     change       -0.2619765E-02 Eh
 * total energy  :   -99.2488048 Eh     change       -0.1863864E-02 Eh
 * total energy  :   -99.2502794 Eh     change       -0.1474613E-02 Eh
 * total energy  :   -99.2533131 Eh     change       -0.3033671E-02 Eh
 * total energy  :   -99.4452329 Eh     change       -0.6092738E-04 Eh
 * total energy  :   -99.4453171 Eh     change       -0.8420141E-04 Eh
 * total energy  :   -99.4453750 Eh     change       -0.5789543E-04 Eh
 * total energy  :   -99.4454575 Eh     change       -0.8250627E-04 Eh
 * total energy  :   -99.4455240 Eh     change       -0.6649425E-04 Eh
 * total energy  :   -99.4455792 Eh     change       -0.5520077E-04 Eh
 * total energy  :   -99.4456383 Eh     change       -0.5909639E-04 Eh
 * total energy  :   -99.4457257 Eh     change       -0.8734699E-04 Eh
 * total energy  :   -99.4457706 Eh     change       -0.4492771E-04 Eh
   *** GEOMETRY OPTIMIZATION CONVERGED AFTER 134 ITERATIONS ***

 final structure:
================
72
 xtb: 6.6.1 (8d0f1dd)
N           -0.67741128560988        1.66537002643077        0.55762044692391
C           -1.92241470902487        1.71706948744479        1.00122509782404
C           -3.10350558774587        1.69023639898066        0.10263311536243
C           -3.73528663538079        0.30244423254493        0.21302413589967
C           -4.79650867114104       -0.08634811052772       -0.60105603563556
C           -5.37613404843679       -1.34085329601152       -0.47353530293661
O           -6.38971340171143       -1.80765035419167       -1.23019678726077
C           -6.91755198626813       -1.00109669243227       -2.25606616233188
C           -4.90756157398583       -2.24163352194747        0.52265879685946
O           -5.54149807182722       -3.42733044281310        0.58739720630886
C           -5.12896566523505       -4.36229103083364        1.55740404098018
C           -3.85689984101336       -1.83725056753321        1.32894300752358
C           -3.27446020511858       -0.59541997678195        1.16047038813310
C           -2.62754138224484        1.94843023661220       -1.33687554959456
C           -1.47873113266447        1.00426726809833       -1.66776321867509
C           -0.25421223667789        1.35554886189857       -0.82328213319860
N            0.73085956169466        0.32461440073360       -0.83112871771009
C            2.09368411139285        0.67078448296291       -0.48236072030132
C            3.08304480620316        0.00009519053758       -1.45506459774818
C            4.49206322225512        0.11939127842569       -0.95136226014365
C            5.17781523413560        1.32219756142114       -1.03855781784189
C            6.46346112637632        1.44771935164113       -0.53655248880640
C            7.09549777090955        0.36713739054080        0.06295773612092
O            8.33507219769103        0.37102960299764        0.58921972341493
C            9.09496653822710        1.55651382447925        0.55344394395086
C            6.40772910914659       -0.87521712905970        0.14497614831892
O            7.10182331529432       -1.87480195813230        0.72520595268063
C            6.53137182849240       -3.15949774115960        0.79983148655976
C            5.11836181776158       -0.97216827654164       -0.35536641460250
C            0.30184435162005       -0.99771538589404       -0.41288896036260
C           -4.15303913834014        2.75621878227393        0.55539265621599
C           -4.79345311111019        2.40884124913024        1.89883019623597
C           -3.55042472400684        4.15836673727407        0.63131530253784
H           -5.18352679001702        0.59928945209852       -1.33647724906824
H           -7.36851008090968       -0.08682310944244       -1.85776670414294
H           -7.68915491307384       -1.60333665362901       -2.73169965268690
H           -6.15401966868326       -0.74214002327016       -2.99651629142280
H           -5.24653596779543       -3.96667178367311        2.57051419702987
H           -5.77927744038480       -5.22499967014699        1.42891337552758
H           -4.08854169441138       -4.66487302599148        1.40284932789635
H           -3.45254462702629       -2.43624460669645        2.12300786774220
H           -2.08911818997332        1.66026543777648        2.06611245733406
H           -3.44670396627213        1.79709881943308       -2.03661272542330
H           -2.28667803581803        2.97855879477103       -1.43543322373704
H           -1.79163725632472       -0.01973648922603       -1.46893255404369
H           -1.20337857726545        1.07884408499048       -2.71882193073623
H           -2.45325871123965       -0.34924300158468        1.81284046639308
H            0.21169698383338        2.26660475375773       -1.22482404423436
H            2.34094747080957        0.35805665345242        0.54307673598596
H            2.21958448125744        1.75317087953597       -0.54180678999676
H            2.98586100625731        0.47452183383295       -2.43204268653560
H            2.81465570433709       -1.05032712558045       -1.56241818334326
H            4.71129082419100        2.17283581177142       -1.51129868784141
H            6.97097874847514        2.39467880933418       -0.62208583396602
H            8.60527845581452        2.36258970493375        1.10848703836880
H            9.28291728450299        1.88177047654681       -0.47418206027505
H           10.04063604442441        1.31079312626625        1.03293322102292
H            7.28532952605613       -3.78614335285098        1.27261268259673
H            5.62398888849991       -3.16223380550249        1.41230769461612
H            6.30302162180938       -3.55506788778496       -0.19467869864103
H            4.58853561276664       -1.91022467697603       -0.29667443440703
H           -0.02389281597757       -1.58314212867000       -1.27459338224552
H           -0.52031976711251       -0.95343464063809        0.30626702643486
H            1.13198825203213       -1.52100370484970        0.05589044684129
H           -4.94120604456802        2.75634679396701       -0.20344498639596
H           -4.07926096975455        2.50002343218261        2.71352840542587
H           -5.19681798384776        1.39970435544090        1.89903195989267
H           -5.60935825980400        3.09931507093707        2.09752933440127
H           -2.69522457885934        4.17586126381982        1.30416172245631
H           -3.23533655849188        4.52192590937041       -0.34256111563015
H           -4.29610975013753        4.85077946792039        1.01324901299493
H            0.07793575594316        1.67974839623052        1.23033088971364

          :  Hamiltonian                  GFN2-xTB          :
         :: total energy             -99.445770611136 Eh    ::
         :: gradient norm              0.002166719478 Eh/a0 ::
         :: HOMO-LUMO gap              1.520861858999 eV    ::
         :: SCC energy              -100.801711415443 Eh    ::
         :: -> dispersion             -0.074953003164 Eh    ::
         :: repulsion energy           1.354777868041 Eh    ::

    * Orbital Energies and Occupations

         #    Occupation            Energy/Eh            Energy/eV
      -------------------------------------------------------------
         1        2.0000           -0.8066764             -21.9508
       ...           ...                  ...                  ...
        78        1.9990           -0.5345056             -14.5446
        79        1.9984           -0.5273330             -14.3495
        80        1.9983           -0.5265059             -14.3270
        81        1.9981           -0.5246709             -14.2770
        82        1.9979           -0.5227049             -14.2235
        83        1.9976           -0.5207909             -14.1714
        84        1.9969           -0.5165526             -14.0561
        85        1.9962           -0.5134398             -13.9714
        86        1.9838           -0.4903527             -13.3432
        87        1.9740           -0.4827952             -13.1375
        88        1.9435           -0.4703017             -12.7976
        89        1.8791           -0.4577051             -12.4548
        90        1.8055           -0.4495519             -12.2329 (HOMO)
        91        0.4278           -0.3936613             -10.7121 (LUMO)
        92        0.0038           -0.3150507              -8.5730
        93        0.0033           -0.3127411              -8.5101
        94        0.0021           -0.3056563              -8.3173
        95        0.0019           -0.3038620              -8.2685
        96        0.0000           -0.1891687              -5.1475
        97        0.0000           -0.1810245              -4.9259
        98                         -0.1340481              -3.6476
        99                         -0.1130367              -3.0759
       100                         -0.0638816              -1.7383
       101                         -0.0605566              -1.6478
       ...                                ...                  ...
       171                          0.5812298              15.8161
      -------------------------------------------------------------
                  HL-Gap            0.0558906 Eh            1.5209 eV

     #   Z          covCN         q      C6AA      α(0)
     1   7 N        2.683    -0.101    23.214     7.156
     2   6 C        2.841     0.035    27.214     8.549
     3   6 C        3.910     0.013    20.304     6.405
     4   6 C        2.978     0.000    28.019     8.683
     5   6 C        2.920    -0.076    29.909     8.968
     6   6 C        2.864     0.132    25.108     8.213
     7   8 O        1.706    -0.227    17.758     5.690
     8   6 C        3.644     0.027    20.463     6.502
     9   6 C        2.866     0.133    25.096     8.212
    10   8 O        1.706    -0.225    17.730     5.685
    11   6 C        3.647     0.026    20.464     6.500
    12   6 C        2.915    -0.072    29.807     8.953
    13   6 C        2.926    -0.057    29.410     8.893
    14   6 C        3.815    -0.068    21.796     6.645
    15   6 C        3.808    -0.076    21.940     6.668
    16   6 C        3.735     0.093    19.126     6.242
    17   7 N        2.731    -0.145    24.144     7.298
    18   6 C        3.747     0.001    20.621     6.477
    19   6 C        3.809    -0.075    21.924     6.665
    20   6 C        2.968     0.006    27.893     8.663
    21   6 C        2.922    -0.047    29.171     8.857
    22   6 C        2.913    -0.067    29.668     8.932
    23   6 C        2.864     0.133    25.097     8.212
    24   8 O        1.706    -0.222    17.686     5.678
    25   6 C        3.645     0.025    20.481     6.504
    26   6 C        2.862     0.133    25.090     8.210
    27   8 O        1.706    -0.225    17.725     5.684
    28   6 C        3.644     0.027    20.451     6.500
    29   6 C        2.920    -0.078    29.939     8.973
    30   6 C        3.697    -0.050    21.636     6.653
    31   6 C        3.853    -0.015    20.806     6.488
    32   6 C        3.755    -0.115    22.754     6.802
    33   6 C        3.755    -0.114    22.731     6.798
    34   1 H        0.926     0.053     2.285     2.364
    35   1 H        0.924     0.053     2.286     2.364
    36   1 H        0.925     0.082     1.959     2.189
    37   1 H        0.924     0.050     2.323     2.383
    38   1 H        0.924     0.054     2.274     2.358
    39   1 H        0.925     0.082     1.961     2.190
    40   1 H        0.924     0.051     2.307     2.375
    41   1 H        0.926     0.054     2.275     2.359
    42   1 H        0.926     0.072     2.061     2.245
    43   1 H        0.925     0.058     2.219     2.330
    44   1 H        0.925     0.055     2.262     2.352
    45   1 H        0.925     0.064     2.158     2.297
    46   1 H        0.925     0.066     2.126     2.280
    47   1 H        0.926     0.033     2.546     2.495
    48   1 H        0.923     0.064     2.151     2.294
    49   1 H        0.923     0.028     2.610     2.526
    50   1 H        0.924     0.043     2.410     2.428
    51   1 H        0.924     0.060     2.201     2.320
    52   1 H        0.925     0.057     2.229     2.335
    53   1 H        0.926     0.047     2.360     2.402
    54   1 H        0.926     0.057     2.230     2.335
    55   1 H        0.924     0.054     2.275     2.359
    56   1 H        0.924     0.056     2.245     2.343
    57   1 H        0.925     0.082     1.963     2.191
    58   1 H        0.925     0.081     1.969     2.194
    59   1 H        0.924     0.049     2.332     2.388
    60   1 H        0.924     0.054     2.275     2.359
    61   1 H        0.926     0.049     2.334     2.389
    62   1 H        0.924     0.056     2.252     2.347
    63   1 H        0.924     0.038     2.478     2.462
    64   1 H        0.925     0.059     2.211     2.325
    65   1 H        0.924     0.049     2.338     2.391
    66   1 H        0.925     0.040     2.446     2.446
    67   1 H        0.925     0.044     2.403     2.424
    68   1 H        0.925     0.055     2.256     2.349
    69   1 H        0.925     0.037     2.492     2.469
    70   1 H        0.925     0.042     2.426     2.436
    71   1 H        0.925     0.058     2.223     2.331
    72   1 H        0.860     0.187     1.173     1.697

Wiberg/Mayer (AO) data.
largest (>0.10) Wiberg bond orders for each atom

     #   Z sym  total        # sym  WBO       # sym  WBO       # sym  WBO
 ---------------------------------------------------------------------------
     1   7 N    3.399 --     2 C    1.428    72 H    0.934    16 C    0.923
     2   6 C    3.536 --     1 N    1.428     3 C    1.034    42 H    0.952
     3   6 C    3.983 --     2 C    1.034    14 C    0.975     4 C    0.945
                            31 C    0.927
     4   6 C    3.928 --    13 C    1.411     5 C    1.378     3 C    0.945
     5   6 C    3.962 --     6 C    1.394     4 C    1.378    34 H    0.958
     6   6 C    3.906 --     5 C    1.394     9 C    1.223     7 O    1.103
     7   8 O    2.259 --     6 C    1.103     8 C    0.978
     8   6 C    3.931 --     7 O    0.978    36 H    0.977    37 H    0.974
                            35 H    0.973
     9   6 C    3.905 --    12 C    1.388     6 C    1.223    10 O    1.107
    10   8 O    2.259 --     9 C    1.107    11 C    0.977
    11   6 C    3.930 --    39 H    0.977    10 O    0.977    40 H    0.974
                            38 H    0.974
    12   6 C    3.965 --    13 C    1.411     9 C    1.388    41 H    0.965
    13   6 C    3.952 --    12 C    1.411     4 C    1.411    47 H    0.955
    14   6 C    3.989 --    15 C    1.007     3 C    0.975    43 H    0.970
                            44 H    0.969
    15   6 C    3.985 --    14 C    1.007    16 C    0.986    46 H    0.971
                            45 H    0.967
    16   6 C    3.954 --    17 N    1.032    15 C    0.986    48 H    0.945
                             1 N    0.923
    17   7 N    3.175 --    16 C    1.032    30 C    1.004    18 C    0.999
    18   6 C    3.970 --    17 N    0.999    19 C    0.975    50 H    0.972
                            49 H    0.965
    19   6 C    3.983 --    20 C    1.013    18 C    0.975    52 H    0.971
                            51 H    0.968
    20   6 C    3.937 --    21 C    1.399    29 C    1.385    19 C    1.013
    21   6 C    3.940 --    22 C    1.422    20 C    1.399    53 H    0.968
    22   6 C    3.956 --    21 C    1.422    23 C    1.379    54 H    0.963
    23   6 C    3.885 --    22 C    1.379    26 C    1.219    24 O    1.108
    24   8 O    2.247 --    23 C    1.108    25 C    0.977
    25   6 C    3.929 --    57 H    0.977    24 O    0.977    55 H    0.973
                            56 H    0.972
    26   6 C    3.890 --    29 C    1.391    23 C    1.219    27 O    1.103
    27   8 O    2.248 --    26 C    1.103    28 C    0.979
    28   6 C    3.932 --    27 O    0.979    58 H    0.977    60 H    0.973
                            59 H    0.973
    29   6 C    3.957 --    26 C    1.391    20 C    1.385    61 H    0.962
    30   6 C    3.973 --    17 N    1.004    64 H    0.979    62 H    0.976
                            63 H    0.974
    31   6 C    3.970 --    32 C    1.010    33 C    1.009    65 H    0.964
                             3 C    0.927
    32   6 C    3.991 --    31 C    1.010    66 H    0.983    68 H    0.982
                            67 H    0.982
    33   6 C    3.989 --    31 C    1.009    69 H    0.983    71 H    0.981
                            70 H    0.981
    34   1 H    0.996 --     5 C    0.958
    35   1 H    0.993 --     8 C    0.973
    36   1 H    0.993 --     8 C    0.977
    37   1 H    0.994 --     8 C    0.974
    38   1 H    0.993 --    11 C    0.974
    39   1 H    0.993 --    11 C    0.977
    40   1 H    0.993 --    11 C    0.974
    41   1 H    0.995 --    12 C    0.965
    42   1 H    0.993 --     2 C    0.952
    43   1 H    0.996 --    14 C    0.970
    44   1 H    0.996 --    14 C    0.969
    45   1 H    0.996 --    15 C    0.967
    46   1 H    0.995 --    15 C    0.971
    47   1 H    0.998 --    13 C    0.955
    48   1 H    0.989 --    16 C    0.945
    49   1 H    0.993 --    18 C    0.965
    50   1 H    0.998 --    18 C    0.972
    51   1 H    0.993 --    19 C    0.968
    52   1 H    0.996 --    19 C    0.971
    53   1 H    0.997 --    21 C    0.968
    54   1 H    0.995 --    22 C    0.963
    55   1 H    0.991 --    25 C    0.973
    56   1 H    0.991 --    25 C    0.972
    57   1 H    0.993 --    25 C    0.977
    58   1 H    0.993 --    28 C    0.977
    59   1 H    0.992 --    28 C    0.973
    60   1 H    0.992 --    28 C    0.973
    61   1 H    0.996 --    29 C    0.962
    62   1 H    0.992 --    30 C    0.976
    63   1 H    0.994 --    30 C    0.974
    64   1 H    0.996 --    30 C    0.979
    65   1 H    0.996 --    31 C    0.964
    66   1 H    0.998 --    32 C    0.983
    67   1 H    0.997 --    32 C    0.982
    68   1 H    0.995 --    32 C    0.982
    69   1 H    0.998 --    33 C    0.983
    70   1 H    0.998 --    33 C    0.981
    71   1 H    0.995 --    33 C    0.981
    72   1 H    0.964 --     1 N    0.934
 ---------------------------------------------------------------------------

molecular dipole:
                 x           y           z       tot (Debye)
 q only:       -0.083       0.836       0.008
   full:        0.026       0.998       0.382       2.716

           -------------------------------------------------
          | TOTAL ENERGY              -99.445770611136 Eh   |
          | GRADIENT NORM               0.002166719478 Eh/α |
          | HOMO-LUMO GAP               1.520861858999 eV   |
           -------------------------------------------------

 * finished run on 2024/04/06 at 11:15:18.389
