   * xtb version 6.6.1 (8d0f1dd) compiled by 'conda@1efc2f54142f' on 2023-08-01
          program call               : xtb xtbopt.xyz --opt crude --input .xc2 --gfn2

   ID    Z sym.   atoms
    1    7 N      1, 17
    2    6 C      2-6, 8, 9, 11-16, 18-23, 25, 26, 28-33
    3    8 O      7, 10, 24, 27
    4    1 H      34-72
########################################################################
[WARNING] Please study the warnings concerning your input carefully
-1- readin_getIntValue: could not parse ''
########################################################################

          :  Hamiltonian                  GFN2-xTB          :
 * total energy  :   -99.4460260 Eh     change       -0.1065814E-11 Eh
 * total energy  :   -99.4478309 Eh     change       -0.1804919E-02 Eh
 * total energy  :   -99.4485281 Eh     change       -0.6972200E-03 Eh
 * total energy  :   -99.4487682 Eh     change       -0.2400578E-03 Eh
   *** GEOMETRY OPTIMIZATION CONVERGED AFTER 4 ITERATIONS ***

 final structure:
================
72
 xtb: 6.6.1 (8d0f1dd)
N           -0.66325675719634        1.68711295989247        0.54760718959862
C           -1.90162152209821        1.78085546603797        1.00172789873061
C           -3.09661733630858        1.68409584604730        0.12401657349352
C           -3.71799955061632        0.28702397932679        0.24682362496729
C           -4.77973089145765       -0.08734038619001       -0.57778330703296
C           -5.37166542572211       -1.33621842587959       -0.47000366408422
O           -6.38884393090339       -1.78919433265753       -1.22981144824833
C           -6.91583401522201       -0.97507975496368       -2.25034412243883
C           -4.90488674687184       -2.25390661621593        0.50988398754454
O           -5.55141507398158       -3.43440263389808        0.56487735513695
C           -5.15684713498473       -4.37701482972452        1.53557034932103
C           -3.84655079790019       -1.87726641706306        1.31941532195709
C           -3.26065939776490       -0.62536590643234        1.18434603679095
C           -2.63279180582294        1.92199978470408       -1.32603786060470
C           -1.48264793130283        0.97964281821192       -1.65827302098370
C           -0.25129918230386        1.33959819076158       -0.82843588756730
N            0.73392213111765        0.31151497415329       -0.82681400344075
C            2.09608688412323        0.66024168412576       -0.47898317535424
C            3.08688817740756       -0.00189138034126       -1.45568295466637
C            4.49540695259934        0.12074679532412       -0.95127559425965
C            5.17935299166405        1.32462526701464       -1.03661619425296
C            6.46482820843620        1.45030858612310       -0.53438644641531
C            7.09880092240793        0.36997317924125        0.06399025139158
O            8.33956069267478        0.37639191117497        0.58767762235477
C            9.09797147371619        1.56258354216862        0.54534103624756
C            6.41154713591019       -0.87225344723628        0.14672984888955
O            7.10354788468527       -1.87331987976101        0.72746896315830
C            6.52847854580854       -3.15590021977438        0.80211229612569
C            5.12250686777472       -0.96964110999952       -0.35451328006113
C            0.30446439970591       -1.01045551749291       -0.40863580353250
C           -4.15518734070378        2.74785028239106        0.55912310525952
C           -4.80237560663684        2.40709108297062        1.90066995768806
C           -3.56134227408149        4.15542962216616        0.62374991218573
H           -5.16180445195355        0.60894939212565       -1.30591230687735
H           -7.35955458251116       -0.05968444113080       -1.84715856737881
H           -7.69314146999184       -1.57155692646877       -2.72443490037315
H           -6.15392891796248       -0.71919505523724       -2.99341490852468
H           -5.28104018404678       -3.98277576327674        2.54896161131351
H           -5.81373518294631       -5.23354071285584        1.39963749352442
H           -4.11826161547986       -4.69021273940193        1.38952911627290
H           -3.46892664422122       -2.55348644281154        2.07086478911890
H           -2.03017091569497        1.94392517815768        2.06480695584047
H           -3.45540598963709        1.75767830769312       -2.01871426256238
H           -2.29989885307688        2.95355107792875       -1.44008077508160
H           -1.79152645492410       -0.04368053443436       -1.45119507333266
H           -1.21657076894108        1.04916586550295       -2.71229105370641
H           -2.44617178501408       -0.37227020752822        1.84647907763984
H            0.21190225584133        2.24530449119985       -1.24678670276196
H            2.34504511058686        0.34209315715676        0.54472180109701
H            2.21967722500058        1.74375947018067       -0.53172618080388
H            2.98774722918733        0.47598377353262       -2.43079232899701
H            2.82252263663089       -1.05302722375659       -1.56671577593909
H            4.71266804208980        2.17592025553064       -1.50807578444081
H            6.97110533868459        2.39799297975693       -0.61890602535986
H            8.60885060963074        2.37044347254247        1.09829975818505
H            9.28269400595023        1.88377620901689       -0.48407479223824
H           10.04525084658493        1.32025659308973        1.02325382760564
H            7.28080574718421       -3.78631185142238        1.27225707484938
H            5.62261100060794       -3.15559377650195        1.41683781848087
H            6.29588750783791       -3.54944927101408       -0.19221146543929
H            4.59315486930302       -1.90786134239439       -0.29579523636867
H           -0.01693461800947       -1.59705354668831       -1.27163215299589
H           -0.52102624768338       -0.96450517441708        0.30707385085007
H            1.13323283574506       -1.53174334138306        0.06455905560847
H           -4.93874844078147        2.73919075914207       -0.20411240070700
H           -4.09269157575019        2.49674629884613        2.71899012532705
H           -5.20629809598115        1.39861452857916        1.90084633851589
H           -5.61763687934010        3.09930018920604        2.09399364997979
H           -2.70771595189590        4.18870471733902        1.29763914523773
H           -3.24574121876480        4.51163872998729       -0.35268454465829
H           -4.31203115404319        4.84676540009162        0.99739007113644
H            0.10053178855239        1.75849191233675        1.20830395266819

          :  Hamiltonian                  GFN2-xTB          :
         :: total energy             -99.448768198293 Eh    ::
         :: gradient norm              0.005083141711 Eh/a0 ::
         :: HOMO-LUMO gap              1.519453627113 eV    ::
         :: SCC energy              -100.799974837674 Eh    ::
         :: -> dispersion             -0.074841562736 Eh    ::
         :: repulsion energy           1.350302573242 Eh    ::

    * Orbital Energies and Occupations

         #    Occupation            Energy/Eh            Energy/eV
      -------------------------------------------------------------
         1        2.0000           -0.8063136             -21.9409
       ...           ...                  ...                  ...
        78        1.9990           -0.5343298             -14.5399
        79        1.9984           -0.5267271             -14.3330
        80        1.9983           -0.5263209             -14.3219
        81        1.9981           -0.5245613             -14.2740
        82        1.9980           -0.5232968             -14.2396
        83        1.9976           -0.5206593             -14.1679
        84        1.9969           -0.5166092             -14.0577
        85        1.9962           -0.5133064             -13.9678
        86        1.9830           -0.4894194             -13.3178
        87        1.9740           -0.4826039             -13.1323
        88        1.9406           -0.4692614             -12.7693
        89        1.8799           -0.4576088             -12.4522
        90        1.8061           -0.4493910             -12.2286 (HOMO)
        91        0.4299           -0.3935522             -10.7091 (LUMO)
        92        0.0038           -0.3148747              -8.5682
        93        0.0033           -0.3125977              -8.5062
        94        0.0021           -0.3054965              -8.3130
        95        0.0019           -0.3036495              -8.2627
        96        0.0000           -0.1892689              -5.1503
        97        0.0000           -0.1807913              -4.9196
        98                         -0.1364085              -3.7119
        99                         -0.1128112              -3.0698
       100                         -0.0650106              -1.7690
       101                         -0.0614885              -1.6732
       ...                                ...                  ...
       171                          0.5810645              15.8116
      -------------------------------------------------------------
                  HL-Gap            0.0558389 Eh            1.5195 eV

     #   Z          covCN         q      C6AA      α(0)
     1   7 N        2.683    -0.099    23.190     7.152
     2   6 C        2.837     0.036    27.187     8.545
     3   6 C        3.908     0.013    20.302     6.404
     4   6 C        2.972     0.001    27.993     8.679
     5   6 C        2.920    -0.077    29.925     8.971
     6   6 C        2.862     0.132    25.106     8.213
     7   8 O        1.706    -0.227    17.763     5.690
     8   6 C        3.643     0.027    20.466     6.503
     9   6 C        2.866     0.132    25.119     8.215
    10   8 O        1.706    -0.226    17.744     5.687
    11   6 C        3.647     0.026    20.459     6.500
    12   6 C        2.914    -0.072    29.794     8.951
    13   6 C        2.922    -0.053    29.310     8.878
    14   6 C        3.816    -0.068    21.787     6.643
    15   6 C        3.808    -0.076    21.947     6.669
    16   6 C        3.734     0.093    19.118     6.240
    17   7 N        2.731    -0.145    24.146     7.298
    18   6 C        3.747     0.002    20.621     6.477
    19   6 C        3.809    -0.075    21.925     6.665
    20   6 C        2.968     0.006    27.893     8.663
    21   6 C        2.922    -0.047    29.172     8.857
    22   6 C        2.913    -0.067    29.670     8.932
    23   6 C        2.864     0.133    25.098     8.212
    24   8 O        1.706    -0.222    17.689     5.678
    25   6 C        3.645     0.026    20.479     6.504
    26   6 C        2.862     0.133    25.091     8.211
    27   8 O        1.706    -0.225    17.728     5.685
    28   6 C        3.645     0.027    20.449     6.500
    29   6 C        2.920    -0.078    29.940     8.973
    30   6 C        3.697    -0.050    21.643     6.654
    31   6 C        3.853    -0.016    20.823     6.490
    32   6 C        3.755    -0.115    22.748     6.801
    33   6 C        3.755    -0.114    22.738     6.799
    34   1 H        0.926     0.052     2.289     2.366
    35   1 H        0.924     0.053     2.288     2.365
    36   1 H        0.925     0.082     1.959     2.189
    37   1 H        0.924     0.050     2.324     2.384
    38   1 H        0.924     0.054     2.275     2.359
    39   1 H        0.925     0.082     1.963     2.191
    40   1 H        0.924     0.051     2.309     2.376
    41   1 H        0.926     0.054     2.276     2.359
    42   1 H        0.925     0.071     2.073     2.251
    43   1 H        0.925     0.059     2.214     2.327
    44   1 H        0.925     0.053     2.281     2.362
    45   1 H        0.925     0.065     2.141     2.288
    46   1 H        0.925     0.066     2.125     2.280
    47   1 H        0.926     0.032     2.562     2.503
    48   1 H        0.923     0.064     2.154     2.295
    49   1 H        0.923     0.029     2.603     2.523
    50   1 H        0.924     0.042     2.424     2.435
    51   1 H        0.924     0.060     2.205     2.322
    52   1 H        0.925     0.058     2.228     2.334
    53   1 H        0.926     0.047     2.363     2.404
    54   1 H        0.926     0.057     2.232     2.336
    55   1 H        0.924     0.054     2.276     2.359
    56   1 H        0.924     0.056     2.246     2.344
    57   1 H        0.925     0.082     1.963     2.191
    58   1 H        0.925     0.081     1.970     2.195
    59   1 H        0.924     0.049     2.332     2.388
    60   1 H        0.924     0.054     2.276     2.359
    61   1 H        0.926     0.049     2.332     2.388
    62   1 H        0.924     0.055     2.255     2.348
    63   1 H        0.924     0.039     2.463     2.454
    64   1 H        0.925     0.059     2.210     2.325
    65   1 H        0.924     0.049     2.338     2.391
    66   1 H        0.925     0.040     2.452     2.449
    67   1 H        0.925     0.044     2.396     2.421
    68   1 H        0.925     0.055     2.257     2.349
    69   1 H        0.925     0.036     2.499     2.472
    70   1 H        0.925     0.041     2.434     2.440
    71   1 H        0.925     0.058     2.221     2.331
    72   1 H        0.860     0.188     1.171     1.695

Wiberg/Mayer (AO) data.
largest (>0.10) Wiberg bond orders for each atom

     #   Z sym  total        # sym  WBO       # sym  WBO       # sym  WBO
 ---------------------------------------------------------------------------
     1   7 N    3.400 --     2 C    1.431    72 H    0.934    16 C    0.923
     2   6 C    3.533 --     1 N    1.431     3 C    1.034    42 H    0.954
     3   6 C    3.983 --     2 C    1.034    14 C    0.971     4 C    0.944
                            31 C    0.932
     4   6 C    3.927 --    13 C    1.417     5 C    1.373     3 C    0.944
     5   6 C    3.962 --     6 C    1.398     4 C    1.373    34 H    0.957
     6   6 C    3.907 --     5 C    1.398     9 C    1.222     7 O    1.103
     7   8 O    2.259 --     6 C    1.103     8 C    0.978
     8   6 C    3.932 --     7 O    0.978    36 H    0.977    37 H    0.974
                            35 H    0.973
     9   6 C    3.906 --    12 C    1.392     6 C    1.222    10 O    1.105
    10   8 O    2.258 --     9 C    1.105    11 C    0.977
    11   6 C    3.931 --    10 O    0.977    39 H    0.977    40 H    0.973
                            38 H    0.973
    12   6 C    3.964 --    13 C    1.405     9 C    1.392    41 H    0.963
    13   6 C    3.953 --     4 C    1.417    12 C    1.405    47 H    0.960
    14   6 C    3.987 --    15 C    1.007     3 C    0.971    43 H    0.970
                            44 H    0.969
    15   6 C    3.985 --    14 C    1.007    16 C    0.987    46 H    0.971
                            45 H    0.967
    16   6 C    3.955 --    17 N    1.033    15 C    0.987    48 H    0.943
                             1 N    0.923
    17   7 N    3.171 --    16 C    1.033    30 C    1.004    18 C    0.999
    18   6 C    3.970 --    17 N    0.999    19 C    0.975    50 H    0.972
                            49 H    0.965
    19   6 C    3.983 --    20 C    1.013    18 C    0.975    52 H    0.971
                            51 H    0.968
    20   6 C    3.937 --    21 C    1.399    29 C    1.385    19 C    1.013
    21   6 C    3.940 --    22 C    1.422    20 C    1.399    53 H    0.968
    22   6 C    3.956 --    21 C    1.422    23 C    1.379    54 H    0.963
    23   6 C    3.885 --    22 C    1.379    26 C    1.219    24 O    1.108
    24   8 O    2.247 --    23 C    1.108    25 C    0.977
    25   6 C    3.929 --    57 H    0.977    24 O    0.977    55 H    0.972
                            56 H    0.972
    26   6 C    3.890 --    29 C    1.391    23 C    1.219    27 O    1.103
    27   8 O    2.248 --    26 C    1.103    28 C    0.979
    28   6 C    3.932 --    27 O    0.979    58 H    0.977    60 H    0.973
                            59 H    0.973
    29   6 C    3.957 --    26 C    1.391    20 C    1.385    61 H    0.962
    30   6 C    3.972 --    17 N    1.004    64 H    0.979    62 H    0.976
                            63 H    0.974
    31   6 C    3.973 --    32 C    1.010    33 C    1.009    65 H    0.964
                             3 C    0.932
    32   6 C    3.991 --    31 C    1.010    66 H    0.983    68 H    0.982
                            67 H    0.982
    33   6 C    3.989 --    31 C    1.009    69 H    0.982    70 H    0.981
                            71 H    0.981
    34   1 H    0.996 --     5 C    0.957
    35   1 H    0.993 --     8 C    0.973
    36   1 H    0.993 --     8 C    0.977
    37   1 H    0.994 --     8 C    0.974
    38   1 H    0.993 --    11 C    0.973
    39   1 H    0.993 --    11 C    0.977
    40   1 H    0.993 --    11 C    0.973
    41   1 H    0.995 --    12 C    0.963
    42   1 H    0.994 --     2 C    0.954
    43   1 H    0.996 --    14 C    0.970
    44   1 H    0.996 --    14 C    0.969
    45   1 H    0.995 --    15 C    0.967
    46   1 H    0.995 --    15 C    0.971
    47   1 H    0.998 --    13 C    0.960
    48   1 H    0.988 --    16 C    0.943
    49   1 H    0.993 --    18 C    0.965
    50   1 H    0.998 --    18 C    0.972
    51   1 H    0.993 --    19 C    0.968
    52   1 H    0.996 --    19 C    0.971
    53   1 H    0.997 --    21 C    0.968
    54   1 H    0.995 --    22 C    0.963
    55   1 H    0.991 --    25 C    0.972
    56   1 H    0.991 --    25 C    0.972
    57   1 H    0.993 --    25 C    0.977
    58   1 H    0.993 --    28 C    0.977
    59   1 H    0.992 --    28 C    0.973
    60   1 H    0.992 --    28 C    0.973
    61   1 H    0.996 --    29 C    0.962
    62   1 H    0.992 --    30 C    0.976
    63   1 H    0.994 --    30 C    0.974
    64   1 H    0.996 --    30 C    0.979
    65   1 H    0.996 --    31 C    0.964
    66   1 H    0.998 --    32 C    0.983
    67   1 H    0.997 --    32 C    0.982
    68   1 H    0.995 --    32 C    0.982
    69   1 H    0.998 --    33 C    0.982
    70   1 H    0.998 --    33 C    0.981
    71   1 H    0.995 --    33 C    0.981
    72   1 H    0.964 --     1 N    0.934
 ---------------------------------------------------------------------------

molecular dipole:
                 x           y           z       tot (Debye)
 q only:       -0.095       0.871       0.001
   full:        0.018       1.078       0.365       2.893

           -------------------------------------------------
          | TOTAL ENERGY              -99.448768198293 Eh   |
          | GRADIENT NORM               0.005083141711 Eh/α |
          | HOMO-LUMO GAP               1.519453627113 eV   |
           -------------------------------------------------

 * finished run on 2024/04/06 at 11:15:19.327
