   * xtb version 6.6.1 (8d0f1dd) compiled by 'conda@1efc2f54142f' on 2023-08-01
          program call               : xtb struc.xyz --opt loose --input .xc1 --gfn2

   ID    Z sym.   atoms
    1    7 N      1, 17
    2    6 C      2-6, 8, 9, 11-16, 18-23, 25, 26, 28-33
    3    8 O      7, 10, 24, 27
    4    1 H      34-72
constraining bond 27 60 to    2.6333300 Å, actual value:    2.0760275 Å

          :  Hamiltonian                  GFN2-xTB          :
 * total energy  :   -99.4595871 Eh     change       -0.4035485E-08 Eh
 * total energy  :   -99.5628555 Eh     change       -0.1032684E+00 Eh
 * total energy  :   -99.7208571 Eh     change       -0.1580015E+00 Eh
 * total energy  :   -97.1899511 Eh     change        0.2530906E+01 Eh
 * total energy  :   -99.7888219 Eh     change       -0.2598871E+01 Eh
 * total energy  :   -99.8044560 Eh     change       -0.1563410E-01 Eh
 * total energy  :   -99.8099764 Eh     change       -0.5520316E-02 Eh
 * total energy  :   -99.8141224 Eh     change       -0.4146049E-02 Eh
 * total energy  :   -99.8187071 Eh     change       -0.4584709E-02 Eh
 * total energy  :   -99.8223048 Eh     change       -0.3597738E-02 Eh
 * total energy  :   -99.8449041 Eh     change       -0.1987275E-03 Eh
 * total energy  :   -99.8450057 Eh     change       -0.1015561E-03 Eh
 * total energy  :   -99.8451750 Eh     change       -0.1693426E-03 Eh
 * total energy  :   -99.8452252 Eh     change       -0.5017775E-04 Eh
 * total energy  :   -99.8453906 Eh     change       -0.1654058E-03 Eh
 * total energy  :   -99.8454627 Eh     change       -0.7211579E-04 Eh
 * total energy  :   -99.8455436 Eh     change       -0.8084639E-04 Eh
 * total energy  :   -99.8455972 Eh     change       -0.5362005E-04 Eh
 * total energy  :   -99.8456343 Eh     change       -0.3713514E-04 Eh
   *** GEOMETRY OPTIMIZATION CONVERGED AFTER 34 ITERATIONS ***

 final structure:
================
72
 xtb: 6.6.1 (8d0f1dd)
N           -1.91755222139957        2.89701276114266        2.24023799264140
C           -1.86828165174837        2.15219471972851        1.23736155942357
C           -3.00406367830246        1.93782112067432        0.27528323025635
C           -3.46158268458326        0.48909406714445        0.34995574446010
C           -4.36451610844841       -0.00399909231388       -0.59482762378059
C           -4.82545867494022       -1.30819846736381       -0.54345264966017
O           -5.70579412741238       -1.85921745756349       -1.40950307422135
C           -6.30786231271112       -1.04421710993225       -2.38642831568329
C           -4.36438744720258       -2.17349531069027        0.48278512432940
O           -4.85951097295395       -3.43053797871930        0.45129936687215
C           -4.51969672959379       -4.32105137483479        1.48741632508483
C           -3.47082287451083       -1.67890256827953        1.41788762384733
C           -3.02907991197818       -0.36273486325568        1.35291999186083
C           -2.42846226563305        2.24587026250826       -1.13244599389480
C           -1.50135328935072        1.15692023590196       -1.70140696914954
C           -0.17751314101403        1.09775508937107       -1.04278346591775
N            0.45456431690048       -0.02264231079267       -0.67763027223528
C            1.84461704629342        0.02110794627719       -0.29816323898976
C            2.77255423915552       -0.32518393305248       -1.48220690216284
C            4.20882837792155       -0.20065651206709       -1.06592833252145
C            4.85637973418038        1.02998396075791       -1.09392945207625
C            6.16678524797063        1.17488168804960       -0.67144471469521
C            6.88248169722165        0.07590968518315       -0.19716832431967
O            8.15615385231482        0.08070243532521        0.24165966438210
C            8.85397089216221        1.30839303993462        0.29365203506363
C            6.22131284067488       -1.15858100802111       -0.18067096929234
O            6.95120616057668       -2.28618643658223        0.32925855054566
C            6.31202220841038       -2.82202572764822        1.59256195765577
C            4.91040117509139       -1.30329069868794       -0.59555323249837
C           -0.17201809765573       -1.31819939571870       -0.77858213577524
C           -4.23351640610850        2.85230177890365        0.55124948375779
C           -4.88063053671703        2.52906122871406        1.89592852499909
C           -3.90285931408744        4.34098137926742        0.48242704400329
H           -4.72244636783442        0.64921864583950       -1.37326340548130
H           -6.84672045740535       -0.20631598643068       -1.93350771537463
H           -7.01505941173437       -1.68710359560611       -2.90699924379235
H           -5.57322983477157       -0.66289307499465       -3.10360215187032
H           -4.82684140420495       -3.93590034001134        2.46446991681239
H           -5.06440500371199       -5.23876102112300        1.27433742145384
H           -3.44541939125702       -4.53299388213739        1.49998615894750
H           -3.11764695236016       -2.30659401082236        2.21990562154883
H           -2.35859487760906       -0.00598588361943        2.11937537870967
H           -3.25749740792263        2.37858169502276       -1.82699960455400
H           -1.88231915659888        3.18907579908594       -1.08784205647291
H           -2.00737839914175        0.19397271286590       -1.66890876650880
H           -1.33473708610096        1.40989578471745       -2.75746520375824
H           -0.96122520477420        1.60186712527853        0.92175632585028
H            0.39284029684459        2.01187309682215       -0.97950391008870
H            2.01925439839029       -0.68513694310950        0.51784206316882
H            2.08921894711834        1.02337821740973        0.06025279241565
H            2.56073099097500        0.36202201482573       -2.30318078632344
H            2.56509947333202       -1.34126607428677       -1.81895805301365
H            4.33100875511570        1.89883119680762       -1.45923029934026
H            6.63070201999602        2.14563099642602       -0.71260899587354
H            8.34093393474435        2.02998649410340        0.93462026389647
H            8.98973388772536        1.73113142855611       -0.70542182387693
H            9.82585816443575        1.07160238881084        0.72153217524909
H            6.85120937407407       -3.73118699518069        1.83475939026737
H            6.40022537030101       -2.05770617461453        2.35325569290508
H            6.95683882135400       -2.88026092177421       -0.17792365769554
H            4.44358430042902       -2.27494782353759       -0.53743601084318
H           -0.32531478555217       -1.60741710182776       -1.82118335920563
H           -1.13920218266438       -1.31282690299430       -0.27055034304562
H            0.46293219456398       -2.06096665060170       -0.30201001744295
H           -4.96550419056112        2.63213660846175       -0.23449062889812
H           -4.19183191196495        2.75342274744721        2.70371059480894
H           -5.16397987440311        1.48086704073250        1.95309816639711
H           -5.77526140718462        3.13289780179889        2.02403272902542
H           -3.14840973354080        4.59301904583366        1.22087877542192
H           -3.55274296583107        4.63371987281360       -0.50396506751177
H           -4.79901915623237        4.91562480555612        0.70152289183792
H           -1.07518351155990        2.98277623259823        2.80122103254421

          :  Hamiltonian                  GFN2-xTB          :
         :: total energy             -99.845634343444 Eh    ::
         :: gradient norm              0.002801244790 Eh/a0 ::
         :: HOMO-LUMO gap              1.034683916293 eV    ::
         :: SCC energy              -100.674058912473 Eh    ::
         :: -> dispersion             -0.075511111716 Eh    ::
         :: repulsion energy           1.439633275091 Eh    ::

    * Orbital Energies and Occupations

         #    Occupation            Energy/Eh            Energy/eV
      -------------------------------------------------------------
         1        2.0000           -0.8754756             -23.8229
       ...           ...                  ...                  ...
        78        1.9993           -0.5248613             -14.2822
        79        1.9992           -0.5228648             -14.2279
        80        1.9989           -0.5174127             -14.0795
        81        1.9988           -0.5163871             -14.0516
        82        1.9982           -0.5102882             -13.8856
        83        1.9972           -0.5031531             -13.6915
        84        1.9967           -0.5005401             -13.6204
        85        1.9961           -0.4977364             -13.5441
        86        1.9934           -0.4893671             -13.3164
        87        1.9862           -0.4776629             -12.9979
        88        1.9532           -0.4580185             -12.4633
        89        1.9094           -0.4471931             -12.1687
        90        1.5663           -0.4192690             -11.4089 (HOMO)
        91        0.4930           -0.3812450             -10.3742 (LUMO)
        92        0.0641           -0.3449709              -9.3871
        93        0.0264           -0.3306004              -8.9961
        94        0.0183           -0.3247936              -8.8381
        95        0.0049           -0.3036309              -8.2622
        96        0.0039           -0.3001194              -8.1667
        97        0.0000           -0.2146479              -5.8409
        98        0.0000           -0.1775080              -4.8302
        99        0.0000           -0.1637395              -4.4556
       100                         -0.1254757              -3.4144
       101                         -0.0849326              -2.3111
       ...                                ...                  ...
       171                          0.5858211              15.9410
      -------------------------------------------------------------
                  HL-Gap            0.0380239 Eh            1.0347 eV

     #   Z          covCN         q      C6AA      α(0)
     1   7 N        1.774    -0.277    28.004     7.836
     2   6 C        2.827     0.101    25.758     8.316
     3   6 C        3.907     0.006    20.420     6.423
     4   6 C        2.974     0.001    28.004     8.680
     5   6 C        2.921    -0.081    30.014     8.984
     6   6 C        2.863     0.127    25.216     8.231
     7   8 O        1.706    -0.237    17.927     5.717
     8   6 C        3.644     0.030    20.408     6.493
     9   6 C        2.864     0.126    25.239     8.235
    10   8 O        1.706    -0.236    17.910     5.714
    11   6 C        3.645     0.029    20.415     6.494
    12   6 C        2.914    -0.076    29.892     8.965
    13   6 C        2.922    -0.054    29.347     8.884
    14   6 C        3.812    -0.063    21.708     6.632
    15   6 C        3.802    -0.067    21.789     6.646
    16   6 C        2.842    -0.004    28.110     8.689
    17   7 N        2.729    -0.003    21.317     6.857
    18   6 C        3.755    -0.016    20.908     6.520
    19   6 C        3.807    -0.073    21.894     6.661
    20   6 C        2.971     0.003    27.953     8.672
    21   6 C        2.923    -0.042    29.045     8.838
    22   6 C        2.919    -0.067    29.678     8.934
    23   6 C        2.861     0.140    24.948     8.187
    24   8 O        1.705    -0.242    18.011     5.730
    25   6 C        3.645     0.024    20.500     6.507
    26   6 C        2.858     0.077    26.275     8.402
    27   8 O        2.487    -0.128    16.207     5.437
    28   6 C        2.691    -0.152    31.896     9.243
    29   6 C        2.919    -0.060    29.485     8.904
    30   6 C        3.698    -0.068    21.969     6.704
    31   6 C        3.853    -0.007    20.672     6.467
    32   6 C        3.756    -0.117    22.801     6.808
    33   6 C        3.755    -0.118    22.815     6.811
    34   1 H        0.926     0.049     2.331     2.387
    35   1 H        0.924     0.051     2.307     2.375
    36   1 H        0.925     0.078     2.005     2.214
    37   1 H        0.924     0.044     2.396     2.420
    38   1 H        0.924     0.052     2.295     2.369
    39   1 H        0.925     0.077     2.006     2.215
    40   1 H        0.924     0.045     2.388     2.417
    41   1 H        0.926     0.049     2.337     2.391
    42   1 H        0.926     0.037     2.492     2.468
    43   1 H        0.925     0.057     2.238     2.339
    44   1 H        0.924     0.050     2.314     2.379
    45   1 H        0.925     0.064     2.156     2.296
    46   1 H        0.923     0.072     2.066     2.248
    47   1 H        0.922     0.003     3.001     2.709
    48   1 H        0.926     0.060     2.199     2.319
    49   1 H        0.924     0.067     2.121     2.278
    50   1 H        0.924     0.065     2.138     2.286
    51   1 H        0.924     0.058     2.219     2.330
    52   1 H        0.924     0.058     2.222     2.331
    53   1 H        0.926     0.056     2.243     2.342
    54   1 H        0.926     0.066     2.125     2.279
    55   1 H        0.924     0.056     2.251     2.346
    56   1 H        0.924     0.055     2.253     2.347
    57   1 H        0.925     0.082     1.956     2.187
    58   1 H        0.925     0.030     2.593     2.518
    59   1 H        0.925     0.034     2.526     2.486
    60   1 H        0.810     0.343     0.604     1.220
    61   1 H        0.926     0.065     2.138     2.287
    62   1 H        0.924     0.070     2.083     2.257
    63   1 H        0.924     0.078     1.996     2.209
    64   1 H        0.925     0.075     2.032     2.229
    65   1 H        0.924     0.034     2.529     2.487
    66   1 H        0.925     0.066     2.126     2.280
    67   1 H        0.925     0.034     2.531     2.488
    68   1 H        0.925     0.048     2.348     2.396
    69   1 H        0.925     0.060     2.195     2.317
    70   1 H        0.925     0.032     2.554     2.499
    71   1 H        0.925     0.051     2.305     2.374
    72   1 H        0.860     0.151     1.394     1.849

Wiberg/Mayer (AO) data.
largest (>0.10) Wiberg bond orders for each atom

     #   Z sym  total        # sym  WBO       # sym  WBO       # sym  WBO
 ---------------------------------------------------------------------------
     1   7 N    3.032 --     2 C    1.950    72 H    0.944
     2   6 C    3.926 --     1 N    1.950     3 C    0.995    47 H    0.905
     3   6 C    3.979 --     2 C    0.995     4 C    0.970    14 C    0.956
                            31 C    0.945
     4   6 C    3.957 --    13 C    1.421     5 C    1.366     3 C    0.970
     5   6 C    3.967 --     6 C    1.406     4 C    1.366    34 H    0.958
     6   6 C    3.913 --     5 C    1.406     9 C    1.230     7 O    1.090
     7   8 O    2.251 --     6 C    1.090     8 C    0.980
     8   6 C    3.936 --     7 O    0.980    36 H    0.977    35 H    0.974
                            37 H    0.974
     9   6 C    3.910 --    12 C    1.398     6 C    1.230    10 O    1.092
    10   8 O    2.250 --     9 C    1.092    11 C    0.980
    11   6 C    3.935 --    10 O    0.980    39 H    0.977    40 H    0.974
                            38 H    0.974
    12   6 C    3.967 --    13 C    1.400     9 C    1.398    41 H    0.964
    13   6 C    3.962 --     4 C    1.421    12 C    1.400    42 H    0.963
    14   6 C    3.972 --    15 C    0.982    44 H    0.973    43 H    0.969
                             3 C    0.956
    15   6 C    3.988 --    16 C    1.059    14 C    0.982    45 H    0.961
                            46 H    0.930
    16   6 C    3.525 --    17 N    1.353    15 C    1.059    48 H    0.960
    17   7 N    3.434 --    16 C    1.353    30 C    1.000    18 C    0.995
    18   6 C    3.962 --    17 N    0.995    50 H    0.968    49 H    0.966
                            19 C    0.965
    19   6 C    3.977 --    20 C    1.012    52 H    0.972    51 H    0.971
                            18 C    0.965
    20   6 C    3.965 --    29 C    1.395    21 C    1.393    19 C    1.012
    21   6 C    3.949 --    22 C    1.443    20 C    1.393    53 H    0.968
    22   6 C    3.953 --    21 C    1.443    23 C    1.343    54 H    0.963
    23   6 C    3.923 --    22 C    1.343    26 C    1.310    24 O    1.104
    24   8 O    2.266 --    23 C    1.104    25 C    0.970
    25   6 C    3.928 --    57 H    0.977    55 H    0.976    56 H    0.976
                            24 O    0.970
    26   6 C    3.820 --    29 C    1.413    23 C    1.310    27 O    0.885
    27   8 O    2.566 --    26 C    0.885    60 H    0.866    28 C    0.759
    28   6 C    2.743 --    59 H    0.978    58 H    0.973    27 O    0.759
    29   6 C    3.944 --    26 C    1.413    20 C    1.395    61 H    0.962
    30   6 C    3.961 --    17 N    1.000    64 H    0.978    62 H    0.968
                            63 H    0.963
    31   6 C    3.977 --    33 C    1.009    32 C    1.009    65 H    0.962
                             3 C    0.945
    32   6 C    3.984 --    31 C    1.009    67 H    0.983    68 H    0.983
                            66 H    0.976
    33   6 C    3.986 --    31 C    1.009    70 H    0.984    71 H    0.981
                            69 H    0.977
    34   1 H    0.996 --     5 C    0.958
    35   1 H    0.995 --     8 C    0.974
    36   1 H    0.993 --     8 C    0.977
    37   1 H    0.995 --     8 C    0.974
    38   1 H    0.994 --    11 C    0.974
    39   1 H    0.993 --    11 C    0.977
    40   1 H    0.995 --    11 C    0.974
    41   1 H    0.996 --    12 C    0.964
    42   1 H    0.998 --    13 C    0.963
    43   1 H    0.995 --    14 C    0.969
    44   1 H    0.997 --    14 C    0.973
    45   1 H    0.995 --    15 C    0.961
    46   1 H    0.967 --    15 C    0.930
    47   1 H    0.990 --     2 C    0.905
    48   1 H    0.996 --    16 C    0.960
    49   1 H    0.991 --    18 C    0.966
    50   1 H    0.994 --    18 C    0.968
    51   1 H    0.996 --    19 C    0.971
    52   1 H    0.996 --    19 C    0.972
    53   1 H    0.997 --    21 C    0.968
    54   1 H    0.995 --    22 C    0.963
    55   1 H    0.996 --    25 C    0.976
    56   1 H    0.996 --    25 C    0.976
    57   1 H    0.993 --    25 C    0.977
    58   1 H    0.986 --    28 C    0.973
    59   1 H    0.983 --    28 C    0.978
    60   1 H    0.881 --    27 O    0.866
    61   1 H    0.995 --    29 C    0.962
    62   1 H    0.984 --    30 C    0.968
    63   1 H    0.987 --    30 C    0.963
    64   1 H    0.994 --    30 C    0.978
    65   1 H    0.995 --    31 C    0.962
    66   1 H    0.993 --    32 C    0.976
    67   1 H    0.997 --    32 C    0.983
    68   1 H    0.995 --    32 C    0.983
    69   1 H    0.994 --    33 C    0.977
    70   1 H    0.998 --    33 C    0.984
    71   1 H    0.995 --    33 C    0.981
    72   1 H    0.973 --     1 N    0.944
 ---------------------------------------------------------------------------

molecular dipole:
                 x           y           z       tot (Debye)
 q only:        3.201      -0.393      -1.364
   full:        4.016      -0.532      -1.602      11.072

           -------------------------------------------------
          | TOTAL ENERGY              -99.845634343444 Eh   |
          | GRADIENT NORM               0.002801244790 Eh/α |
          | HOMO-LUMO GAP               1.034683916293 eV   |
           -------------------------------------------------

 * finished run on 2024/04/06 at 11:15:57.351
