   * xtb version 6.6.1 (8d0f1dd) compiled by 'conda@1efc2f54142f' on 2023-08-01
          program call               : xtb xtbopt.xyz --opt crude --input .xc2 --gfn2

   ID    Z sym.   atoms
    1    7 N      1, 17
    2    6 C      2-6, 8, 9, 11-16, 18-23, 25, 26, 28-33
    3    8 O      7, 10, 24, 27
    4    1 H      34-72
########################################################################
[WARNING] Please study the warnings concerning your input carefully
-1- readin_getIntValue: could not parse ''
########################################################################

          :  Hamiltonian                  GFN2-xTB          :
 * total energy  :   -99.2330927 Eh     change       -0.6303935E-10 Eh
 * total energy  :   -99.2807396 Eh     change       -0.4764683E-01 Eh
 * total energy  :   -99.2810841 Eh     change       -0.3445466E-03 Eh
 * total energy  :   -99.2812350 Eh     change       -0.1508874E-03 Eh
   *** GEOMETRY OPTIMIZATION CONVERGED AFTER 4 ITERATIONS ***

 final structure:
================
72
 xtb: 6.6.1 (8d0f1dd)
N           -1.91547235162743        2.89590828057373        2.23997165355587
C           -1.86701705663832        2.15289523277657        1.23557103751606
C           -3.00370738772764        1.93807171314904        0.27498970448436
C           -3.46091086035151        0.48930375022392        0.35008968683931
C           -4.36295979906371       -0.00399342990564       -0.59532799032559
C           -4.82345905613063       -1.30829703688991       -0.54460690899224
O           -5.70231578450809       -1.85953696817001       -1.41206156621398
C           -6.30360980031699       -1.04407345480878       -2.38903437252041
C           -4.36324415078368       -2.17333148402362        0.48209792419840
O           -4.85773773562350       -3.43066383525730        0.44989940204784
C           -4.51935576212918       -4.32095222531157        1.48660852622001
C           -3.47094693841954       -1.67837462478158        1.41811048606713
C           -3.02914008040625       -0.36219981557483        1.35351516572632
C           -2.42994195800031        2.24524933473788       -1.13364370348781
C           -1.50137573030463        1.15690967221299       -1.70165628313734
C           -0.17773889028110        1.09831725554712       -1.04211522927729
N            0.45472932242535       -0.02257649368365       -0.67738031155649
C            1.84489807778623        0.02113218892736       -0.29793804393682
C            2.77480164249561       -0.32627301772216       -1.48002027644473
C            4.21008774490968       -0.19902085133291       -1.06039978851990
C            4.85565055861277        1.03275885481436       -1.09633856762590
C            6.16538175832255        1.18339458172865       -0.67352221922649
C            6.88043950593871        0.08780953644910       -0.18954986519281
O            8.15443876945230        0.09321458803985        0.24885964687679
C            8.85736840371169        1.31810116962497        0.29016293534169
C            6.22106792235818       -1.14918813908216       -0.16164511361748
O            6.96100249686260       -2.25547797868338        0.36688809936338
C            6.29746386947099       -2.82441265257324        1.59147357939011
C            4.91109395483566       -1.29775001271576       -0.57867592380225
C           -0.17269258778044       -1.31803676034098       -0.77526110353291
C           -4.23341036495851        2.85166761853406        0.55279579547477
C           -4.87740894318327        2.52811362250186        1.89893925065770
C           -3.90439666155742        4.34060863625335        0.48337135928369
H           -4.72045029277338        0.64915423859864       -1.37397900870793
H           -6.84184589207455       -0.20573386348663       -1.93626272925448
H           -7.01118344214050       -1.68640447172000       -2.90970318748955
H           -5.56853411172455       -0.66333012929910       -3.10601975194662
H           -4.82698985889188       -3.93524069498469        2.46321859100700
H           -5.06448696786371       -5.23835837212581        1.27338960754522
H           -3.44526384188093       -4.53353962321989        1.50007828389230
H           -3.11868196015255       -2.30604784506177        2.22053666740309
H           -2.35927964031825       -0.00493468496878        2.12021832804633
H           -3.25999767526649        2.37494606640914       -1.82757902595884
H           -1.88555679282767        3.18952673375828       -1.09114653834891
H           -2.00698580738490        0.19365591444797       -1.66896925604608
H           -1.33444334652583        1.40945491133614       -2.75780434793626
H           -0.95928455153717        1.60494652102661        0.91729475917921
H            0.39343014308736        2.01205220470048       -0.98148204698951
H            2.01918039297952       -0.68428931891819        0.51879560895475
H            2.08930244225256        1.02360518652779        0.06011324303187
H            2.56319568741668        0.35924552086091       -2.30242636889443
H            2.56841680196136       -1.34288819040466       -1.81587677452413
H            4.32906566337514        1.89792855182843       -1.46958379888567
H            6.62794884914134        2.15496179011263       -0.72231279603444
H            8.35258909459973        2.04416442065750        0.93264358886429
H            8.98669553876882        1.73594013610509       -0.71168451121975
H            9.83160671821842        1.07822216786760        0.71102283104020
H            6.83328333227674       -3.73220231708154        1.83817522853541
H            6.35076025778743       -2.06976780370399        2.36733453779180
H            6.97362669987403       -2.98767201949721       -0.27386170493468
H            4.44663001136034       -2.27022566868451       -0.51583856526958
H           -0.32752735458370       -1.60935375586628       -1.81711466711209
H           -1.13925760060695       -1.31143188176841       -0.26603385412951
H            0.46273995275461       -2.05998929788545       -0.29808718250111
H           -4.96667267865465        2.63065732503807       -0.23151771543541
H           -4.18699129670971        2.75360997052824        2.70501250819050
H           -5.15920466194871        1.47957937606482        1.95715011570507
H           -5.77249976053537        3.13084090023383        2.02890855582069
H           -3.15091388454118        4.59387396069014        1.22239495390830
H           -3.55370510689804        4.63331534703558       -0.50282578742525
H           -4.80148070979049        4.91428236036540        0.70131898997055
H           -1.07230088061299        2.98228860174847        2.79960107712267

          :  Hamiltonian                  GFN2-xTB          :
         :: total energy             -99.281234997732 Eh    ::
         :: gradient norm              0.003281313254 Eh/a0 ::
         :: HOMO-LUMO gap              1.022406814897 eV    ::
         :: SCC energy              -100.651327247565 Eh    ::
         :: -> dispersion             -0.075521504539 Eh    ::
         :: repulsion energy           1.368759340296 Eh    ::

    * Orbital Energies and Occupations

         #    Occupation            Energy/Eh            Energy/eV
      -------------------------------------------------------------
         1        2.0000           -0.8663768             -23.5753
       ...           ...                  ...                  ...
        78        1.9993           -0.5243109             -14.2672
        79        1.9992           -0.5220349             -14.2053
        80        1.9989           -0.5169580             -14.0671
        81        1.9988           -0.5158758             -14.0377
        82        1.9983           -0.5097637             -13.8714
        83        1.9973           -0.5026531             -13.6779
        84        1.9968           -0.5000708             -13.6076
        85        1.9962           -0.4972147             -13.5299
        86        1.9934           -0.4884898             -13.2925
        87        1.9865           -0.4771108             -12.9828
        88        1.9540           -0.4574544             -12.4480
        89        1.9111           -0.4466666             -12.1544
        90        1.5591           -0.4180955             -11.3770 (HOMO)
        91        0.4958           -0.3805228             -10.3546 (LUMO)
        92        0.0647           -0.3442966              -9.3688
        93        0.0267           -0.3299409              -8.9781
        94        0.0187           -0.3242385              -8.8230
        95        0.0049           -0.3030515              -8.2465
        96        0.0040           -0.2995301              -8.1506
        97        0.0000           -0.2135741              -5.8116
        98        0.0000           -0.1768979              -4.8136
        99        0.0000           -0.1746020              -4.7512
       100                         -0.1249579              -3.4003
       101                         -0.0789520              -2.1484
       ...                                ...                  ...
       171                          0.5865233              15.9601
      -------------------------------------------------------------
                  HL-Gap            0.0375728 Eh            1.0224 eV

     #   Z          covCN         q      C6AA      α(0)
     1   7 N        1.773    -0.277    28.012     7.837
     2   6 C        2.827     0.101    25.759     8.317
     3   6 C        3.907     0.006    20.419     6.423
     4   6 C        2.974     0.001    28.004     8.680
     5   6 C        2.921    -0.081    30.015     8.984
     6   6 C        2.863     0.127    25.218     8.231
     7   8 O        1.706    -0.237    17.932     5.717
     8   6 C        3.644     0.030    20.406     6.493
     9   6 C        2.864     0.126    25.242     8.235
    10   8 O        1.706    -0.236    17.915     5.715
    11   6 C        3.645     0.029    20.414     6.493
    12   6 C        2.914    -0.076    29.893     8.966
    13   6 C        2.922    -0.054    29.347     8.884
    14   6 C        3.812    -0.063    21.707     6.632
    15   6 C        3.802    -0.067    21.787     6.646
    16   6 C        2.842    -0.004    28.117     8.690
    17   7 N        2.729    -0.004    21.331     6.859
    18   6 C        3.755    -0.015    20.903     6.519
    19   6 C        3.807    -0.073    21.891     6.660
    20   6 C        2.970     0.003    27.961     8.674
    21   6 C        2.923    -0.042    29.050     8.839
    22   6 C        2.918    -0.068    29.684     8.934
    23   6 C        2.861     0.140    24.946     8.187
    24   8 O        1.705    -0.242    18.017     5.731
    25   6 C        3.645     0.025    20.494     6.506
    26   6 C        2.858     0.079    26.241     8.396
    27   8 O        2.485    -0.121    16.099     5.419
    28   6 C        2.695    -0.148    31.791     9.228
    29   6 C        2.919    -0.061    29.505     8.907
    30   6 C        3.698    -0.067    21.965     6.703
    31   6 C        3.853    -0.007    20.671     6.467
    32   6 C        3.756    -0.117    22.802     6.809
    33   6 C        3.755    -0.118    22.812     6.810
    34   1 H        0.926     0.049     2.332     2.388
    35   1 H        0.924     0.051     2.309     2.376
    36   1 H        0.925     0.077     2.007     2.215
    37   1 H        0.924     0.044     2.397     2.421
    38   1 H        0.924     0.052     2.297     2.370
    39   1 H        0.925     0.077     2.007     2.216
    40   1 H        0.924     0.045     2.390     2.418
    41   1 H        0.926     0.048     2.340     2.392
    42   1 H        0.926     0.037     2.493     2.469
    43   1 H        0.925     0.057     2.240     2.340
    44   1 H        0.924     0.050     2.316     2.380
    45   1 H        0.925     0.064     2.158     2.297
    46   1 H        0.923     0.071     2.070     2.250
    47   1 H        0.922     0.003     3.000     2.709
    48   1 H        0.926     0.060     2.203     2.321
    49   1 H        0.924     0.066     2.126     2.280
    50   1 H        0.924     0.065     2.140     2.288
    51   1 H        0.924     0.058     2.222     2.331
    52   1 H        0.924     0.058     2.228     2.334
    53   1 H        0.926     0.056     2.249     2.345
    54   1 H        0.926     0.066     2.132     2.283
    55   1 H        0.924     0.055     2.254     2.348
    56   1 H        0.924     0.055     2.258     2.350
    57   1 H        0.925     0.082     1.960     2.189
    58   1 H        0.925     0.028     2.615     2.529
    59   1 H        0.925     0.033     2.537     2.491
    60   1 H        0.804     0.344     0.602     1.219
    61   1 H        0.926     0.064     2.151     2.294
    62   1 H        0.924     0.070     2.086     2.259
    63   1 H        0.924     0.078     1.997     2.210
    64   1 H        0.925     0.075     2.036     2.231
    65   1 H        0.924     0.034     2.530     2.488
    66   1 H        0.925     0.066     2.126     2.280
    67   1 H        0.925     0.034     2.532     2.488
    68   1 H        0.925     0.048     2.350     2.397
    69   1 H        0.925     0.060     2.197     2.318
    70   1 H        0.925     0.032     2.555     2.500
    71   1 H        0.925     0.051     2.307     2.375
    72   1 H        0.860     0.151     1.395     1.850

Wiberg/Mayer (AO) data.
largest (>0.10) Wiberg bond orders for each atom

     #   Z sym  total        # sym  WBO       # sym  WBO       # sym  WBO
 ---------------------------------------------------------------------------
     1   7 N    3.032 --     2 C    1.950    72 H    0.944
     2   6 C    3.925 --     1 N    1.950     3 C    0.996    47 H    0.905
     3   6 C    3.979 --     2 C    0.996     4 C    0.970    14 C    0.956
                            31 C    0.945
     4   6 C    3.958 --    13 C    1.421     5 C    1.366     3 C    0.970
     5   6 C    3.967 --     6 C    1.406     4 C    1.366    34 H    0.958
     6   6 C    3.913 --     5 C    1.406     9 C    1.231     7 O    1.090
     7   8 O    2.251 --     6 C    1.090     8 C    0.980
     8   6 C    3.936 --     7 O    0.980    36 H    0.977    35 H    0.974
                            37 H    0.974
     9   6 C    3.910 --    12 C    1.398     6 C    1.231    10 O    1.091
    10   8 O    2.250 --     9 C    1.091    11 C    0.980
    11   6 C    3.936 --    10 O    0.980    39 H    0.978    40 H    0.975
                            38 H    0.974
    12   6 C    3.967 --    13 C    1.399     9 C    1.398    41 H    0.964
    13   6 C    3.963 --     4 C    1.421    12 C    1.399    42 H    0.963
    14   6 C    3.972 --    15 C    0.982    44 H    0.973    43 H    0.969
                             3 C    0.956
    15   6 C    3.988 --    16 C    1.059    14 C    0.982    45 H    0.961
                            46 H    0.930
    16   6 C    3.523 --    17 N    1.352    15 C    1.059    48 H    0.960
    17   7 N    3.432 --    16 C    1.352    30 C    1.000    18 C    0.995
    18   6 C    3.962 --    17 N    0.995    50 H    0.968    49 H    0.966
                            19 C    0.966
    19   6 C    3.977 --    20 C    1.012    52 H    0.973    51 H    0.971
                            18 C    0.966
    20   6 C    3.965 --    29 C    1.395    21 C    1.393    19 C    1.012
    21   6 C    3.949 --    22 C    1.443    20 C    1.393    53 H    0.968
    22   6 C    3.953 --    21 C    1.443    23 C    1.344    54 H    0.963
    23   6 C    3.923 --    22 C    1.344    26 C    1.307    24 O    1.104
    24   8 O    2.265 --    23 C    1.104    25 C    0.970
    25   6 C    3.929 --    57 H    0.977    55 H    0.976    56 H    0.976
                            24 O    0.970
    26   6 C    3.823 --    29 C    1.413    23 C    1.307    27 O    0.891
    27   8 O    2.570 --    26 C    0.891    60 H    0.855    28 C    0.771
    28   6 C    2.752 --    59 H    0.976    58 H    0.973    27 O    0.771
    29   6 C    3.944 --    26 C    1.413    20 C    1.395    61 H    0.962
    30   6 C    3.961 --    17 N    1.000    64 H    0.978    62 H    0.968
                            63 H    0.963
    31   6 C    3.977 --    33 C    1.009    32 C    1.009    65 H    0.962
                             3 C    0.945
    32   6 C    3.984 --    31 C    1.009    67 H    0.983    68 H    0.983
                            66 H    0.976
    33   6 C    3.986 --    31 C    1.009    70 H    0.984    71 H    0.981
                            69 H    0.977
    34   1 H    0.996 --     5 C    0.958
    35   1 H    0.995 --     8 C    0.974
    36   1 H    0.993 --     8 C    0.977
    37   1 H    0.995 --     8 C    0.974
    38   1 H    0.994 --    11 C    0.974
    39   1 H    0.993 --    11 C    0.978
    40   1 H    0.995 --    11 C    0.975
    41   1 H    0.996 --    12 C    0.964
    42   1 H    0.998 --    13 C    0.963
    43   1 H    0.995 --    14 C    0.969
    44   1 H    0.997 --    14 C    0.973
    45   1 H    0.995 --    15 C    0.961
    46   1 H    0.967 --    15 C    0.930
    47   1 H    0.990 --     2 C    0.905
    48   1 H    0.996 --    16 C    0.960
    49   1 H    0.992 --    18 C    0.966
    50   1 H    0.994 --    18 C    0.968
    51   1 H    0.996 --    19 C    0.971
    52   1 H    0.996 --    19 C    0.973
    53   1 H    0.997 --    21 C    0.968
    54   1 H    0.995 --    22 C    0.963
    55   1 H    0.996 --    25 C    0.976
    56   1 H    0.996 --    25 C    0.976
    57   1 H    0.993 --    25 C    0.977
    58   1 H    0.986 --    28 C    0.973
    59   1 H    0.984 --    28 C    0.976
    60   1 H    0.879 --    27 O    0.855
    61   1 H    0.995 --    29 C    0.962
    62   1 H    0.984 --    30 C    0.968
    63   1 H    0.987 --    30 C    0.963
    64   1 H    0.994 --    30 C    0.978
    65   1 H    0.995 --    31 C    0.962
    66   1 H    0.993 --    32 C    0.976
    67   1 H    0.998 --    32 C    0.983
    68   1 H    0.995 --    32 C    0.983
    69   1 H    0.994 --    33 C    0.977
    70   1 H    0.998 --    33 C    0.984
    71   1 H    0.995 --    33 C    0.981
    72   1 H    0.973 --     1 N    0.944
 ---------------------------------------------------------------------------

molecular dipole:
                 x           y           z       tot (Debye)
 q only:        3.326      -0.515      -1.419
   full:        4.122      -0.621      -1.629      11.376

           -------------------------------------------------
          | TOTAL ENERGY              -99.281234997732 Eh   |
          | GRADIENT NORM               0.003281313254 Eh/α |
          | HOMO-LUMO GAP               1.022406814897 eV   |
           -------------------------------------------------

 * finished run on 2024/04/06 at 11:15:58.309
