   * xtb version 6.6.1 (8d0f1dd) compiled by 'conda@1efc2f54142f' on 2023-08-01
          program call               : xtb struc.xyz --opt loose --input .xc1 --gfn2

   ID    Z sym.   atoms
    1    7 N      1, 17
    2    6 C      2-6, 8, 9, 11-16, 18-23, 25, 26, 28-33
    3    8 O      7, 10, 24, 27
    4    1 H      34-72
constraining bond 1 3 to    4.9200000 Å, actual value:    2.4539455 Å

          :  Hamiltonian                  GFN2-xTB          :
 * total energy  :   -98.3182730 Eh     change       -0.4035485E-08 Eh
 * total energy  :   -98.5770963 Eh     change       -0.2588232E+00 Eh
 * total energy  :   -98.7483907 Eh     change       -0.1712944E+00 Eh
 * total energy  :   -98.8783280 Eh     change       -0.1299374E+00 Eh
 * total energy  :   -98.9852526 Eh     change       -0.1069246E+00 Eh
 * total energy  :   -99.0625099 Eh     change       -0.7725727E-01 Eh
 * total energy  :   -99.1181349 Eh     change       -0.5562509E-01 Eh
 * total energy  :   -99.1834245 Eh     change       -0.6528959E-01 Eh
 * total energy  :   -99.2085145 Eh     change       -0.2508994E-01 Eh
 * total energy  :   -99.2295817 Eh     change       -0.2106725E-01 Eh
 * total energy  :   -99.3015907 Eh     change       -0.7407828E-04 Eh
 * total energy  :   -99.3016592 Eh     change       -0.6848719E-04 Eh
 * total energy  :   -99.3017066 Eh     change       -0.4741023E-04 Eh
 * total energy  :   -99.3017609 Eh     change       -0.5428616E-04 Eh
 * total energy  :   -99.3018517 Eh     change       -0.9085301E-04 Eh
 * total energy  :   -99.3019304 Eh     change       -0.7872742E-04 Eh
 * total energy  :   -99.3019977 Eh     change       -0.6721811E-04 Eh
 * total energy  :   -99.3020545 Eh     change       -0.5681224E-04 Eh
 * total energy  :   -99.3020906 Eh     change       -0.3616595E-04 Eh
   *** GEOMETRY OPTIMIZATION CONVERGED AFTER 94 ITERATIONS ***

 final structure:
================
72
 xtb: 6.6.1 (8d0f1dd)
N           -1.65364631682981        1.21706282367225        4.22164488018848
C           -0.77205055068499        0.84903771381106        3.48193714040879
C           -3.17559048739096        1.76512687962149       -0.42754701940222
C           -3.60060162526601        0.48258414335875       -0.03740492013405
C           -4.29175243178772       -0.37137128384965       -0.94627938941281
C           -4.67097316236659       -1.64877845105618       -0.60929958179589
O           -5.34424134379888       -2.50558418741380       -1.41098915294957
C           -5.77066069138777       -2.07097407333296       -2.67917037024631
C           -4.35260760410030       -2.16943160215155        0.67926486559302
O           -4.74017649230932       -3.43713042776499        0.90553801364035
C           -4.52196085970008       -4.00800571279448        2.17491111290500
C           -3.68410166598359       -1.34398658956848        1.57890601198676
C           -3.32839596658646       -0.05739695212065        1.24220804210058
C           -3.03952735937951        2.08766999761525       -1.88237342115764
C           -2.03009540722261        1.16411551400065       -2.63866511919742
C           -0.65372066052849        1.33715599596287       -2.14532882683053
N           -0.00248141076610        0.47393748717707       -1.37756377660888
C            1.33713885613205        0.75590249032131       -0.92071753441345
C            2.40823316815586        0.10498951059480       -1.81809867591181
C            3.76586469834817        0.27004509181744       -1.19412300062568
C            4.45759816081685        1.46459429961815       -1.30534434532111
C            5.69205653537600        1.62878967385498       -0.69555684332212
C            6.26006416683347        0.59920809591751        0.04052761847656
O            7.44781699859375        0.64843251999798        0.67554762517631
C            8.22225542741126        1.82227990165073        0.59217406449772
C            5.56016519507517       -0.63184124469213        0.15616193883106
O            6.18599213090907       -1.58463223338683        0.87999404691668
C            5.59244452781750       -2.85458742930126        1.00132373853022
C            4.32526937259815       -0.77065490930951       -0.45623542297134
C           -0.53316065857152       -0.83375047025143       -1.07070505813215
C           -2.82606092870405        2.88147126299680        0.51893543928062
C           -3.75095025942006        2.99990376330165        1.73656966333919
C           -1.35389262899140        2.84147912062902        0.95845157319870
H           -4.59100392598891        0.02159645629469       -1.90269775161903
H           -6.44083707475998       -1.20901175374251       -2.60553744402189
H           -6.31292216885824       -2.91129635885332       -3.10821408430580
H           -4.92281600974547       -1.82147044600087       -3.32626587929173
H           -5.02428960965051       -3.43885854633372        2.96215197010267
H           -4.94878259767587       -5.00778272107534        2.12297818880189
H           -3.45362456830827       -4.08171407654923        2.40185352277140
H           -3.43285484434036       -1.70931578238619        2.56183128393192
H           -2.77771803578408        0.51947504279833        1.96176341069958
H           -4.00047519789397        1.99080205486300       -2.39361417349326
H           -2.71140039041045        3.11985366573470       -2.00711532309787
H           -2.35867191570147        0.13127099136195       -2.55229528846729
H           -2.06544406776796        1.46227724977258       -3.68971671479300
H            0.26680822593825        0.55995849369630        3.54234108071810
H           -0.15164207785384        2.26852506969276       -2.35703194239238
H            1.44347120521257        0.37780273596023        0.09956758051728
H            1.49817291706990        1.83528011886315       -0.89933200957443
H            2.38210752940239        0.57873362978742       -2.80081797856236
H            2.18354729134417       -0.95508856949301       -1.94227551457643
H            4.04313145128651        2.27858091180025       -1.88028998356791
H            6.20912650229523        2.56789438726697       -0.80466761992445
H            7.69896792227861        2.68004253020096        1.02601868036920
H            8.49848072270272        2.04742133221539       -0.44228720537645
H            9.12205614112518        1.61939977247179        1.16978548525980
H            6.28907270903336       -3.44800380477282        1.59024825595880
H            4.63198770360160       -2.80172345175058        1.52475003614252
H            5.45116514090293       -3.32721324159555        0.02427399946786
H            3.78804254329119       -1.70302869618776       -0.37768830985470
H           -0.73017017190898       -1.40181001220061       -1.98213141696599
H           -1.46145705652148       -0.74866606005712       -0.50225627295512
H            0.18914631638573       -1.38261706040489       -0.47298464589669
H           -2.95001004978224        3.80825092249435       -0.05512662008058
H           -3.44584449795512        2.35315066508378        2.55178139841522
H           -4.77446257777719        2.75843764953077        1.46293998160071
H           -3.72783195607000        4.02382056292023        2.10180581888055
H           -1.14347076124474        1.95578354618623        1.55976994613777
H           -0.69671815123370        2.84531681983743        0.09253805154978
H           -1.13536845162690        3.71884814760233        1.56200976868059
H           -1.68920329234177        1.38355662850635        5.22650924479205

          :  Hamiltonian                  GFN2-xTB          :
         :: total energy             -99.302090638371 Eh    ::
         :: gradient norm              0.001573998111 Eh/a0 ::
         :: HOMO-LUMO gap              0.046076917542 eV    ::
         :: SCC energy              -100.701076395370 Eh    ::
         :: -> dispersion             -0.073160364174 Eh    ::
         :: repulsion energy           1.397172261654 Eh    ::

    * Orbital Energies and Occupations

         #    Occupation            Energy/Eh            Energy/eV
      -------------------------------------------------------------
         1        2.0000           -0.8074141             -21.9709
       ...           ...                  ...                  ...
        78        1.9991           -0.5304852             -14.4352
        79        1.9989           -0.5278544             -14.3636
        80        1.9989           -0.5275524             -14.3554
        81        1.9986           -0.5237960             -14.2532
        82        1.9982           -0.5193875             -14.1333
        83        1.9976           -0.5152095             -14.0196
        84        1.9971           -0.5122062             -13.9378
        85        1.9953           -0.5045959             -13.7308
        86        1.9893           -0.4914081             -13.3719
        87        1.9824           -0.4834960             -13.1566
        88        1.9419           -0.4642560             -12.6330
        89        1.8718           -0.4511362             -12.2760
        90        0.9425           -0.4068594             -11.0712 (HOMO)
        91        0.8894           -0.4051661             -11.0251 (LUMO)
        92        0.3814           -0.3857918             -10.4979
        93        0.0124           -0.3282956              -8.9334
        94        0.0033           -0.3072019              -8.3594
        95        0.0032           -0.3069993              -8.3539
        96        0.0028           -0.3048553              -8.2955
        97        0.0010           -0.2882613              -7.8440
        98        0.0000           -0.1820388              -4.9535
        99        0.0000           -0.1796363              -4.8882
       100                         -0.1260184              -3.4291
       101                         -0.0620833              -1.6894
       ...                                ...                  ...
       171                          0.6851805              18.6447
      -------------------------------------------------------------
                  HL-Gap            0.0016933 Eh            0.0461 eV

     #   Z          covCN         q      C6AA      α(0)
     1   7 N        1.770    -0.181    25.699     7.506
     2   6 C        1.836    -0.016    31.596     9.081
     3   6 C        2.952    -0.009    28.239     8.716
     4   6 C        2.962     0.003    27.963     8.674
     5   6 C        2.919    -0.089    30.219     9.015
     6   6 C        2.857     0.128    25.184     8.225
     7   8 O        1.706    -0.239    17.965     5.723
     8   6 C        3.644     0.030    20.410     6.494
     9   6 C        2.864     0.131    25.133     8.218
    10   8 O        1.706    -0.221    17.673     5.676
    11   6 C        3.645     0.026    20.468     6.502
    12   6 C        2.909    -0.071    29.758     8.945
    13   6 C        2.920    -0.053    29.321     8.880
    14   6 C        3.805    -0.064    21.733     6.637
    15   6 C        3.801    -0.068    21.806     6.649
    16   6 C        2.844     0.004    27.920     8.660
    17   7 N        2.729     0.021    20.881     6.787
    18   6 C        3.756    -0.018    20.956     6.527
    19   6 C        3.807    -0.071    21.847     6.654
    20   6 C        2.969    -0.002    28.063     8.689
    21   6 C        2.922    -0.050    29.239     8.867
    22   6 C        2.914    -0.068    29.700     8.937
    23   6 C        2.865     0.132    25.117     8.215
    24   8 O        1.706    -0.227    17.760     5.690
    25   6 C        3.645     0.026    20.467     6.502
    26   6 C        2.863     0.131    25.132     8.217
    27   8 O        1.706    -0.230    17.810     5.698
    28   6 C        3.645     0.029    20.423     6.495
    29   6 C        2.920    -0.081    30.015     8.984
    30   6 C        3.700    -0.073    22.072     6.719
    31   6 C        3.852    -0.014    20.785     6.484
    32   6 C        3.753    -0.117    22.796     6.808
    33   6 C        3.753    -0.110    22.660     6.788
    34   1 H        0.926     0.049     2.334     2.389
    35   1 H        0.924     0.051     2.311     2.377
    36   1 H        0.925     0.079     1.992     2.207
    37   1 H        0.924     0.042     2.419     2.432
    38   1 H        0.924     0.056     2.242     2.341
    39   1 H        0.925     0.081     1.968     2.194
    40   1 H        0.924     0.050     2.319     2.382
    41   1 H        0.926     0.050     2.321     2.382
    42   1 H        0.926     0.070     2.083     2.257
    43   1 H        0.924     0.068     2.105     2.269
    44   1 H        0.924     0.054     2.276     2.359
    45   1 H        0.925     0.065     2.140     2.288
    46   1 H        0.924     0.073     2.052     2.240
    47   1 H        0.926     0.063     2.169     2.303
    48   1 H        0.926     0.066     2.126     2.280
    49   1 H        0.924     0.068     2.109     2.271
    50   1 H        0.924     0.068     2.110     2.272
    51   1 H        0.924     0.056     2.244     2.342
    52   1 H        0.924     0.054     2.272     2.357
    53   1 H        0.926     0.044     2.399     2.422
    54   1 H        0.926     0.057     2.239     2.340
    55   1 H        0.924     0.052     2.297     2.370
    56   1 H        0.924     0.054     2.266     2.354
    57   1 H        0.925     0.080     1.976     2.198
    58   1 H        0.925     0.080     1.983     2.202
    59   1 H        0.924     0.045     2.384     2.414
    60   1 H        0.924     0.051     2.307     2.375
    61   1 H        0.926     0.045     2.388     2.416
    62   1 H        0.924     0.075     2.037     2.232
    63   1 H        0.924     0.084     1.937     2.177
    64   1 H        0.925     0.078     2.003     2.213
    65   1 H        0.924     0.046     2.374     2.409
    66   1 H        0.925     0.057     2.236     2.339
    67   1 H        0.925     0.044     2.396     2.421
    68   1 H        0.925     0.047     2.357     2.401
    69   1 H        0.924     0.050     2.326     2.385
    70   1 H        0.925     0.028     2.621     2.532
    71   1 H        0.925     0.050     2.319     2.382
    72   1 H        0.860     0.183     1.195     1.712

Wiberg/Mayer (AO) data.
largest (>0.10) Wiberg bond orders for each atom

     #   Z sym  total        # sym  WBO       # sym  WBO       # sym  WBO
 ---------------------------------------------------------------------------
     1   7 N    3.135 --     2 C    2.233    72 H    0.876
     2   6 C    3.182 --     1 N    2.233    47 H    0.908
     3   6 C    3.525 --     4 C    1.340    14 C    1.043    31 C    1.023
     4   6 C    3.976 --     3 C    1.340    13 C    1.258     5 C    1.229
     5   6 C    3.876 --     6 C    1.465     4 C    1.229    34 H    0.957
     6   6 C    3.916 --     5 C    1.465     9 C    1.195     7 O    1.087
     7   8 O    2.249 --     6 C    1.087     8 C    0.981
     8   6 C    3.936 --     7 O    0.981    36 H    0.977    37 H    0.974
                            35 H    0.974
     9   6 C    3.803 --    12 C    1.346     6 C    1.195    10 O    1.114
    10   8 O    2.245 --     9 C    1.114    11 C    0.976
    11   6 C    3.931 --    39 H    0.977    10 O    0.976    38 H    0.973
                            40 H    0.973
    12   6 C    3.971 --    13 C    1.481     9 C    1.346    41 H    0.963
    13   6 C    3.837 --    12 C    1.481     4 C    1.258    42 H    0.952
    14   6 C    3.957 --     3 C    1.043    44 H    0.972    43 H    0.942
                            15 C    0.926
    15   6 C    3.971 --    16 C    1.072    45 H    0.964    46 H    0.950
                            14 C    0.926
    16   6 C    3.564 --    17 N    1.412    15 C    1.072    48 H    0.959
    17   7 N    3.475 --    16 C    1.412    30 C    0.998    18 C    0.990
    18   6 C    3.957 --    17 N    0.990    50 H    0.967    19 C    0.967
                            49 H    0.963
    19   6 C    3.976 --    20 C    1.008    52 H    0.972    51 H    0.971
                            18 C    0.967
    20   6 C    3.950 --    21 C    1.413    29 C    1.379    19 C    1.008
    21   6 C    3.956 --    22 C    1.416    20 C    1.413    53 H    0.968
    22   6 C    3.963 --    21 C    1.416    23 C    1.386    54 H    0.963
    23   6 C    3.901 --    22 C    1.386    26 C    1.226    24 O    1.104
    24   8 O    2.254 --    23 C    1.104    25 C    0.977
    25   6 C    3.931 --    24 O    0.977    57 H    0.977    55 H    0.973
                            56 H    0.973
    26   6 C    3.904 --    29 C    1.398    23 C    1.226    27 O    1.097
    27   8 O    2.252 --    26 C    1.097    28 C    0.980
    28   6 C    3.935 --    27 O    0.980    58 H    0.977    59 H    0.974
                            60 H    0.974
    29   6 C    3.962 --    26 C    1.398    20 C    1.379    61 H    0.962
    30   6 C    3.957 --    17 N    0.998    64 H    0.978    62 H    0.967
                            63 H    0.958
    31   6 C    3.985 --     3 C    1.023    32 C    0.995    33 C    0.973
                            65 H    0.955
    32   6 C    3.979 --    31 C    0.995    67 H    0.986    68 H    0.984
                            66 H    0.977
    33   6 C    3.946 --    70 H    0.983    71 H    0.982    31 C    0.973
                            69 H    0.958
    34   1 H    0.996 --     5 C    0.957
    35   1 H    0.995 --     8 C    0.974
    36   1 H    0.993 --     8 C    0.977
    37   1 H    0.996 --     8 C    0.974
    38   1 H    0.992 --    11 C    0.973
    39   1 H    0.993 --    11 C    0.977
    40   1 H    0.992 --    11 C    0.973
    41   1 H    0.995 --    12 C    0.963
    42   1 H    0.994 --    13 C    0.952
    43   1 H    0.975 --    14 C    0.942
    44   1 H    0.997 --    14 C    0.972
    45   1 H    0.995 --    15 C    0.964
    46   1 H    0.981 --    15 C    0.950
    47   1 H    0.921 --     2 C    0.908
    48   1 H    0.995 --    16 C    0.959
    49   1 H    0.991 --    18 C    0.963
    50   1 H    0.994 --    18 C    0.967
    51   1 H    0.995 --    19 C    0.971
    52   1 H    0.996 --    19 C    0.972
    53   1 H    0.998 --    21 C    0.968
    54   1 H    0.995 --    22 C    0.963
    55   1 H    0.993 --    25 C    0.973
    56   1 H    0.993 --    25 C    0.973
    57   1 H    0.993 --    25 C    0.977
    58   1 H    0.993 --    28 C    0.977
    59   1 H    0.994 --    28 C    0.974
    60   1 H    0.994 --    28 C    0.974
    61   1 H    0.997 --    29 C    0.962
    62   1 H    0.986 --    30 C    0.967
    63   1 H    0.984 --    30 C    0.958
    64   1 H    0.994 --    30 C    0.978
    65   1 H    0.990 --    31 C    0.955
    66   1 H    0.996 --    32 C    0.977
    67   1 H    0.997 --    32 C    0.986
    68   1 H    0.996 --    32 C    0.984
    69   1 H    0.997 --    33 C    0.958
    70   1 H    0.999 --    33 C    0.983
    71   1 H    0.994 --    33 C    0.982
    72   1 H    0.882 --     1 N    0.876
 ---------------------------------------------------------------------------

molecular dipole:
                 x           y           z       tot (Debye)
 q only:       -0.221       0.434      -0.419
   full:       -0.028       0.570      -0.238       1.571

           -------------------------------------------------
          | TOTAL ENERGY              -99.302090638371 Eh   |
          | GRADIENT NORM               0.001573998111 Eh/α |
          | HOMO-LUMO GAP               0.046076917542 eV   |
           -------------------------------------------------

 * finished run on 2024/04/06 at 11:11:46.645
