   * xtb version 6.6.1 (8d0f1dd) compiled by 'conda@1efc2f54142f' on 2023-08-01
          program call               : xtb xtbopt.xyz --opt crude --input .xc2 --gfn2

   ID    Z sym.   atoms
    1    7 N      1, 17
    2    6 C      2-6, 8, 9, 11-16, 18-23, 25, 26, 28-33
    3    8 O      7, 10, 24, 27
    4    1 H      34-72

          :  Hamiltonian                  GFN2-xTB          :
 * total energy  :   -99.3020918 Eh     change        0.8100187E-11 Eh
 * total energy  :   -99.3021307 Eh     change       -0.3884466E-04 Eh
   *** GEOMETRY OPTIMIZATION CONVERGED AFTER 2 ITERATIONS ***

 final structure:
================
72
 xtb: 6.6.1 (8d0f1dd)
N           -1.65191968433258        1.20947200791441        4.23180078009776
C           -0.76420832829951        0.84851460298590        3.49562117912055
C           -3.17643242027369        1.76497706667533       -0.43056441720241
C           -3.60015773438129        0.48217343371285       -0.04021131521656
C           -4.29114422475992       -0.37234251238958       -0.94842728419812
C           -4.67114524580116       -1.64921940544570       -0.61060737885598
O           -5.34503509777316       -2.50528347985630       -1.41265908772797
C           -5.77182048844315       -2.06908054750591       -2.68029952161818
C           -4.35376936777167       -2.16951106752124        0.67834508736691
O           -4.74213469913546       -3.43632795562324        0.90605364424038
C           -4.52463509439812       -4.00606523726074        2.17588759416173
C           -3.68501696248098       -1.34341461813743        1.57732643084756
C           -3.32803658683551       -0.05740321455698        1.23989613245991
C           -3.03826076197636        2.08797079532888       -1.88509541457036
C           -2.02880494518844        1.16368863590940       -2.63966735976993
C           -0.65287127165166        1.33706579100019       -2.14476327168398
N           -0.00161920183418        0.47343736132643       -1.37770874453664
C            1.33766187751641        0.75574234774241       -0.92064002964478
C            2.40827593188687        0.10425701762948       -1.81812919864641
C            3.76605039812895        0.26934942483161       -1.19467113852419
C            4.45778226583727        1.46380195458659       -1.30696656557751
C            5.69229831363528        1.62855261354028       -0.69746252027970
C            6.26029203565344        0.59943564935229        0.03918291492898
O            7.44813533536900        0.64878179853959        0.67392951799013
C            8.22212920165752        1.82292029440096        0.59044587933908
C            5.56051421849373       -0.63165249133752        0.15575418081178
O            6.18666580262677       -1.58378054431834        0.88006882521223
C            5.59399723927486       -2.85413039188309        1.00168588596058
C            4.32542370425450       -0.77091577226509       -0.45619077848320
C           -0.53268022079881       -0.83342930344049       -1.06968824994163
C           -2.82795918369814        2.88052113886663        0.51749489437460
C           -3.75287292035737        2.99624271490285        1.73514556896647
C           -1.35581826947528        2.84207902132784        0.95768019799328
H           -4.58990751974060        0.02030237095855       -1.90506366763428
H           -6.44192774865681       -1.20725803045977       -2.60510638275756
H           -6.31408712121269       -2.90896538828215       -3.11010292783251
H           -4.92419934851455       -1.81867130950400       -3.32728043710065
H           -5.02779061064935       -3.43643288200383        2.96240297931992
H           -4.95110828342775       -5.00599552618377        2.12467981930115
H           -3.45654033776728       -4.07922716212439        2.40403492295507
H           -3.43457519400611       -1.70785458489432        2.56080684852681
H           -2.77692502016285        0.51921349998110        1.95925553396431
H           -3.99899835310688        1.99293811150579       -2.39719164788767
H           -2.70859527671067        3.11982988861167       -2.00846342253751
H           -2.35745912828929        0.13099132214272       -2.55324543784397
H           -2.06274344515721        1.46144770967362       -3.69087703248685
H            0.27618563756697        0.56786102683769        3.55996701522174
H           -0.15152683041087        2.26888685569144       -2.35588139638761
H            1.44420614491604        0.37814131637761        0.09953200228509
H            1.49856460768018        1.83491256904877       -0.89994478032055
H            2.38186314539981        0.57755821999007       -2.80093409765830
H            2.18336221164872       -0.95575539519356       -1.94181129696545
H            4.04305853718154        2.27714597388861       -1.88261626401571
H            6.20927850628159        2.56762843560746       -0.80718660241129
H            7.69887222768471        2.68019164167223        1.02516158152077
H            8.49734644624365        2.04862250281364       -0.44413734410183
H            9.12253834620588        1.62010170903653        1.16710593955692
H            6.29126021591600       -3.44699828758804        1.59043566225164
H            4.63369634745952       -2.80195553895061        1.52546296246544
H            5.45272946351746       -3.32689856706790        0.02472303284871
H            3.78825625972162       -1.70325363484736       -0.37680625957362
H           -0.72931197352116       -1.40274390827166       -1.98026937507601
H           -1.46126094602048       -0.74746148446115       -0.50189105526316
H            0.18912975189859       -1.38175741874253       -0.47081337018727
H           -2.95268079177418        3.80785634173071       -0.05547482001560
H           -3.44829542364550        2.34782050591168        2.54904341997708
H           -4.77634620269580        2.75563927961140        1.46095769535594
H           -3.72990720369435        4.01939193559563        2.10281982655656
H           -1.14308701199845        1.95529266360790        1.55602357628018
H           -0.69852790263310        2.85070754316100        0.09180396930985
H           -1.13953877039881        3.71797276025985        1.56411196620797
H           -1.69137542283599        1.37848732829093        5.23546726937498

          :  Hamiltonian                  GFN2-xTB          :
         :: total energy             -99.302130669639 Eh    ::
         :: gradient norm              0.000750196281 Eh/a0 ::
         :: HOMO-LUMO gap              0.045903930707 eV    ::
         :: SCC energy              -100.701527921081 Eh    ::
         :: -> dispersion             -0.073130740588 Eh    ::
         :: repulsion energy           1.397588928193 Eh    ::

    * Orbital Energies and Occupations

         #    Occupation            Energy/Eh            Energy/eV
      -------------------------------------------------------------
         1        2.0000           -0.8074537             -21.9719
       ...           ...                  ...                  ...
        78        1.9991           -0.5305629             -14.4374
        79        1.9989           -0.5278476             -14.3635
        80        1.9989           -0.5275351             -14.3550
        81        1.9986           -0.5237693             -14.2525
        82        1.9982           -0.5193819             -14.1331
        83        1.9976           -0.5151864             -14.0189
        84        1.9971           -0.5122904             -13.9401
        85        1.9953           -0.5045912             -13.7306
        86        1.9893           -0.4913858             -13.3713
        87        1.9824           -0.4834712             -13.1559
        88        1.9419           -0.4642097             -12.6318
        89        1.8719           -0.4510996             -12.2750
        90        0.9422           -0.4068024             -11.0697 (HOMO)
        91        0.8893           -0.4051155             -11.0238 (LUMO)
        92        0.3816           -0.3857566             -10.4970
        93        0.0124           -0.3282637              -8.9325
        94        0.0033           -0.3071599              -8.3582
        95        0.0032           -0.3069546              -8.3527
        96        0.0028           -0.3048277              -8.2948
        97        0.0010           -0.2882345              -7.8433
        98        0.0000           -0.1820019              -4.9525
        99        0.0000           -0.1796009              -4.8872
       100                         -0.1257503              -3.4218
       101                         -0.0619561              -1.6859
       ...                                ...                  ...
       171                          0.6848488              18.6357
      -------------------------------------------------------------
                  HL-Gap            0.0016869 Eh            0.0459 eV

     #   Z          covCN         q      C6AA      α(0)
     1   7 N        1.770    -0.181    25.699     7.506
     2   6 C        1.836    -0.017    31.601     9.082
     3   6 C        2.951    -0.009    28.241     8.716
     4   6 C        2.962     0.003    27.964     8.674
     5   6 C        2.919    -0.089    30.219     9.015
     6   6 C        2.857     0.128    25.185     8.225
     7   8 O        1.706    -0.239    17.968     5.723
     8   6 C        3.644     0.030    20.410     6.494
     9   6 C        2.864     0.131    25.132     8.217
    10   8 O        1.706    -0.221    17.670     5.675
    11   6 C        3.646     0.026    20.468     6.502
    12   6 C        2.909    -0.071    29.759     8.945
    13   6 C        2.920    -0.053    29.320     8.880
    14   6 C        3.805    -0.064    21.732     6.637
    15   6 C        3.801    -0.068    21.807     6.649
    16   6 C        2.844     0.004    27.921     8.660
    17   7 N        2.729     0.021    20.876     6.786
    18   6 C        3.757    -0.019    20.957     6.527
    19   6 C        3.807    -0.071    21.848     6.654
    20   6 C        2.969    -0.002    28.063     8.689
    21   6 C        2.922    -0.050    29.240     8.868
    22   6 C        2.914    -0.068    29.700     8.937
    23   6 C        2.865     0.132    25.118     8.215
    24   8 O        1.706    -0.227    17.760     5.690
    25   6 C        3.645     0.026    20.467     6.502
    26   6 C        2.863     0.131    25.132     8.217
    27   8 O        1.706    -0.230    17.810     5.698
    28   6 C        3.645     0.029    20.423     6.495
    29   6 C        2.920    -0.081    30.015     8.984
    30   6 C        3.700    -0.073    22.073     6.719
    31   6 C        3.852    -0.014    20.786     6.485
    32   6 C        3.753    -0.117    22.795     6.808
    33   6 C        3.753    -0.110    22.656     6.787
    34   1 H        0.926     0.049     2.334     2.389
    35   1 H        0.924     0.051     2.310     2.377
    36   1 H        0.925     0.079     1.992     2.207
    37   1 H        0.924     0.042     2.419     2.432
    38   1 H        0.924     0.056     2.242     2.341
    39   1 H        0.925     0.081     1.968     2.194
    40   1 H        0.924     0.050     2.319     2.381
    41   1 H        0.926     0.050     2.320     2.382
    42   1 H        0.926     0.070     2.085     2.258
    43   1 H        0.924     0.068     2.106     2.269
    44   1 H        0.924     0.054     2.276     2.359
    45   1 H        0.925     0.065     2.140     2.288
    46   1 H        0.924     0.073     2.052     2.240
    47   1 H        0.926     0.063     2.165     2.301
    48   1 H        0.926     0.066     2.125     2.280
    49   1 H        0.924     0.068     2.108     2.270
    50   1 H        0.924     0.068     2.109     2.271
    51   1 H        0.924     0.056     2.244     2.342
    52   1 H        0.924     0.054     2.272     2.357
    53   1 H        0.926     0.044     2.399     2.422
    54   1 H        0.926     0.057     2.239     2.340
    55   1 H        0.924     0.052     2.297     2.370
    56   1 H        0.924     0.054     2.266     2.354
    57   1 H        0.925     0.080     1.976     2.199
    58   1 H        0.925     0.080     1.983     2.202
    59   1 H        0.924     0.045     2.384     2.414
    60   1 H        0.924     0.051     2.307     2.375
    61   1 H        0.926     0.045     2.388     2.416
    62   1 H        0.924     0.075     2.036     2.232
    63   1 H        0.924     0.084     1.937     2.176
    64   1 H        0.925     0.078     2.003     2.213
    65   1 H        0.924     0.046     2.374     2.409
    66   1 H        0.925     0.057     2.238     2.339
    67   1 H        0.925     0.044     2.397     2.421
    68   1 H        0.925     0.047     2.358     2.401
    69   1 H        0.924     0.049     2.331     2.388
    70   1 H        0.925     0.028     2.621     2.532
    71   1 H        0.925     0.050     2.319     2.381
    72   1 H        0.860     0.184     1.194     1.712

Wiberg/Mayer (AO) data.
largest (>0.10) Wiberg bond orders for each atom

     #   Z sym  total        # sym  WBO       # sym  WBO       # sym  WBO
 ---------------------------------------------------------------------------
     1   7 N    3.135 --     2 C    2.234    72 H    0.876
     2   6 C    3.181 --     1 N    2.234    47 H    0.909
     3   6 C    3.525 --     4 C    1.340    14 C    1.043    31 C    1.023
     4   6 C    3.976 --     3 C    1.340    13 C    1.258     5 C    1.229
     5   6 C    3.876 --     6 C    1.465     4 C    1.229    34 H    0.957
     6   6 C    3.916 --     5 C    1.465     9 C    1.195     7 O    1.087
     7   8 O    2.249 --     6 C    1.087     8 C    0.981
     8   6 C    3.936 --     7 O    0.981    36 H    0.977    37 H    0.974
                            35 H    0.974
     9   6 C    3.803 --    12 C    1.345     6 C    1.195    10 O    1.114
    10   8 O    2.245 --     9 C    1.114    11 C    0.976
    11   6 C    3.931 --    39 H    0.977    10 O    0.976    38 H    0.973
                            40 H    0.973
    12   6 C    3.971 --    13 C    1.481     9 C    1.345    41 H    0.963
    13   6 C    3.837 --    12 C    1.481     4 C    1.258    42 H    0.952
    14   6 C    3.957 --     3 C    1.043    44 H    0.972    43 H    0.942
                            15 C    0.927
    15   6 C    3.971 --    16 C    1.072    45 H    0.964    46 H    0.950
                            14 C    0.927
    16   6 C    3.564 --    17 N    1.412    15 C    1.072    48 H    0.959
    17   7 N    3.475 --    16 C    1.412    30 C    0.998    18 C    0.990
    18   6 C    3.957 --    17 N    0.990    50 H    0.967    19 C    0.967
                            49 H    0.963
    19   6 C    3.976 --    20 C    1.008    52 H    0.972    51 H    0.971
                            18 C    0.967
    20   6 C    3.950 --    21 C    1.413    29 C    1.379    19 C    1.008
    21   6 C    3.956 --    22 C    1.416    20 C    1.413    53 H    0.968
    22   6 C    3.963 --    21 C    1.416    23 C    1.386    54 H    0.963
    23   6 C    3.901 --    22 C    1.386    26 C    1.226    24 O    1.104
    24   8 O    2.254 --    23 C    1.104    25 C    0.977
    25   6 C    3.931 --    57 H    0.977    24 O    0.977    55 H    0.973
                            56 H    0.973
    26   6 C    3.904 --    29 C    1.398    23 C    1.226    27 O    1.097
    27   8 O    2.252 --    26 C    1.097    28 C    0.980
    28   6 C    3.935 --    27 O    0.980    58 H    0.977    59 H    0.974
                            60 H    0.974
    29   6 C    3.962 --    26 C    1.398    20 C    1.379    61 H    0.962
    30   6 C    3.957 --    17 N    0.998    64 H    0.978    62 H    0.967
                            63 H    0.958
    31   6 C    3.985 --     3 C    1.023    32 C    0.995    33 C    0.973
                            65 H    0.955
    32   6 C    3.979 --    31 C    0.995    67 H    0.986    68 H    0.984
                            66 H    0.977
    33   6 C    3.947 --    70 H    0.983    71 H    0.982    31 C    0.973
                            69 H    0.959
    34   1 H    0.996 --     5 C    0.957
    35   1 H    0.995 --     8 C    0.974
    36   1 H    0.993 --     8 C    0.977
    37   1 H    0.996 --     8 C    0.974
    38   1 H    0.992 --    11 C    0.973
    39   1 H    0.993 --    11 C    0.977
    40   1 H    0.992 --    11 C    0.973
    41   1 H    0.995 --    12 C    0.963
    42   1 H    0.994 --    13 C    0.952
    43   1 H    0.975 --    14 C    0.942
    44   1 H    0.997 --    14 C    0.972
    45   1 H    0.995 --    15 C    0.964
    46   1 H    0.981 --    15 C    0.950
    47   1 H    0.921 --     2 C    0.909
    48   1 H    0.995 --    16 C    0.959
    49   1 H    0.991 --    18 C    0.963
    50   1 H    0.994 --    18 C    0.967
    51   1 H    0.995 --    19 C    0.971
    52   1 H    0.996 --    19 C    0.972
    53   1 H    0.998 --    21 C    0.968
    54   1 H    0.995 --    22 C    0.963
    55   1 H    0.993 --    25 C    0.973
    56   1 H    0.993 --    25 C    0.973
    57   1 H    0.993 --    25 C    0.977
    58   1 H    0.993 --    28 C    0.977
    59   1 H    0.994 --    28 C    0.974
    60   1 H    0.994 --    28 C    0.974
    61   1 H    0.997 --    29 C    0.962
    62   1 H    0.986 --    30 C    0.967
    63   1 H    0.984 --    30 C    0.958
    64   1 H    0.994 --    30 C    0.978
    65   1 H    0.990 --    31 C    0.955
    66   1 H    0.996 --    32 C    0.977
    67   1 H    0.997 --    32 C    0.986
    68   1 H    0.996 --    32 C    0.984
    69   1 H    0.997 --    33 C    0.959
    70   1 H    0.999 --    33 C    0.983
    71   1 H    0.994 --    33 C    0.982
    72   1 H    0.882 --     1 N    0.876
 ---------------------------------------------------------------------------

molecular dipole:
                 x           y           z       tot (Debye)
 q only:       -0.221       0.434      -0.417
   full:       -0.029       0.574      -0.234       1.577

           -------------------------------------------------
          | TOTAL ENERGY              -99.302130669639 Eh   |
          | GRADIENT NORM               0.000750196281 Eh/α |
          | HOMO-LUMO GAP               0.045903930707 eV   |
           -------------------------------------------------

 * finished run on 2024/04/06 at 11:11:47.283
