   * xtb version 6.6.1 (8d0f1dd) compiled by 'conda@1efc2f54142f' on 2023-08-01
          program call               : xtb struc.xyz --opt loose --input .xc1 --gfn2

   ID    Z sym.   atoms
    1    6 C      1, 3, 5-7, 10, 11, 14
    2    7 N      2, 4, 9, 13
    3    8 O      8, 12
    4    1 H      15-25
constraining bond 3 25 to    2.7133300 Å, actual value:    2.1044033 Å

          :  Hamiltonian                  GFN2-xTB          :
 * total energy  :   -42.9099190 Eh     change       -0.6650680E-10 Eh
 * total energy  :   -45.1434341 Eh     change       -0.2233515E+01 Eh
 * total energy  :   -48.5285667 Eh     change       -0.3385133E+01 Eh
 * total energy  :   -29.6352478 Eh     change        0.1889332E+02 Eh
 * total energy  :   -49.6078870 Eh     change       -0.1997264E+02 Eh
 * total energy  :   -49.5600851 Eh     change        0.4780183E-01 Eh
 * total energy  :   -49.6544386 Eh     change       -0.9435343E-01 Eh
 * total energy  :   -49.7087608 Eh     change       -0.5432220E-01 Eh
 * total energy  :   -49.7172063 Eh     change       -0.8445543E-02 Eh
 * total energy  :   -49.7271735 Eh     change       -0.9967174E-02 Eh
 * total energy  :   -49.8842568 Eh     change       -0.6087974E-04 Eh
 * total energy  :   -49.8843712 Eh     change       -0.1144536E-03 Eh
 * total energy  :   -49.8844951 Eh     change       -0.1238387E-03 Eh
 * total energy  :   -49.8845784 Eh     change       -0.8328974E-04 Eh
 * total energy  :   -49.8847017 Eh     change       -0.1233052E-03 Eh
 * total energy  :   -49.8847484 Eh     change       -0.4678149E-04 Eh
 * total energy  :   -49.8847514 Eh     change       -0.2921575E-05 Eh
 * total energy  :   -49.8848045 Eh     change       -0.5313451E-04 Eh
 * total energy  :   -49.8848229 Eh     change       -0.1837562E-04 Eh
   *** GEOMETRY OPTIMIZATION CONVERGED AFTER 60 ITERATIONS ***

 final structure:
================
25
 xtb: 6.6.1 (8d0f1dd)
C            3.11254067767980        1.41830769760194       -0.08598540674029
N            2.27664641817399        0.30490134556575       -0.08344972145470
C            2.31665207120293       -2.59530730483116        0.01757034567853
N            1.14688986472102       -2.15301196602464       -0.28007482632720
C            0.39784375994316       -1.09697681581674       -0.07640878775206
C            1.00283902898172        0.22121976859238       -0.07980271039038
C            0.07704961336053        1.40332017102378       -0.06959688119911
O            0.49971483278697        2.53554096869309       -0.10670825906848
N           -1.25831978006120        1.10856523611871       -0.00107768871443
C           -2.21065772145911        2.21234557610472        0.03737480163946
C           -1.82706049388198       -0.15560789499578        0.03741356325553
O           -3.01174943793167       -0.31852592320128        0.11286999029292
N           -0.94025044945228       -1.23775416588573       -0.01754720624412
C           -1.50619562244506       -2.57212353330064        0.00218079631739
H            3.78391403367451        1.34941934754646        0.77526015567338
H            3.74090650922783        1.36841839212586       -0.98128990788484
H            2.57038128537258        2.37363257242636       -0.06373133388128
H            2.73777182656712       -2.13303595409893        0.95641770150850
H           -1.65806541847010        3.14784261070379        0.07126020270314
H           -2.84440012674776        2.18216369320333       -0.84905908138335
H           -2.84660310943213        2.11262273682006        0.91683338772304
H           -1.34089518756338       -3.04435220587681        0.97136160109255
H           -1.03219312815498       -3.17423068607146       -0.77319452101971
H           -2.57704576117316       -2.49473715833109       -0.17828116717780
H            2.55071782918113       -2.94439796649211       -0.22116342874663

          :  Hamiltonian                  GFN2-xTB          :
         :: total energy             -49.884822877476 Eh    ::
         :: gradient norm              0.002499317523 Eh/a0 ::
         :: HOMO-LUMO gap              1.012983654644 eV    ::
         :: SCC energy               -42.714234421714 Eh    ::
         :: -> dispersion             -0.022053815435 Eh    ::
         :: repulsion energy           1.708249744575 Eh    ::

    * Orbital Energies and Occupations

         #    Occupation            Energy/Eh            Energy/eV
      -------------------------------------------------------------
         1        2.0000           -0.8964845             -24.3946
       ...           ...                  ...                  ...
        25        1.9999           -0.6775822             -18.4380
        26        1.9998           -0.6662914             -18.1307
        27        1.9992           -0.6471388             -17.6095
        28        1.9992           -0.6461913             -17.5838
        29        1.9981           -0.6329221             -17.2227
        30        1.9979           -0.6308056             -17.1651
        31        1.9961           -0.6213758             -16.9085
        32        1.9932           -0.6124623             -16.6659
        33        1.9889           -0.6047631             -16.4564
        34        1.9783           -0.5940341             -16.1645
        35        1.9635           -0.5856664             -15.9368
        36        1.9439           -0.5787098             -15.7475
        37        1.5706           -0.5431114             -14.7788 (HOMO)
        38        0.5169           -0.5058849             -13.7658 (LUMO)
        39        0.0532           -0.4655779             -12.6690
        40        0.0013           -0.4062898             -11.0557
        41        0.0004           -0.3880048             -10.5581
        42        0.0000           -0.3033176              -8.2537
        43                         -0.1992320              -5.4214
        44                         -0.1468039              -3.9947
        45                         -0.1006908              -2.7399
        46                         -0.0886689              -2.4128
        47                         -0.0396167              -1.0780
        48                         -0.0352540              -0.9593
       ...                                ...                  ...
        67                          6.8817599             187.2622
      -------------------------------------------------------------
                  HL-Gap            0.0372265 Eh            1.0130 eV

     #   Z          covCN         q      C6AA      α(0)
     1   6 C        3.692    -0.056    21.759     6.674
     2   7 N        1.836    -0.111    24.186     7.288
     3   6 C        2.769     0.003    27.950     8.658
     4   7 N        1.868    -0.079    23.519     7.189
     5   6 C        2.854     0.136    25.017     8.198
     6   6 C        2.894     0.052    26.835     8.493
     7   6 C        2.765     0.270    22.443     7.758
     8   8 O        0.859    -0.320    20.150     6.018
     9   7 N        2.738    -0.066    22.510     7.046
    10   6 C        3.709    -0.063    21.859     6.682
    11   6 C        2.721     0.320    21.556     7.600
    12   8 O        0.860    -0.331    20.341     6.047
    13   7 N        2.748    -0.024    21.709     6.920
    14   6 C        3.706    -0.078    22.139     6.726
    15   1 H        0.924     0.127     1.559     1.953
    16   1 H        0.924     0.130     1.536     1.938
    17   1 H        0.923     0.133     1.515     1.925
    18   1 H        0.918     0.104     1.752     2.070
    19   1 H        0.925     0.116     1.650     2.009
    20   1 H        0.925     0.108     1.715     2.048
    21   1 H        0.925     0.109     1.701     2.039
    22   1 H        0.924     0.102     1.771     2.081
    23   1 H        0.925     0.107     1.726     2.054
    24   1 H        0.925     0.129     1.546     1.944
    25   1 H        0.958     0.183     1.189     1.704

Wiberg/Mayer (AO) data.
largest (>0.10) Wiberg bond orders for each atom

     #   Z sym  total        # sym  WBO       # sym  WBO       # sym  WBO
 ---------------------------------------------------------------------------
     1   6 C    3.876 --     2 N    1.104    15 H    0.911    16 H    0.907
                            17 H    0.892
     2   7 N    2.909 --     6 C    1.648     1 C    1.104
     3   6 C    3.736 --     4 N    1.752    25 H    0.947    18 H    0.908
     4   7 N    3.316 --     3 C    1.752     5 C    1.368
     5   6 C    3.843 --     4 N    1.368    13 N    1.239     6 C    1.076
     6   6 C    3.886 --     2 N    1.648     5 C    1.076     7 C    0.940
     7   6 C    3.894 --     8 O    1.695     9 N    1.163     6 C    0.940
     8   8 O    2.008 --     7 C    1.695     9 N    0.139
     9   7 N    3.541 --     7 C    1.163    11 C    1.093    10 C    0.963
                             8 O    0.139    12 O    0.117
    10   6 C    3.888 --    19 H    0.967     9 N    0.963    21 H    0.957
                            20 H    0.956
    11   6 C    3.943 --    12 O    1.715     9 N    1.093    13 N    1.053
    12   8 O    2.030 --    11 C    1.715     9 N    0.117    13 N    0.104
    13   7 N    3.554 --     5 C    1.239    11 C    1.053    14 C    0.974
                            12 O    0.104
    14   6 C    3.904 --    13 N    0.974    24 H    0.963    22 H    0.957
                            23 H    0.957
    15   1 H    0.957 --     1 C    0.911
    16   1 H    0.953 --     1 C    0.907
    17   1 H    0.921 --     1 C    0.892
    18   1 H    0.959 --     3 C    0.908
    19   1 H    0.983 --    10 C    0.967
    20   1 H    0.975 --    10 C    0.956
    21   1 H    0.976 --    10 C    0.957
    22   1 H    0.979 --    14 C    0.957
    23   1 H    0.982 --    14 C    0.957
    24   1 H    0.981 --    14 C    0.963
    25   1 H    0.964 --     3 C    0.947
 ---------------------------------------------------------------------------

molecular dipole:
                 x           y           z       tot (Debye)
 q only:        1.698      -1.288       0.078
   full:        1.833      -1.140       0.195       5.508

           -------------------------------------------------
          | TOTAL ENERGY              -49.884822877476 Eh   |
          | GRADIENT NORM               0.002499317523 Eh/α |
          | HOMO-LUMO GAP               1.012983654644 eV   |
           -------------------------------------------------

 * finished run on 2024/06/05 at 19:58:06.388
