   * xtb version 6.6.1 (8d0f1dd) compiled by 'conda@1efc2f54142f' on 2023-08-01
          program call               : xtb xtbopt.xyz --opt crude --input .xc2 --gfn2

   ID    Z sym.   atoms
    1    6 C      1, 3, 5-7, 10, 11, 14
    2    7 N      2, 4, 9, 13
    3    8 O      8, 12
    4    1 H      15-25
########################################################################
[WARNING] Please study the warnings concerning your input carefully
-1- readin_getIntValue: could not parse ''
########################################################################

          :  Hamiltonian                  GFN2-xTB          :
 * total energy  :   -41.0058555 Eh     change       -0.1151079E-11 Eh
 * total energy  :   -42.1362695 Eh     change       -0.1130414E+01 Eh
 * total energy  :   -42.1553599 Eh     change       -0.1909042E-01 Eh
 * total energy  :   -42.1572238 Eh     change       -0.1863894E-02 Eh
 * total energy  :   -42.1585337 Eh     change       -0.1309951E-02 Eh
 * total energy  :   -42.1587972 Eh     change       -0.2634509E-03 Eh
 * total energy  :   -42.1590148 Eh     change       -0.2176205E-03 Eh
 * total energy  :   -42.1591314 Eh     change       -0.1166138E-03 Eh
 * total energy  :   -42.1592344 Eh     change       -0.1030022E-03 Eh
   *** GEOMETRY OPTIMIZATION CONVERGED AFTER 9 ITERATIONS ***

 final structure:
================
25
 xtb: 6.6.1 (8d0f1dd)
C            3.10302950412533        1.42692083452168       -0.08480285728454
N            2.26549552146402        0.31448763215930       -0.08207503994158
C            2.28572602459785       -2.50472959218301        0.10586614497610
N            1.13319170344533       -2.14810763202418       -0.25961175765081
C            0.38483460908188       -1.08400998291591       -0.06863414301971
C            0.99017764768965        0.23147272185795       -0.07273219553695
C            0.06727542484172        1.41392436985333       -0.05522405853487
O            0.48950987684515        2.54703816635467       -0.07438213840987
N           -1.27002551386809        1.11931544531801       -0.00387667386926
C           -2.22084542218678        2.22400035381624        0.03065299256766
C           -1.83993943781978       -0.14322027749373        0.02486293961309
O           -3.02575268904155       -0.30738247524742        0.08057703209926
N           -0.95197364454047       -1.22672186722221       -0.01217339856475
C           -1.51670073208721       -2.56099678077857        0.01600423734223
H            3.76730688705653        1.36523312073919        0.78281976495557
H            3.73918285345076        1.37026697793246       -0.97415710074362
H            2.56217690367520        2.38317326284631       -0.07162917520070
H            2.76557411542565       -2.11067840102651        0.99711714631290
H           -1.66642659408983        3.15833631862253        0.06687360449604
H           -2.85052746463730        2.19418976401055       -0.85860774347945
H           -2.86033022526017        2.12577512003768        0.90759276807581
H           -1.34817942367176       -3.02861450229547        0.98685781520214
H           -1.04518820064096       -3.16794615222063       -0.75712356405990
H           -2.58789209096435       -2.48348120911297       -0.16177293989372
H            2.79073188120973       -3.29000667394944       -0.43125004155101

          :  Hamiltonian                  GFN2-xTB          :
         :: total energy             -42.159234415518 Eh    ::
         :: gradient norm              0.007045326715 Eh/a0 ::
         :: HOMO-LUMO gap              1.022612514726 eV    ::
         :: SCC energy               -42.696245266617 Eh    ::
         :: -> dispersion             -0.022014933849 Eh    ::
         :: repulsion energy           0.536886765879 Eh    ::

    * Orbital Energies and Occupations

         #    Occupation            Energy/Eh            Energy/eV
      -------------------------------------------------------------
         1        2.0000           -0.8948159             -24.3492
       ...           ...                  ...                  ...
        25        1.9999           -0.6751529             -18.3718
        26        1.9998           -0.6623465             -18.0234
        27        1.9993           -0.6454708             -17.5642
        28        1.9992           -0.6444638             -17.5368
        29        1.9982           -0.6308326             -17.1658
        30        1.9980           -0.6297197             -17.1355
        31        1.9962           -0.6193879             -16.8544
        32        1.9933           -0.6101478             -16.6030
        33        1.9894           -0.6028656             -16.4048
        34        1.9794           -0.5923064             -16.1175
        35        1.9666           -0.5845795             -15.9072
        36        1.9494           -0.5778646             -15.7245
        37        1.5775           -0.5408966             -14.7185 (HOMO)
        38        0.5162           -0.5033162             -13.6959 (LUMO)
        39        0.0363           -0.4568523             -12.4316
        40        0.0011           -0.4018959             -10.9361
        41        0.0004           -0.3858944             -10.5007
        42        0.0000           -0.3007542              -8.1839
        43                         -0.1974631              -5.3732
        44                         -0.1444605              -3.9310
        45                         -0.0974933              -2.6529
        46                         -0.0885675              -2.4100
        47                         -0.0368463              -1.0026
        48                         -0.0315673              -0.8590
       ...                                ...                  ...
        67                          0.5526220              15.0376
      -------------------------------------------------------------
                  HL-Gap            0.0375803 Eh            1.0226 eV

     #   Z          covCN         q      C6AA      α(0)
     1   6 C        3.692    -0.054    21.738     6.671
     2   7 N        1.836    -0.114    24.253     7.298
     3   6 C        2.783     0.035    27.205     8.543
     4   7 N        1.840    -0.062    23.170     7.133
     5   6 C        2.866     0.138    24.995     8.195
     6   6 C        2.894     0.051    26.851     8.496
     7   6 C        2.766     0.269    22.455     7.760
     8   8 O        0.859    -0.322    20.189     6.024
     9   7 N        2.738    -0.067    22.530     7.050
    10   6 C        3.709    -0.063    21.852     6.681
    11   6 C        2.721     0.320    21.562     7.602
    12   8 O        0.860    -0.332    20.371     6.051
    13   7 N        2.749    -0.023    21.697     6.918
    14   6 C        3.706    -0.078    22.136     6.726
    15   1 H        0.924     0.125     1.572     1.960
    16   1 H        0.924     0.127     1.555     1.950
    17   1 H        0.923     0.131     1.525     1.931
    18   1 H        0.925     0.114     1.666     2.018
    19   1 H        0.925     0.115     1.653     2.010
    20   1 H        0.925     0.107     1.721     2.052
    21   1 H        0.925     0.108     1.711     2.046
    22   1 H        0.924     0.100     1.781     2.087
    23   1 H        0.925     0.106     1.729     2.056
    24   1 H        0.925     0.129     1.545     1.944
    25   1 H        0.926     0.139     1.471     1.896

Wiberg/Mayer (AO) data.
largest (>0.10) Wiberg bond orders for each atom

     #   Z sym  total        # sym  WBO       # sym  WBO       # sym  WBO
 ---------------------------------------------------------------------------
     1   6 C    3.878 --     2 N    1.104    15 H    0.911    16 H    0.908
                            17 H    0.893
     2   7 N    2.896 --     6 C    1.638     1 C    1.104
     3   6 C    3.778 --     4 N    1.789    25 H    0.942    18 H    0.926
     4   7 N    3.325 --     3 C    1.789     5 C    1.344
     5   6 C    3.835 --     4 N    1.344    13 N    1.247     6 C    1.086
     6   6 C    3.887 --     2 N    1.638     5 C    1.086     7 C    0.943
     7   6 C    3.894 --     8 O    1.695     9 N    1.160     6 C    0.943
     8   8 O    2.006 --     7 C    1.695     9 N    0.138
     9   7 N    3.542 --     7 C    1.160    11 C    1.096    10 C    0.963
                             8 O    0.138    12 O    0.118
    10   6 C    3.890 --    19 H    0.967     9 N    0.963    21 H    0.958
                            20 H    0.957
    11   6 C    3.941 --    12 O    1.714     9 N    1.096    13 N    1.050
    12   8 O    2.028 --    11 C    1.714     9 N    0.118    13 N    0.103
    13   7 N    3.559 --     5 C    1.247    11 C    1.050    14 C    0.975
                            12 O    0.103
    14   6 C    3.906 --    13 N    0.975    24 H    0.963    22 H    0.958
                            23 H    0.957
    15   1 H    0.956 --     1 C    0.911
    16   1 H    0.953 --     1 C    0.908
    17   1 H    0.922 --     1 C    0.893
    18   1 H    0.965 --     3 C    0.926
    19   1 H    0.983 --    10 C    0.967
    20   1 H    0.976 --    10 C    0.957
    21   1 H    0.977 --    10 C    0.958
    22   1 H    0.980 --    14 C    0.958
    23   1 H    0.982 --    14 C    0.957
    24   1 H    0.981 --    14 C    0.963
    25   1 H    0.970 --     3 C    0.942
 ---------------------------------------------------------------------------

molecular dipole:
                 x           y           z       tot (Debye)
 q only:        1.750      -1.408       0.072
   full:        1.934      -1.288       0.190       5.925

           -------------------------------------------------
          | TOTAL ENERGY              -42.159234415518 Eh   |
          | GRADIENT NORM               0.007045326715 Eh/α |
          | HOMO-LUMO GAP               1.022612514726 eV   |
           -------------------------------------------------

 * finished run on 2024/06/05 at 19:58:06.760
