   * xtb version 6.6.1 (8d0f1dd) compiled by 'conda@1efc2f54142f' on 2023-08-01
          program call               : xtb struc.xyz --opt loose --input .xc1 --gfn2

   ID    Z sym.   atoms
    1    6 C      1, 3, 5-7, 10, 11, 14
    2    7 N      2, 4, 9, 13
    3    8 O      8, 12
    4    1 H      15-25
constraining bond 2 25 to    3.6866700 Å, actual value:    3.1552271 Å

          :  Hamiltonian                  GFN2-xTB          :
 * total energy  :   -42.7521491 Eh     change       -0.6650680E-10 Eh
 * total energy  :   -44.6709765 Eh     change       -0.1918827E+01 Eh
 * total energy  :   -47.3221789 Eh     change       -0.2651202E+01 Eh
 * total energy  :   -50.8783434 Eh     change       -0.3556164E+01 Eh
 * total energy  :   -54.3116221 Eh     change       -0.3433279E+01 Eh
 * total energy  :   -56.5166192 Eh     change       -0.2204997E+01 Eh
 * total energy  :   -57.4394714 Eh     change       -0.9228522E+00 Eh
 * total energy  :   -58.3107350 Eh     change       -0.8712636E+00 Eh
 * total energy  :   -58.3635690 Eh     change       -0.5283395E-01 Eh
 * total energy  :   -58.4331775 Eh     change       -0.6960854E-01 Eh
 * total energy  :   -59.3551328 Eh     change       -0.8302269E-03 Eh
 * total energy  :   -59.3555866 Eh     change       -0.4537947E-03 Eh
 * total energy  :   -59.3559190 Eh     change       -0.3324183E-03 Eh
 * total energy  :   -59.3560850 Eh     change       -0.1659371E-03 Eh
 * total energy  :   -59.3561404 Eh     change       -0.5544092E-04 Eh
 * total energy  :   -59.3561842 Eh     change       -0.4380744E-04 Eh
 * total energy  :   -59.3562196 Eh     change       -0.3539733E-04 Eh
 * total energy  :   -59.3562476 Eh     change       -0.2797777E-04 Eh
 * total energy  :   -59.3562703 Eh     change       -0.2266906E-04 Eh
   *** GEOMETRY OPTIMIZATION CONVERGED AFTER 92 ITERATIONS ***

 final structure:
================
25
 xtb: 6.6.1 (8d0f1dd)
C            3.28923653260056        0.87495387499263        0.33824357956993
N            2.02066732258082       -0.83426969525585       -1.02671224930860
C            2.33802956330326       -0.27700830861660        0.32163969135867
N            1.16881954750640       -2.04684676699130       -0.83881203266733
C            0.22791326217768       -1.35031509654307       -0.24670471247781
C            0.96575917252936       -0.07154265379253       -0.22931089729373
C            0.17030173368065        1.17882783968316       -0.43128678824579
O            0.59855444608917        2.22093332256293       -0.84161649294908
N           -1.12298142947993        0.95259210633185       -0.00351742334748
C           -2.00660524052464        2.11597926263823        0.06777332154895
C           -1.75179173087456       -0.25222235025431        0.34217018343262
O           -2.87298769208155       -0.27815767131325        0.74889924289107
N           -1.03469658321354       -1.46023682240223        0.12045704385937
C           -1.73831674710531       -2.72831908772827        0.16303101779977
H            3.26486867264045        1.34698189442308        1.31943871354441
H            4.30639673704983        0.52389729620984        0.16894255108488
H            3.03305036260234        1.62279842854531       -0.40986629057745
H            2.48009645892999       -1.03761452631436        1.08579108003249
H           -1.42057930184311        3.00657060454305       -0.14347023808477
H           -2.81071041641050        2.01902960419851       -0.66138570897284
H           -2.44659203052381        2.17600554979300        1.06227496139337
H           -1.33013879270735       -3.35086066663321        0.95847201558105
H           -1.61855611197476       -3.24511590854096       -0.78885258942399
H           -2.79003114489382       -2.52914876292905        0.35825127195160
H            2.24072492402826       -0.75867292496791       -1.40267763279477

          :  Hamiltonian                  GFN2-xTB          :
         :: total energy             -59.356270262728 Eh    ::
         :: gradient norm              0.003558795168 Eh/a0 ::
         :: HOMO-LUMO gap              2.884425137825 eV    ::
         :: SCC energy               -42.620358425034 Eh    ::
         :: -> dispersion             -0.022119593157 Eh    ::
         :: repulsion energy           2.060129397205 Eh    ::

    * Orbital Energies and Occupations

         #    Occupation            Energy/Eh            Energy/eV
      -------------------------------------------------------------
         1        2.0000           -0.9489033             -25.8210
       ...           ...                  ...                  ...
        25        1.9999           -0.6793626             -18.4864
        26        1.9999           -0.6723564             -18.2957
        27        1.9996           -0.6534628             -17.7816
        28        1.9992           -0.6435414             -17.5117
        29        1.9992           -0.6429288             -17.4950
        30        1.9988           -0.6368018             -17.3283
        31        1.9981           -0.6294256             -17.1275
        32        1.9968           -0.6210468             -16.8995
        33        1.9957           -0.6162221             -16.7683
        34        1.9881           -0.5999856             -16.3264
        35        1.9806           -0.5922242             -16.1152
        36        1.9775           -0.5898829             -16.0515
        37        1.9567           -0.5793379             -15.7646 (HOMO)
        38        0.1060           -0.4733373             -12.8802 (LUMO)
        39        0.0035           -0.4183810             -11.3847
        40        0.0004           -0.3842942             -10.4572
        41        0.0000           -0.3309578              -9.0058
        42        0.0000           -0.3124273              -8.5016
        43        0.0000           -0.2577203              -7.0129
        44                         -0.2137723              -5.8170
        45                         -0.1492682              -4.0618
        46                         -0.1387283              -3.7750
        47                         -0.0912784              -2.4838
        48                         -0.0730441              -1.9876
       ...                                ...                  ...
        67                          5.3160985             144.6584
      -------------------------------------------------------------
                  HL-Gap            0.1060007 Eh            2.8844 eV

     #   Z          covCN         q      C6AA      α(0)
     1   6 C        3.753    -0.143    23.314     6.885
     2   7 N        3.947     0.102    19.480     6.555
     3   6 C        3.802     0.044    19.834     6.341
     4   7 N        2.102    -0.242    26.995     7.708
     5   6 C        3.167     0.153    24.360     8.065
     6   6 C        4.070     0.025    20.069     6.363
     7   6 C        2.760     0.274    22.371     7.746
     8   8 O        0.857    -0.320    20.154     6.019
     9   7 N        2.745    -0.085    22.903     7.108
    10   6 C        3.710    -0.065    21.896     6.687
    11   6 C        2.734     0.321    21.551     7.601
    12   8 O        0.859    -0.310    19.955     5.989
    13   7 N        2.732    -0.038    21.976     6.962
    14   6 C        3.697    -0.072    22.063     6.719
    15   1 H        0.925     0.116     1.648     2.007
    16   1 H        0.925     0.113     1.674     2.024
    17   1 H        0.925     0.107     1.722     2.052
    18   1 H        0.925     0.118     1.626     1.994
    19   1 H        0.925     0.116     1.645     2.006
    20   1 H        0.925     0.106     1.732     2.058
    21   1 H        0.925     0.110     1.694     2.035
    22   1 H        0.925     0.106     1.734     2.059
    23   1 H        0.925     0.107     1.722     2.052
    24   1 H        0.925     0.125     1.572     1.961
    25   1 H        0.867     0.233     0.951     1.527

Wiberg/Mayer (AO) data.
largest (>0.10) Wiberg bond orders for each atom

     #   Z sym  total        # sym  WBO       # sym  WBO       # sym  WBO
 ---------------------------------------------------------------------------
     1   6 C    3.957 --     3 C    1.031    17 H    0.971    15 H    0.954
                            16 H    0.952
     2   7 N    3.659 --     4 N    0.952    25 H    0.928     3 C    0.859
                             6 C    0.818
     3   6 C    3.864 --     1 C    1.031    18 H    0.953     6 C    0.918
                             2 N    0.859
     4   7 N    2.764 --     5 C    1.529     2 N    0.952    13 N    0.133
     5   6 C    3.934 --     4 N    1.529    13 N    1.292     6 C    0.992
     6   6 C    3.853 --     5 C    0.992     7 C    0.956     3 C    0.918
                             2 N    0.818
     7   6 C    3.941 --     8 O    1.747     9 N    1.146     6 C    0.956
     8   8 O    2.086 --     7 C    1.747     9 N    0.163
     9   7 N    3.549 --     7 C    1.146    11 C    1.080    10 C    0.959
                             8 O    0.163    12 O    0.118
    10   6 C    3.898 --    19 H    0.968    21 H    0.961    20 H    0.961
                             9 N    0.959
    11   6 C    3.941 --    12 O    1.759     9 N    1.080    13 N    1.013
    12   8 O    2.101 --    11 C    1.759     9 N    0.118    13 N    0.102
    13   7 N    3.584 --     5 C    1.292    11 C    1.013    14 C    0.961
                             4 N    0.133    12 O    0.102
    14   6 C    3.902 --    24 H    0.966    23 H    0.962    22 H    0.962
                            13 N    0.961
    15   1 H    0.985 --     1 C    0.954
    16   1 H    0.983 --     1 C    0.952
    17   1 H    0.988 --     1 C    0.971
    18   1 H    0.985 --     3 C    0.953
    19   1 H    0.984 --    10 C    0.968
    20   1 H    0.980 --    10 C    0.961
    21   1 H    0.980 --    10 C    0.961
    22   1 H    0.983 --    14 C    0.962
    23   1 H    0.983 --    14 C    0.962
    24   1 H    0.983 --    14 C    0.966
    25   1 H    0.945 --     2 N    0.928
 ---------------------------------------------------------------------------

molecular dipole:
                 x           y           z       tot (Debye)
 q only:        1.508      -0.779       0.097
   full:        1.764      -0.787      -0.044       4.911

           -------------------------------------------------
          | TOTAL ENERGY              -59.356270262728 Eh   |
          | GRADIENT NORM               0.003558795168 Eh/α |
          | HOMO-LUMO GAP               2.884425137825 eV   |
           -------------------------------------------------

 * finished run on 2024/06/05 at 19:59:11.543
