   * xtb version 6.6.1 (8d0f1dd) compiled by 'conda@1efc2f54142f' on 2023-08-01
          program call               : xtb xtbopt.xyz --opt crude --input .xc2 --gfn2

   ID    Z sym.   atoms
    1    6 C      1, 3, 5-7, 10, 11, 14
    2    7 N      2, 4, 9, 13
    3    8 O      8, 12
    4    1 H      15-25
########################################################################
[WARNING] Please study the warnings concerning your input carefully
-1- readin_getIntValue: could not parse ''
########################################################################

          :  Hamiltonian                  GFN2-xTB          :
 * total energy  :   -40.5600509 Eh     change       -0.9237056E-13 Eh
 * total energy  :   -42.0530688 Eh     change       -0.1493018E+01 Eh
 * total energy  :   -42.0865871 Eh     change       -0.3351836E-01 Eh
 * total energy  :   -42.0923590 Eh     change       -0.5771816E-02 Eh
 * total energy  :   -42.0928814 Eh     change       -0.5224104E-03 Eh
 * total energy  :   -42.0929708 Eh     change       -0.8941544E-04 Eh
 * total energy  :   -42.0930121 Eh     change       -0.4132329E-04 Eh
 * total energy  :   -42.0930440 Eh     change       -0.3194584E-04 Eh
   *** GEOMETRY OPTIMIZATION CONVERGED AFTER 8 ITERATIONS ***

 final structure:
================
25
 xtb: 6.6.1 (8d0f1dd)
C            3.28563131722449        0.86687264065534        0.36035233373570
N            1.98997553009646       -0.85663656263211       -0.94812142791731
C            2.33425381354544       -0.28485910712905        0.35457437932054
N            1.15478280130780       -2.04984337221370       -0.83261140890772
C            0.21783614962475       -1.35910637742102       -0.22580078211121
C            0.95710929848487       -0.07559062754979       -0.20618245675451
C            0.16573617658581        1.17052551811392       -0.41376462693429
O            0.59569556079007        2.21295562983724       -0.82507413215261
N           -1.13257769903755        0.95014654876946        0.00639075219100
C           -2.01388266499066        2.11530478668678        0.06396728227632
C           -1.76465628273867       -0.25343863534952        0.35081956185701
O           -2.89058907214662       -0.27615502606801        0.74612441903323
N           -1.04621068666007       -1.46223363885480        0.14200400904121
C           -1.75476478637596       -2.72909848955846        0.18355262921580
H            3.26004662803491        1.34921193987337        1.33550837065281
H            4.30244369339820        0.51483679043432        0.19362147025359
H            3.02687408874784        1.60670163961555       -0.39461706701942
H            2.46580749189425       -1.03092923800741        1.13566093585212
H           -1.42459345767077        3.00184115631748       -0.15509838831282
H           -2.81641844234332        2.01290953150293       -0.66594474264972
H           -2.45559714614912        2.18755373823727        1.05684708027301
H           -1.35632910290441       -3.34928673491747        0.98542920922189
H           -1.62849222490916       -3.24919427913247       -0.76534462872531
H           -2.80763448541604       -2.52515365815972        0.36868303114991
H            2.49598501569332       -0.66909563141143       -1.81980418468468

          :  Hamiltonian                  GFN2-xTB          :
         :: total energy             -42.093044050000 Eh    ::
         :: gradient norm              0.008847675973 Eh/a0 ::
         :: HOMO-LUMO gap              2.904241028288 eV    ::
         :: SCC energy               -42.584432502785 Eh    ::
         :: -> dispersion             -0.022034210839 Eh    ::
         :: repulsion energy           0.491210677504 Eh    ::

    * Orbital Energies and Occupations

         #    Occupation            Energy/Eh            Energy/eV
      -------------------------------------------------------------
         1        2.0000           -0.9390220             -25.5521
       ...           ...                  ...                  ...
        25        1.9999           -0.6753588             -18.3774
        26        1.9999           -0.6673833             -18.1604
        27        1.9996           -0.6500926             -17.6899
        28        1.9993           -0.6411152             -17.4456
        29        1.9993           -0.6403225             -17.4241
        30        1.9989           -0.6330921             -17.2273
        31        1.9984           -0.6267194             -17.0539
        32        1.9972           -0.6180366             -16.8176
        33        1.9957           -0.6114470             -16.6383
        34        1.9887           -0.5961019             -16.2208
        35        1.9825           -0.5891223             -16.0308
        36        1.9790           -0.5862201             -15.9519
        37        1.9567           -0.5745928             -15.6355 (HOMO)
        38        0.1014           -0.4678639             -12.7312 (LUMO)
        39        0.0035           -0.4136808             -11.2568
        40        0.0003           -0.3762702             -10.2388
        41        0.0000           -0.3237085              -8.8086
        42        0.0000           -0.3017529              -8.2111
        43                         -0.2365493              -6.4368
        44                         -0.2082947              -5.6680
        45                         -0.1663952              -4.5278
        46                         -0.1289971              -3.5102
        47                         -0.0897705              -2.4428
        48                         -0.0742772              -2.0212
       ...                                ...                  ...
        67                          0.5354437              14.5702
      -------------------------------------------------------------
                  HL-Gap            0.1067289 Eh            2.9042 eV

     #   Z          covCN         q      C6AA      α(0)
     1   6 C        3.753    -0.142    23.289     6.882
     2   7 N        4.037     0.112    19.319     6.528
     3   6 C        3.798     0.049    19.750     6.328
     4   7 N        2.100    -0.226    26.598     7.651
     5   6 C        3.247     0.156    23.749     7.893
     6   6 C        4.068     0.025    20.079     6.365
     7   6 C        2.760     0.274    22.365     7.744
     8   8 O        0.857    -0.327    20.268     6.036
     9   7 N        2.745    -0.088    22.946     7.114
    10   6 C        3.710    -0.064    21.878     6.685
    11   6 C        2.732     0.321    21.547     7.600
    12   8 O        0.859    -0.313    20.009     5.997
    13   7 N        2.732    -0.040    22.010     6.968
    14   6 C        3.697    -0.072    22.053     6.717
    15   1 H        0.925     0.114     1.663     2.017
    16   1 H        0.925     0.109     1.708     2.044
    17   1 H        0.925     0.104     1.750     2.069
    18   1 H        0.925     0.117     1.637     2.001
    19   1 H        0.925     0.115     1.655     2.012
    20   1 H        0.925     0.104     1.749     2.068
    21   1 H        0.925     0.109     1.708     2.044
    22   1 H        0.925     0.104     1.745     2.066
    23   1 H        0.925     0.105     1.736     2.061
    24   1 H        0.925     0.124     1.578     1.964
    25   1 H        0.859     0.228     0.973     1.545

Wiberg/Mayer (AO) data.
largest (>0.10) Wiberg bond orders for each atom

     #   Z sym  total        # sym  WBO       # sym  WBO       # sym  WBO
 ---------------------------------------------------------------------------
     1   6 C    3.960 --     3 C    1.029    17 H    0.971    15 H    0.957
                            16 H    0.954
     2   7 N    3.700 --     4 N    0.959    25 H    0.912     3 C    0.886
                             6 C    0.845
     3   6 C    3.869 --     1 C    1.029    18 H    0.951     6 C    0.901
                             2 N    0.886
     4   7 N    2.770 --     5 C    1.529     2 N    0.959    13 N    0.132
     5   6 C    3.932 --     4 N    1.529    13 N    1.291     6 C    0.980
     6   6 C    3.861 --     5 C    0.980     7 C    0.962     3 C    0.901
                             2 N    0.845
     7   6 C    3.941 --     8 O    1.742     9 N    1.145     6 C    0.962
     8   8 O    2.081 --     7 C    1.742     9 N    0.161
     9   7 N    3.548 --     7 C    1.145    11 C    1.081    10 C    0.960
                             8 O    0.161    12 O    0.118
    10   6 C    3.900 --    19 H    0.968    21 H    0.962    20 H    0.962
                             9 N    0.960
    11   6 C    3.941 --    12 O    1.756     9 N    1.081    13 N    1.014
    12   8 O    2.099 --    11 C    1.756     9 N    0.118    13 N    0.102
    13   7 N    3.582 --     5 C    1.291    11 C    1.014    14 C    0.961
                             4 N    0.132    12 O    0.102
    14   6 C    3.904 --    24 H    0.966    23 H    0.963    22 H    0.963
                            13 N    0.961
    15   1 H    0.986 --     1 C    0.957
    16   1 H    0.984 --     1 C    0.954
    17   1 H    0.988 --     1 C    0.971
    18   1 H    0.985 --     3 C    0.951
    19   1 H    0.985 --    10 C    0.968
    20   1 H    0.981 --    10 C    0.962
    21   1 H    0.981 --    10 C    0.962
    22   1 H    0.984 --    14 C    0.963
    23   1 H    0.984 --    14 C    0.963
    24   1 H    0.983 --    14 C    0.966
    25   1 H    0.945 --     2 N    0.912
 ---------------------------------------------------------------------------

molecular dipole:
                 x           y           z       tot (Debye)
 q only:        1.661      -0.863      -0.064
   full:        1.953      -0.829      -0.233       5.426

           -------------------------------------------------
          | TOTAL ENERGY              -42.093044050000 Eh   |
          | GRADIENT NORM               0.008847675973 Eh/α |
          | HOMO-LUMO GAP               2.904241028288 eV   |
           -------------------------------------------------

 * finished run on 2024/06/05 at 19:59:11.885
