   * xtb version 6.6.1 (8d0f1dd) compiled by 'conda@1efc2f54142f' on 2023-08-01
          program call               : xtb struc.xyz --opt loose --input .xc1 --gfn2

   ID    Z sym.   atoms
    1    6 C      1, 3, 5-7, 10, 11, 14
    2    7 N      2, 4, 9, 13
    3    8 O      8, 12
    4    1 H      15-25
constraining bond 3 17 to    3.7133300 Å, actual value:    3.3163079 Å

          :  Hamiltonian                  GFN2-xTB          :
 * total energy  :   -42.5293058 Eh     change       -0.6650680E-10 Eh
 * total energy  :   -44.2603833 Eh     change       -0.1731078E+01 Eh
 * total energy  :   -47.2912834 Eh     change       -0.3030900E+01 Eh
 * total energy  :   -51.6400614 Eh     change       -0.4348778E+01 Eh
 * total energy  :   -57.2762124 Eh     change       -0.5636151E+01 Eh
 * total energy  :   -36.8104444 Eh     change        0.2046577E+02 Eh
 * total energy  :   -58.9768370 Eh     change       -0.2216639E+02 Eh
 * total energy  :   -59.1177830 Eh     change       -0.1409460E+00 Eh
 * total energy  :   -59.2439203 Eh     change       -0.1261373E+00 Eh
 * total energy  :   -59.3335944 Eh     change       -0.8967413E-01 Eh
 * total energy  :   -59.7423113 Eh     change       -0.7816302E-04 Eh
 * total energy  :   -59.7423451 Eh     change       -0.3379943E-04 Eh
 * total energy  :   -59.7424064 Eh     change       -0.6127282E-04 Eh
 * total energy  :   -59.7424488 Eh     change       -0.4245796E-04 Eh
 * total energy  :   -59.7424857 Eh     change       -0.3688594E-04 Eh
 * total energy  :   -59.7425146 Eh     change       -0.2890718E-04 Eh
 * total energy  :   -59.7425298 Eh     change       -0.1520185E-04 Eh
 * total energy  :   -59.7425384 Eh     change       -0.8585946E-05 Eh
 * total energy  :   -59.7425430 Eh     change       -0.4640419E-05 Eh
   *** GEOMETRY OPTIMIZATION CONVERGED AFTER 66 ITERATIONS ***

 final structure:
================
25
 xtb: 6.6.1 (8d0f1dd)
C            3.26459628265338        1.16118255179946       -0.09897905871335
N            2.19774716160896        0.25512903919003       -0.07856251409746
C            3.50609494377145       -0.35273829477728       -0.19354671784489
N            1.15334380682963       -2.21743248938100       -0.07384100842413
C            0.34044370197212       -1.24067196647142       -0.04403259840723
C            0.91717926280837        0.09690655670000       -0.02704195464798
C            0.07076558309350        1.30700894656995        0.04491260409654
O            0.55473008412128        2.41623402000469        0.07084123780369
N           -1.27787592941608        1.05743401195375        0.07529229647700
C           -2.19081375192054        2.18570490079322        0.14217087677930
C           -1.87621013213206       -0.19899804286993        0.03080043576812
O           -3.07248796681059       -0.31104348208062        0.04380515442245
N           -1.03685540589629       -1.30658853360033       -0.02608322775619
C           -1.67022348653831       -2.61376325644564       -0.06955184458170
H            3.46294969646625        1.71556077877500        0.81090993625101
H            3.37725761115441        1.75788674214594       -0.99890285426245
H            3.63599493057308       -0.54963458122500       -0.54624102748966
H            3.78492388950320       -0.75445817173799        0.82001442533794
H           -1.60406085202304        3.10149036964086        0.15804758914092
H           -2.85602520725484        2.17511719558452       -0.72231921300177
H           -2.80460746433392        2.11212363867250        1.04101699301523
H           -1.37933314237044       -3.20615077527861        0.79959299952342
H           -1.39118233172206       -3.13866391433621       -0.98477407627339
H           -2.74913514155095       -2.46860640399407       -0.05633119516895
H            0.80321537151244       -3.16479029803274       -0.08602564004555

          :  Hamiltonian                  GFN2-xTB          :
         :: total energy             -59.742543045592 Eh    ::
         :: gradient norm              0.001322568013 Eh/a0 ::
         :: HOMO-LUMO gap              1.714608919588 eV    ::
         :: SCC energy               -42.696937410319 Eh    ::
         :: -> dispersion             -0.021792213027 Eh    ::
         :: repulsion energy           2.269602154644 Eh    ::

    * Orbital Energies and Occupations

         #    Occupation            Energy/Eh            Energy/eV
      -------------------------------------------------------------
         1        2.0000           -0.8963693             -24.3915
       ...           ...                  ...                  ...
        25        1.9994           -0.6590494             -17.9336
        26        1.9993           -0.6565878             -17.8667
        27        1.9989           -0.6483006             -17.6412
        28        1.9988           -0.6471865             -17.6108
        29        1.9981           -0.6398034             -17.4099
        30        1.9966           -0.6310287             -17.1712
        31        1.9961           -0.6286296             -17.1059
        32        1.9921           -0.6175658             -16.8048
        33        1.9706           -0.5965679             -16.2334
        34        1.9499           -0.5879271             -15.9983
        35        1.9399           -0.5849735             -15.9179
        36        1.8897           -0.5749357             -15.6448
        37        1.8635           -0.5713457             -15.5471 (HOMO)
        38        0.4067           -0.5083350             -13.8325 (LUMO)
        39        0.0006           -0.4007876             -10.9060
        40        0.0003           -0.3901930             -10.6177
        41        0.0000           -0.3043116              -8.2807
        42        0.0000           -0.3020112              -8.2181
        43                         -0.2183186              -5.9408
        44                         -0.1751240              -4.7654
        45                         -0.1399570              -3.8084
        46                         -0.0990874              -2.6963
        47                         -0.0687290              -1.8702
        48                         -0.0530393              -1.4433
       ...                                ...                  ...
        67                         10.7274594             291.9090
      -------------------------------------------------------------
                  HL-Gap            0.0630107 Eh            1.7146 eV

     #   Z          covCN         q      C6AA      α(0)
     1   6 C        3.737    -0.020    21.016     6.542
     2   7 N        2.747     0.080    19.850     6.617
     3   6 C        3.731    -0.066    21.858     6.674
     4   7 N        1.792    -0.286    28.249     7.873
     5   6 C        2.827     0.165    24.443     8.101
     6   6 C        2.900     0.040    27.096     8.535
     7   6 C        2.772     0.268    22.485     7.766
     8   8 O        0.858    -0.337    20.455     6.064
     9   7 N        2.740    -0.065    22.507     7.046
    10   6 C        3.707    -0.063    21.857     6.683
    11   6 C        2.716     0.323    21.514     7.593
    12   8 O        0.860    -0.335    20.422     6.059
    13   7 N        2.741    -0.069    22.584     7.058
    14   6 C        3.703    -0.064    21.892     6.690
    15   1 H        0.925     0.128     1.550     1.947
    16   1 H        0.925     0.131     1.528     1.933
    17   1 H        0.936     0.194     1.128     1.661
    18   1 H        0.919     0.122     1.596     1.976
    19   1 H        0.925     0.118     1.626     1.994
    20   1 H        0.924     0.113     1.672     2.022
    21   1 H        0.924     0.112     1.675     2.024
    22   1 H        0.924     0.093     1.849     2.127
    23   1 H        0.924     0.093     1.848     2.126
    24   1 H        0.925     0.123     1.586     1.969
    25   1 H        0.860     0.201     1.101     1.644

Wiberg/Mayer (AO) data.
largest (>0.10) Wiberg bond orders for each atom

     #   Z sym  total        # sym  WBO       # sym  WBO       # sym  WBO
 ---------------------------------------------------------------------------
     1   6 C    3.888 --     2 N    0.985     3 C    0.962    15 H    0.944
                            16 H    0.939
     2   7 N    3.520 --     6 C    1.503     1 C    0.985     3 C    0.941
     3   6 C    3.845 --     1 C    0.962     2 N    0.941    17 H    0.940
                            18 H    0.926
     4   7 N    2.844 --     5 C    1.677    25 H    0.921    13 N    0.122
     5   6 C    3.947 --     4 N    1.677    13 N    1.122     6 C    1.058
     6   6 C    3.781 --     2 N    1.503     5 C    1.058     7 C    1.000
     7   6 C    3.930 --     8 O    1.684     9 N    1.151     6 C    1.000
     8   8 O    1.973 --     7 C    1.684     9 N    0.148
     9   7 N    3.523 --     7 C    1.151    11 C    1.079    10 C    0.974
                             8 O    0.148    12 O    0.104
    10   6 C    3.881 --     9 N    0.974    19 H    0.964    20 H    0.949
                            21 H    0.949
    11   6 C    3.949 --    12 O    1.696    13 N    1.091     9 N    1.079
    12   8 O    2.013 --    11 C    1.696    13 N    0.113     9 N    0.104
    13   7 N    3.492 --     5 C    1.122    11 C    1.091    14 C    0.978
                             4 N    0.122    12 O    0.113
    14   6 C    3.904 --    13 N    0.978    24 H    0.961    23 H    0.959
                            22 H    0.959
    15   1 H    0.973 --     1 C    0.944
    16   1 H    0.971 --     1 C    0.939
    17   1 H    0.959 --     3 C    0.940
    18   1 H    0.969 --     3 C    0.926
    19   1 H    0.981 --    10 C    0.964
    20   1 H    0.967 --    10 C    0.949
    21   1 H    0.967 --    10 C    0.949
    22   1 H    0.978 --    14 C    0.959
    23   1 H    0.978 --    14 C    0.959
    24   1 H    0.981 --    14 C    0.961
    25   1 H    0.951 --     4 N    0.921
 ---------------------------------------------------------------------------

molecular dipole:
                 x           y           z       tot (Debye)
 q only:        2.060      -0.658      -0.043
   full:        1.767      -0.860       0.019       4.995

           -------------------------------------------------
          | TOTAL ENERGY              -59.742543045592 Eh   |
          | GRADIENT NORM               0.001322568013 Eh/α |
          | HOMO-LUMO GAP               1.714608919588 eV   |
           -------------------------------------------------

 * finished run on 2024/06/05 at 19:58:30.768
