   * xtb version 6.6.1 (8d0f1dd) compiled by 'conda@1efc2f54142f' on 2023-08-01
          program call               : xtb struc.xyz --opt loose --input .xc1 --gfn2

   ID    Z sym.   atoms
    1    6 C      1, 3, 5-7, 10, 11, 14
    2    7 N      2, 4, 9, 13
    3    8 O      8, 12
    4    1 H      15-25
constraining bond 3 7 to    6.0000000 Å, actual value:    3.6112318 Å

          :  Hamiltonian                  GFN2-xTB          :
 * total energy  :    -1.4933494 Eh     change       -0.6650680E-10 Eh
 * total energy  :   -21.0955318 Eh     change       -0.1960218E+02 Eh
 * total energy  :   -32.4214538 Eh     change       -0.1132592E+02 Eh
 * total energy  :   -38.9952582 Eh     change       -0.6573804E+01 Eh
 * total energy  :   -41.4445866 Eh     change       -0.2449328E+01 Eh
 * total energy  :   -41.7135436 Eh     change       -0.2689569E+00 Eh
 * total energy  :   -41.7322215 Eh     change       -0.1867797E-01 Eh
 * total energy  :   -41.7571819 Eh     change       -0.2496032E-01 Eh
 * total energy  :   -41.7800827 Eh     change       -0.2290087E-01 Eh
 * total energy  :   -41.7939613 Eh     change       -0.1387858E-01 Eh
 * total energy  :   -42.0045010 Eh     change       -0.5438869E-03 Eh
 * total energy  :   -42.0050824 Eh     change       -0.5814588E-03 Eh
 * total energy  :   -42.0057637 Eh     change       -0.6812868E-03 Eh
 * total energy  :   -42.0062763 Eh     change       -0.5125957E-03 Eh
 * total energy  :   -42.0065409 Eh     change       -0.2646217E-03 Eh
 * total energy  :   -42.0068264 Eh     change       -0.2855219E-03 Eh
 * total energy  :   -42.0068204 Eh     change        0.6065451E-05 Eh
 * total energy  :   -42.0069679 Eh     change       -0.1475546E-03 Eh
 * total energy  :   -42.0069995 Eh     change       -0.3156155E-04 Eh
   *** GEOMETRY OPTIMIZATION CONVERGED AFTER 80 ITERATIONS ***

 final structure:
================
25
 xtb: 6.6.1 (8d0f1dd)
C            2.83104107656580        1.81236161809045       -0.26710331803161
N            1.90671742270745        0.84324321486769       -0.70513147532107
C            2.15502194305227       -2.78662375222507       -0.87923085622592
N            1.21590235626429       -2.40014436992686       -0.10464419081294
C            0.52704082260946       -1.13352859531925       -0.02257964026243
C            1.20909289144651       -0.02021326847900       -0.24374138882467
C           -0.74310337438156        1.87392973696591        1.54446337027176
O           -0.43720312872907        2.33493449136596        2.55521885776818
N           -0.99456930004157        1.20331483624769        0.50912762550659
C           -1.30811733925491        1.82114859468416       -0.78746798223613
C           -1.64235103234416       -0.18671003206838        0.65445978128768
O           -2.78654410679704       -0.21682206760492        0.98864521086163
N           -0.84018701875037       -1.20658952633545        0.33766728108630
C           -1.47741779607611       -2.52267320860877        0.33875295079896
H            2.82992826148349        1.96096886255482        0.81491198595818
H            3.82392902455487        1.48818968228819       -0.58557394661044
H            2.61113713951992        2.74734814137775       -0.78332319819476
H            2.52701663167762       -2.08561140537231       -1.62296850898502
H           -0.91468077729704        2.83395578531900       -0.82020328139267
H           -0.85753697007981        1.22322664207676       -1.57546901727600
H           -2.38935889796948        1.84692952565025       -0.92009845760485
H           -1.23994945716133       -3.07796884703142        1.24806115305184
H           -1.17491677628927       -3.08664599903911       -0.54248589141608
H           -2.55636103881240       -2.37796326065755        0.30986672981886
H            0.88590095820422       -3.06981825718377        0.59001782463376

          :  Hamiltonian                  GFN2-xTB          :
         :: total energy             -42.006999495965 Eh    ::
         :: gradient norm              0.003193884544 Eh/a0 ::
         :: HOMO-LUMO gap              1.449478596699 eV    ::
         :: SCC energy               -42.592580548742 Eh    ::
         :: -> dispersion             -0.021976294838 Eh    ::
         :: repulsion energy           0.585295220638 Eh    ::

    * Orbital Energies and Occupations

         #    Occupation            Energy/Eh            Energy/eV
      -------------------------------------------------------------
         1        2.0000           -0.9411018             -25.6087
       ...           ...                  ...                  ...
        25        2.0000           -0.6816439             -18.5485
        26        2.0000           -0.6712774             -18.2664
        27        2.0000           -0.6592456             -17.9390
        28        2.0000           -0.6538784             -17.7929
        29        1.9999           -0.6390961             -17.3907
        30        1.9999           -0.6323497             -17.2071
        31        1.9998           -0.6254287             -17.0188
        32        1.9997           -0.6184863             -16.8299
        33        1.9994           -0.6066021             -16.5065
        34        1.9992           -0.6008942             -16.3512
        35        1.9990           -0.5976204             -16.2621
        36        1.8802           -0.5208012             -14.1717
        37        1.6992           -0.5046149             -13.7313 (HOMO)
        38        0.3269           -0.4513475             -12.2818 (LUMO)
        39        0.0504           -0.4193043             -11.4099
        40        0.0248           -0.4078991             -11.0995
        41        0.0129           -0.3974169             -10.8143
        42        0.0085           -0.3908349             -10.6352
        43        0.0001           -0.3227065              -8.7813
        44        0.0000           -0.2478421              -6.7441
        45                         -0.1929777              -5.2512
        46                         -0.1342836              -3.6540
        47                         -0.1036537              -2.8206
        48                         -0.0720212              -1.9598
       ...                                ...                  ...
        67                          0.9413307              25.6149
      -------------------------------------------------------------
                  HL-Gap            0.0532674 Eh            1.4495 eV

     #   Z          covCN         q      C6AA      α(0)
     1   6 C        3.691    -0.051    21.688     6.664
     2   7 N        1.821    -0.064    23.209     7.138
     3   6 C        1.841    -0.098    33.857     9.400
     4   7 N        2.687    -0.015    21.546     6.894
     5   6 C        2.818     0.046    26.953     8.506
     6   6 C        1.911     0.055    29.705     8.802
     7   6 C        1.796     0.309    24.242     7.957
     8   8 O        0.856    -0.120    16.818     5.498
     9   7 N        2.717    -0.064    22.476     7.041
    10   6 C        3.701    -0.063    21.881     6.689
    11   6 C        2.715     0.311    21.711     7.627
    12   8 O        0.858    -0.331    20.357     6.049
    13   7 N        2.734    -0.043    22.070     6.977
    14   6 C        3.714    -0.071    21.993     6.701
    15   1 H        0.924     0.074     2.038     2.233
    16   1 H        0.924     0.115     1.657     2.013
    17   1 H        0.924     0.101     1.773     2.082
    18   1 H        0.925     0.077     2.006     2.215
    19   1 H        0.925     0.100     1.782     2.087
    20   1 H        0.925     0.100     1.785     2.089
    21   1 H        0.925     0.113     1.669     2.020
    22   1 H        0.924     0.087     1.911     2.162
    23   1 H        0.925     0.093     1.846     2.124
    24   1 H        0.925     0.115     1.651     2.009
    25   1 H        0.860     0.222     1.000     1.567

Wiberg/Mayer (AO) data.
largest (>0.10) Wiberg bond orders for each atom

     #   Z sym  total        # sym  WBO       # sym  WBO       # sym  WBO
 ---------------------------------------------------------------------------
     1   6 C    3.943 --     2 N    1.024    15 H    0.962    17 H    0.955
                            16 H    0.936
     2   7 N    3.382 --     6 C    2.090     1 C    1.024     5 C    0.131
     3   6 C    2.804 --     4 N    1.694    18 H    0.940
     4   7 N    3.632 --     3 C    1.694     5 C    0.963    25 H    0.900
     5   6 C    3.799 --     6 C    1.543    13 N    1.019     4 N    0.963
                             2 N    0.131
     6   6 C    3.892 --     2 N    2.090     5 C    1.543
     7   6 C    3.648 --     8 O    2.047     9 N    1.519
     8   8 O    2.335 --     7 C    2.047     9 N    0.215
     9   7 N    3.527 --     7 C    1.519    10 C    0.920    11 C    0.750
                             8 O    0.215
    10   6 C    3.884 --    19 H    0.975    20 H    0.972    21 H    0.966
                             9 N    0.920
    11   6 C    3.895 --    12 O    1.744    13 N    1.269     9 N    0.750
    12   8 O    2.123 --    11 C    1.744    13 N    0.188
    13   7 N    3.539 --    11 C    1.269     5 C    1.019    14 C    0.963
                            12 O    0.188
    14   6 C    3.921 --    23 H    0.971    22 H    0.967    24 H    0.966
                            13 N    0.963
    15   1 H    0.986 --     1 C    0.962
    16   1 H    0.982 --     1 C    0.936
    17   1 H    0.984 --     1 C    0.955
    18   1 H    0.964 --     3 C    0.940
    19   1 H    0.989 --    10 C    0.975
    20   1 H    0.989 --    10 C    0.972
    21   1 H    0.987 --    10 C    0.966
    22   1 H    0.989 --    14 C    0.967
    23   1 H    0.990 --    14 C    0.971
    24   1 H    0.984 --    14 C    0.966
    25   1 H    0.940 --     4 N    0.900
 ---------------------------------------------------------------------------

molecular dipole:
                 x           y           z       tot (Debye)
 q only:        0.874      -0.008      -0.329
   full:        0.782       0.307      -0.122       2.159

           -------------------------------------------------
          | TOTAL ENERGY              -42.006999495965 Eh   |
          | GRADIENT NORM               0.003193884544 Eh/α |
          | HOMO-LUMO GAP               1.449478596699 eV   |
           -------------------------------------------------

 * finished run on 2024/06/05 at 20:00:09.566
