   * xtb version 6.6.1 (8d0f1dd) compiled by 'conda@1efc2f54142f' on 2023-08-01
          program call               : xtb xtbopt.xyz --opt crude --input .xc2 --gfn2

   ID    Z sym.   atoms
    1    6 C      1, 3, 5-7, 10, 11, 14
    2    7 N      2, 4, 9, 13
    3    8 O      8, 12
    4    1 H      15-25

          :  Hamiltonian                  GFN2-xTB          :
 * total energy  :   -42.0823714 Eh     change       -0.8952838E-12 Eh
   *** GEOMETRY OPTIMIZATION CONVERGED AFTER 1 ITERATIONS ***

 final structure:
================
25
 xtb: 6.6.1 (8d0f1dd)
C            3.05752071427089        1.08385303535803        0.18617972283586
N            2.19297911921290        0.07487678165020        0.13355696015093
C            2.46550380646662       -1.25131360422033        0.13973711261528
N            1.31026145582126       -1.95889027084466        0.09069652626826
C            0.26884003497965       -1.07600934223266        0.05360198321189
C            0.80557943762749        0.19674172480524        0.07991949109764
C           -0.02177026017017        1.38528405997034        0.04439596430680
O            0.37858189490797        2.52269924969539        0.04582156577806
N           -1.37493311726991        1.04704971821184        0.00676773657615
C           -2.33788114958457        2.14251824808835       -0.00387506313794
C           -1.93878863335523       -0.21249062045127       -0.02593385289573
O           -3.12079547720169       -0.39550112637041       -0.06962361274443
N           -1.04603379340737       -1.31717000798590       -0.00586516887924
C           -1.59298787298687       -2.65890230717997       -0.04988126562723
H            4.11674555326915        0.88449824641808        0.22602875176797
H            5.60543749424725        1.64771941984546       -1.04657416771125
H            2.66959065297819        2.08697452220233        0.15345258391651
H            3.44409534895558       -1.68315160870792        0.18917377224161
H           -1.78458089525544        3.07785464220918       -0.00630116227970
H           -2.96881841440006        2.07170689038883       -0.88930374219154
H           -2.97376023228595        2.08127369080564        0.87879768958807
H           -1.30972967370652       -3.21812049056326        0.84190830178698
H           -1.25574367195359       -3.18024723102112       -0.94630719811884
H           -2.67836666241507       -2.56602391370407       -0.08140060878161
H            1.24948585535547       -2.96699116476740        0.08619929812538

          :  Hamiltonian                  GFN2-xTB          :
         :: total energy             -42.082371445407 Eh    ::
         :: gradient norm              0.003808447620 Eh/a0 ::
         :: HOMO-LUMO gap              0.240976293471 eV    ::
         :: SCC energy               -42.605946419137 Eh    ::
         :: -> dispersion             -0.022785218077 Eh    ::
         :: repulsion energy           0.523492956643 Eh    ::

    * Orbital Energies and Occupations

         #    Occupation            Energy/Eh            Energy/eV
      -------------------------------------------------------------
         1        2.0000           -0.9146364             -24.8885
       ...           ...                  ...                  ...
        25        2.0000           -0.6663351             -18.1319
        26        2.0000           -0.6626660             -18.0321
        27        2.0000           -0.6540483             -17.7976
        28        2.0000           -0.6433606             -17.5067
        29        2.0000           -0.6286398             -17.1062
        30        2.0000           -0.6237932             -16.9743
        31        2.0000           -0.6170917             -16.7919
        32        1.9999           -0.5939945             -16.1634
        33        1.9988           -0.5754797             -15.6596
        34        1.9902           -0.5590547             -15.2127
        35        1.9897           -0.5586239             -15.2009
        36        1.9859           -0.5561331             -15.1332
        37        1.2903           -0.5217044             -14.1963 (HOMO)
        38        0.7453           -0.5128487             -13.9553 (LUMO)
        39        0.0000           -0.4118433             -11.2068
        40        0.0000           -0.4023776             -10.9493
        41                         -0.3660765              -9.9614
        42                         -0.2833827              -7.7112
        43                         -0.2059079              -5.6030
        44                         -0.1898473              -5.1660
        45                         -0.1443433              -3.9278
        46                         -0.1128088              -3.0697
        47                         -0.0882807              -2.4022
        48                         -0.0509822              -1.3873
       ...                                ...                  ...
        67                          0.5650510              15.3758
      -------------------------------------------------------------
                  HL-Gap            0.0088557 Eh            0.2410 eV

     #   Z          covCN         q      C6AA      α(0)
     1   6 C        2.789    -0.061    29.489     8.895
     2   7 N        2.812     0.131    19.003     6.474
     3   6 C        3.034     0.033    27.219     8.557
     4   7 N        2.781    -0.055    22.297     7.013
     5   6 C        3.022     0.121    25.319     8.254
     6   6 C        3.107    -0.042    28.894     8.807
     7   6 C        2.764     0.276    22.341     7.741
     8   8 O        0.858    -0.369    21.067     6.154
     9   7 N        2.746    -0.086    22.909     7.109
    10   6 C        3.710    -0.062    21.834     6.678
    11   6 C        2.727     0.318    21.591     7.607
    12   8 O        0.859    -0.356    20.815     6.117
    13   7 N        2.739    -0.057    22.350     7.021
    14   6 C        3.696    -0.073    22.068     6.720
    15   1 H        0.926     0.114     1.659     2.014
    16   1 H        0.000     0.061     5.437     4.264
    17   1 H        0.926     0.148     1.407     1.855
    18   1 H        0.926     0.124     1.585     1.969
    19   1 H        0.925     0.112     1.676     2.025
    20   1 H        0.925     0.098     1.800     2.098
    21   1 H        0.925     0.097     1.812     2.105
    22   1 H        0.925     0.082     1.955     2.187
    23   1 H        0.924     0.083     1.951     2.184
    24   1 H        0.925     0.129     1.542     1.942
    25   1 H        0.860     0.231     0.963     1.537

Wiberg/Mayer (AO) data.
largest (>0.10) Wiberg bond orders for each atom

     #   Z sym  total        # sym  WBO       # sym  WBO       # sym  WBO
 ---------------------------------------------------------------------------
     1   6 C    3.399 --     2 N    1.331    17 H    0.953    15 H    0.946
     2   7 N    3.766 --     1 C    1.331     3 C    1.247     6 C    1.088
     3   6 C    3.669 --     4 N    1.268     2 N    1.247    18 H    0.954
     4   7 N    3.524 --     3 C    1.268     5 C    1.174    25 H    0.918
     5   6 C    3.947 --     6 C    1.364    13 N    1.232     4 N    1.174
     6   6 C    3.876 --     5 C    1.364     2 N    1.088     7 C    1.074
     7   6 C    3.965 --     8 O    1.699     9 N    1.099     6 C    1.074
     8   8 O    2.056 --     7 C    1.699     9 N    0.150
     9   7 N    3.558 --    11 C    1.131     7 C    1.099    10 C    0.968
                             8 O    0.150    12 O    0.141
    10   6 C    3.915 --    19 H    0.969     9 N    0.968    20 H    0.965
                            21 H    0.965
    11   6 C    3.960 --    12 O    1.719     9 N    1.131    13 N    1.018
    12   8 O    2.076 --    11 C    1.719     9 N    0.141    13 N    0.121
    13   7 N    3.550 --     5 C    1.232    11 C    1.018    14 C    0.975
                            12 O    0.121
    14   6 C    3.924 --    13 N    0.975    22 H    0.970    23 H    0.970
                            24 H    0.963
    15   1 H    0.986 --     1 C    0.946
    16   1 H    0.084
    17   1 H    0.978 --     1 C    0.953
    18   1 H    0.984 --     3 C    0.954
    19   1 H    0.987 --    10 C    0.969
    20   1 H    0.986 --    10 C    0.965
    21   1 H    0.986 --    10 C    0.965
    22   1 H    0.989 --    14 C    0.970
    23   1 H    0.989 --    14 C    0.970
    24   1 H    0.983 --    14 C    0.963
    25   1 H    0.946 --     4 N    0.918
 ---------------------------------------------------------------------------

molecular dipole:
                 x           y           z       tot (Debye)
 q only:        2.803      -1.980       0.056
   full:        3.129      -2.467       0.055      10.128

           -------------------------------------------------
          | TOTAL ENERGY              -42.082371445407 Eh   |
          | GRADIENT NORM               0.003808447620 Eh/α |
          | HOMO-LUMO GAP               0.240976293471 eV   |
           -------------------------------------------------

 * finished run on 2024/06/05 at 19:58:00.816
