   * xtb version 6.6.1 (8d0f1dd) compiled by 'conda@1efc2f54142f' on 2023-08-01
          program call               : xtb struc.xyz --opt loose --input .xc1 --gfn2

   ID    Z sym.   atoms
    1    6 C      1, 3, 5-7, 10, 11, 14
    2    7 N      2, 4, 9, 13
    3    8 O      8, 12
    4    1 H      15-25
constraining bond 1 7 to    6.0000000 Å, actual value:    3.1529964 Å

          :  Hamiltonian                  GFN2-xTB          :
 * total energy  :   -13.3028493 Eh     change       -0.6650680E-10 Eh
 * total energy  :   -24.5700140 Eh     change       -0.1126716E+02 Eh
 * total energy  :   -32.1568386 Eh     change       -0.7586825E+01 Eh
 * total energy  :   -37.3268203 Eh     change       -0.5169982E+01 Eh
 * total energy  :   -40.3069110 Eh     change       -0.2980091E+01 Eh
 * total energy  :   -41.2832483 Eh     change       -0.9763373E+00 Eh
 * total energy  :   -41.4364473 Eh     change       -0.1531990E+00 Eh
 * total energy  :   -41.5188464 Eh     change       -0.8239909E-01 Eh
 * total energy  :   -41.5793514 Eh     change       -0.6050501E-01 Eh
 * total energy  :   -41.6143698 Eh     change       -0.3501839E-01 Eh
 * total energy  :   -42.0936813 Eh     change       -0.5250392E-03 Eh
 * total energy  :   -42.0938102 Eh     change       -0.1288541E-03 Eh
 * total energy  :   -42.0939499 Eh     change       -0.1397061E-03 Eh
 * total energy  :   -42.0940438 Eh     change       -0.9388717E-04 Eh
 * total energy  :   -42.0941673 Eh     change       -0.1235488E-03 Eh
 * total energy  :   -42.0944369 Eh     change       -0.2695855E-03 Eh
 * total energy  :   -42.0935846 Eh     change        0.8522748E-03 Eh
 * total energy  :   -42.0947077 Eh     change       -0.1123066E-02 Eh
 * total energy  :   -42.0947369 Eh     change       -0.2919176E-04 Eh
   *** GEOMETRY OPTIMIZATION CONVERGED AFTER 97 ITERATIONS ***

 final structure:
================
25
 xtb: 6.6.1 (8d0f1dd)
C            5.37726113997781        0.24413803322844       -0.03136532528751
N            1.84512773219617        0.48810338377734        0.13172157828420
C            2.32338670362580       -0.75655715357150        0.17218252502200
N            1.25354306879576       -1.58558713161849        0.13462650003643
C            0.09944598876215       -0.86013134776050        0.07023518709493
C            0.47584277075478        0.47359085382702        0.06788667288384
C           -0.47978371677219        1.54866573752439       -0.00292298941200
O           -0.22302775501727        2.72851617916372       -0.01638529397591
N           -1.78647678982169        1.05276219619754       -0.05804877372321
C           -2.86827093929969        2.02095170811679       -0.13147308320789
C           -2.18942110465454       -0.27273889422897       -0.05210512031940
O           -3.34883367270366       -0.58402605248385       -0.10285733882454
N           -1.18511619757742       -1.25638356465227        0.01437815552812
C           -1.56721631592305       -2.65254961142436        0.01854108220448
H            6.14529236372924        0.00765939157123        0.67975845431636
H            5.58565781576279        0.95865834401329       -0.80364576716526
H            2.39464323434859        1.33504858958577        0.15147336230493
H            4.42514529152745       -0.25464878930035        0.02592545274461
H           -2.43179393944722        3.01737442299372       -0.14166452302244
H           -3.45563934457461        1.85376629313321       -1.03505900138175
H           -3.52974521849959        1.90552627601552        0.72811381063065
H           -1.22458075708605       -3.13818912021798        0.93316641715720
H           -1.15039978019677       -3.16401801873992       -0.85028453517775
H           -2.65486085985833       -2.70015937599509       -0.02616868761982
H            1.33025179604274       -2.59153380755134        0.15514285878216

          :  Hamiltonian                  GFN2-xTB          :
         :: total energy             -42.094736885033 Eh    ::
         :: gradient norm              0.002827218938 Eh/a0 ::
         :: HOMO-LUMO gap              1.041117184696 eV    ::
         :: SCC energy               -42.614894380645 Eh    ::
         :: -> dispersion             -0.021147649375 Eh    ::
         :: repulsion energy           0.520149293804 Eh    ::

    * Orbital Energies and Occupations

         #    Occupation            Energy/Eh            Energy/eV
      -------------------------------------------------------------
         1        2.0000           -0.8913170             -24.2540
       ...           ...                  ...                  ...
        25        1.9997           -0.6588891             -17.9293
        26        1.9992           -0.6423655             -17.4797
        27        1.9988           -0.6373044             -17.3419
        28        1.9987           -0.6358428             -17.3022
        29        1.9983           -0.6315173             -17.1845
        30        1.9980           -0.6282969             -17.0968
        31        1.9939           -0.6108064             -16.6209
        32        1.9920           -0.6066261             -16.5071
        33        1.9727           -0.5870198             -15.9736
        34        1.9324           -0.5723460             -15.5743
        35        1.9122           -0.5680462             -15.4573
        36        1.7681           -0.5514170             -15.0048
        37        1.7215           -0.5480982             -14.9145 (HOMO)
        38        0.7111           -0.5098378             -13.8734 (LUMO)
        39        0.0033           -0.4176812             -11.3657
        40        0.0005           -0.3875259             -10.5451
        41        0.0001           -0.3687564             -10.0344
        42        0.0000           -0.2877094              -7.8290
        43                         -0.2054171              -5.5897
        44                         -0.1574245              -4.2837
        45                         -0.1357076              -3.6928
        46                         -0.1240419              -3.3754
        47                         -0.0569274              -1.5491
        48                         -0.0328714              -0.8945
       ...                                ...                  ...
        67                          0.5508192              14.9886
      -------------------------------------------------------------
                  HL-Gap            0.0382604 Eh            1.0411 eV

     #   Z          covCN         q      C6AA      α(0)
     1   6 C        2.779    -0.093    30.324     9.019
     2   7 N        2.821    -0.027    21.766     6.929
     3   6 C        2.048    -0.062    32.644     9.228
     4   7 N        2.824    -0.054    22.287     7.012
     5   6 C        3.022     0.118    25.386     8.265
     6   6 C        3.084    -0.001    27.957     8.668
     7   6 C        2.764     0.270    22.432     7.756
     8   8 O        0.858    -0.335    20.415     6.058
     9   7 N        2.747    -0.076    22.710     7.078
    10   6 C        3.709    -0.061    21.824     6.677
    11   6 C        2.729     0.318    21.594     7.608
    12   8 O        0.860    -0.343    20.580     6.082
    13   7 N        2.738    -0.047    22.142     6.989
    14   6 C        3.697    -0.070    22.012     6.711
    15   1 H        0.926     0.129     1.544     1.943
    16   1 H        0.926     0.124     1.581     1.966
    17   1 H        0.860     0.221     1.004     1.570
    18   1 H        0.926     0.126     1.562     1.955
    19   1 H        0.925     0.119     1.620     1.991
    20   1 H        0.924     0.109     1.706     2.043
    21   1 H        0.924     0.109     1.707     2.043
    22   1 H        0.924     0.092     1.864     2.135
    23   1 H        0.924     0.092     1.864     2.135
    24   1 H        0.925     0.127     1.559     1.953
    25   1 H        0.860     0.215     1.033     1.592

Wiberg/Mayer (AO) data.
largest (>0.10) Wiberg bond orders for each atom

     #   Z sym  total        # sym  WBO       # sym  WBO       # sym  WBO
 ---------------------------------------------------------------------------
     1   6 C    2.921 --    16 H    0.981    15 H    0.980    18 H    0.950
     2   7 N    3.604 --     3 C    1.385     6 C    1.171    17 H    0.924
     3   6 C    2.871 --     2 N    1.385     4 N    1.295
     4   7 N    3.590 --     3 C    1.295     5 C    1.196    25 H    0.926
     5   6 C    3.920 --     6 C    1.336    13 N    1.205     4 N    1.196
     6   6 C    3.828 --     5 C    1.336     2 N    1.171     7 C    1.073
     7   6 C    3.952 --     8 O    1.689     9 N    1.090     6 C    1.073
     8   8 O    1.988 --     7 C    1.689     9 N    0.132
     9   7 N    3.513 --    11 C    1.120     7 C    1.090    10 C    0.976
                             8 O    0.132    12 O    0.124
    10   6 C    3.883 --     9 N    0.976    19 H    0.962    20 H    0.950
                            21 H    0.950
    11   6 C    3.955 --    12 O    1.690     9 N    1.120    13 N    1.052
    12   8 O    2.003 --    11 C    1.690     9 N    0.124    13 N    0.111
    13   7 N    3.502 --     5 C    1.205    11 C    1.052    14 C    0.978
                            12 O    0.111
    14   6 C    3.911 --    13 N    0.978    24 H    0.963    22 H    0.963
                            23 H    0.962
    15   1 H    0.981 --     1 C    0.980
    16   1 H    0.983 --     1 C    0.981
    17   1 H    0.950 --     2 N    0.924
    18   1 H    0.982 --     1 C    0.950
    19   1 H    0.980 --    10 C    0.962
    20   1 H    0.968 --    10 C    0.950
    21   1 H    0.968 --    10 C    0.950
    22   1 H    0.979 --    14 C    0.963
    23   1 H    0.979 --    14 C    0.962
    24   1 H    0.982 --    14 C    0.963
    25   1 H    0.953 --     4 N    0.926
 ---------------------------------------------------------------------------

molecular dipole:
                 x           y           z       tot (Debye)
 q only:        2.603      -1.267       0.067
   full:        2.479      -1.379       0.063       7.212

           -------------------------------------------------
          | TOTAL ENERGY              -42.094736885033 Eh   |
          | GRADIENT NORM               0.002827218938 Eh/α |
          | HOMO-LUMO GAP               1.041117184696 eV   |
           -------------------------------------------------

 * finished run on 2024/06/05 at 19:59:08.354
