   * xtb version 6.6.1 (8d0f1dd) compiled by 'conda@1efc2f54142f' on 2023-08-01
          program call               : xtb xtbopt.xyz --opt crude --input .xc2 --gfn2

   ID    Z sym.   atoms
    1    6 C      1, 3, 5-7, 10, 11, 14
    2    7 N      2, 4, 9, 13
    3    8 O      8, 12
    4    1 H      15-25

          :  Hamiltonian                  GFN2-xTB          :
 * total energy  :   -42.0947383 Eh     change        0.1136868E-12 Eh
 * total energy  :   -42.0948915 Eh     change       -0.1531844E-03 Eh
   *** GEOMETRY OPTIMIZATION CONVERGED AFTER 2 ITERATIONS ***

 final structure:
================
25
 xtb: 6.6.1 (8d0f1dd)
C            5.40716180747973        0.22663683073336       -0.03669672383419
N            1.83992217953803        0.49305816342896        0.13022831176751
C            2.31973435900437       -0.75130359944872        0.17054822728330
N            1.25070834183926       -1.58131770385036        0.13358799932097
C            0.09575694051346       -0.85687967050156        0.06971959241472
C            0.46987658178730        0.47764291016722        0.06744879322414
C           -0.48940369272180        1.55110231248140       -0.00215338137121
O           -0.23480647164444        2.73143871511494       -0.01562039731195
N           -1.79432796759657        1.05264589500576       -0.05774445816741
C           -2.87584289281757        2.02069687708757       -0.13135628676166
C           -2.19452628210803       -0.27356104207161       -0.05215562917786
O           -3.35333125505341       -0.58707471054357       -0.10286145756495
N           -1.18814310545815       -1.25523312483723        0.01425313739247
C           -1.56737791305688       -2.65211876076935        0.01865299053623
H            6.17376047518533        0.01248720565392        0.68254695737224
H            5.59505899338986        0.95806211358768       -0.79893161232942
H            2.38953088053008        1.34004728899199        0.14945992756966
H            4.45425498924879       -0.27554676367393        0.02942725315682
H           -2.43837475101152        3.01687195901207       -0.14121919301097
H           -3.46247317593846        1.85383325685391       -1.03545619941434
H           -3.53706139004683        1.90532207459778        0.72833385247220
H           -1.22381179290278       -3.13691199937776        0.93343849043186
H           -1.14959485411461       -3.16290536995762       -0.85008154109659
H           -2.65482147169843       -2.70149112738474       -0.02613218769769
H            1.32856298174442       -2.58726318869676        0.15393515266853

          :  Hamiltonian                  GFN2-xTB          :
         :: total energy             -42.094891495242 Eh    ::
         :: gradient norm              0.002796607747 Eh/a0 ::
         :: HOMO-LUMO gap              1.043822195066 eV    ::
         :: SCC energy               -42.614341716082 Eh    ::
         :: -> dispersion             -0.021121349573 Eh    ::
         :: repulsion energy           0.519443140690 Eh    ::

    * Orbital Energies and Occupations

         #    Occupation            Energy/Eh            Energy/eV
      -------------------------------------------------------------
         1        2.0000           -0.8909936             -24.2452
       ...           ...                  ...                  ...
        25        1.9997           -0.6587259             -17.9248
        26        1.9992           -0.6420805             -17.4719
        27        1.9988           -0.6368115             -17.3285
        28        1.9987           -0.6357650             -17.3000
        29        1.9984           -0.6315565             -17.1855
        30        1.9980           -0.6282105             -17.0945
        31        1.9938           -0.6106495             -16.6166
        32        1.9920           -0.6065470             -16.5050
        33        1.9727           -0.5869119             -15.9707
        34        1.9324           -0.5722114             -15.5707
        35        1.9126           -0.5679864             -15.4557
        36        1.7671           -0.5512188             -14.9994
        37        1.7227           -0.5480501             -14.9132 (HOMO)
        38        0.7105           -0.5096903             -13.8694 (LUMO)
        39        0.0032           -0.4174590             -11.3596
        40        0.0005           -0.3873544             -10.5405
        41        0.0001           -0.3686309             -10.0310
        42        0.0000           -0.2877156              -7.8291
        43                         -0.2053211              -5.5871
        44                         -0.1572899              -4.2801
        45                         -0.1357825              -3.6948
        46                         -0.1237245              -3.3667
        47                         -0.0568776              -1.5477
        48                         -0.0331385              -0.9017
       ...                                ...                  ...
        67                          0.5505308              14.9807
      -------------------------------------------------------------
                  HL-Gap            0.0383598 Eh            1.0438 eV

     #   Z          covCN         q      C6AA      α(0)
     1   6 C        2.778    -0.092    30.297     9.015
     2   7 N        2.821    -0.027    21.764     6.929
     3   6 C        2.046    -0.062    32.654     9.230
     4   7 N        2.824    -0.054    22.288     7.012
     5   6 C        3.022     0.118    25.386     8.265
     6   6 C        3.081    -0.001    27.964     8.669
     7   6 C        2.764     0.270    22.432     7.756
     8   8 O        0.858    -0.335    20.417     6.058
     9   7 N        2.747    -0.075    22.704     7.077
    10   6 C        3.709    -0.061    21.825     6.677
    11   6 C        2.729     0.318    21.594     7.608
    12   8 O        0.860    -0.343    20.580     6.082
    13   7 N        2.738    -0.047    22.143     6.989
    14   6 C        3.697    -0.070    22.012     6.711
    15   1 H        0.926     0.129     1.542     1.942
    16   1 H        0.926     0.124     1.583     1.967
    17   1 H        0.860     0.221     1.005     1.571
    18   1 H        0.926     0.126     1.566     1.957
    19   1 H        0.925     0.119     1.619     1.990
    20   1 H        0.924     0.109     1.707     2.043
    21   1 H        0.924     0.109     1.707     2.043
    22   1 H        0.924     0.091     1.865     2.135
    23   1 H        0.924     0.091     1.865     2.135
    24   1 H        0.925     0.127     1.559     1.953
    25   1 H        0.860     0.215     1.033     1.592

Wiberg/Mayer (AO) data.
largest (>0.10) Wiberg bond orders for each atom

     #   Z sym  total        # sym  WBO       # sym  WBO       # sym  WBO
 ---------------------------------------------------------------------------
     1   6 C    2.923 --    16 H    0.981    15 H    0.980    18 H    0.952
     2   7 N    3.604 --     3 C    1.384     6 C    1.171    17 H    0.924
     3   6 C    2.869 --     2 N    1.384     4 N    1.295
     4   7 N    3.590 --     3 C    1.295     5 C    1.196    25 H    0.926
     5   6 C    3.920 --     6 C    1.336    13 N    1.205     4 N    1.196
     6   6 C    3.827 --     5 C    1.336     2 N    1.171     7 C    1.072
     7   6 C    3.951 --     8 O    1.689     9 N    1.091     6 C    1.072
     8   8 O    1.988 --     7 C    1.689     9 N    0.132
     9   7 N    3.513 --    11 C    1.120     7 C    1.091    10 C    0.976
                             8 O    0.132    12 O    0.124
    10   6 C    3.883 --     9 N    0.976    19 H    0.962    20 H    0.951
                            21 H    0.950
    11   6 C    3.955 --    12 O    1.690     9 N    1.120    13 N    1.052
    12   8 O    2.003 --    11 C    1.690     9 N    0.124    13 N    0.111
    13   7 N    3.502 --     5 C    1.205    11 C    1.052    14 C    0.979
                            12 O    0.111
    14   6 C    3.911 --    13 N    0.979    24 H    0.963    22 H    0.963
                            23 H    0.962
    15   1 H    0.981 --     1 C    0.980
    16   1 H    0.983 --     1 C    0.981
    17   1 H    0.950 --     2 N    0.924
    18   1 H    0.982 --     1 C    0.952
    19   1 H    0.980 --    10 C    0.962
    20   1 H    0.969 --    10 C    0.951
    21   1 H    0.968 --    10 C    0.950
    22   1 H    0.979 --    14 C    0.963
    23   1 H    0.979 --    14 C    0.962
    24   1 H    0.982 --    14 C    0.963
    25   1 H    0.953 --     4 N    0.926
 ---------------------------------------------------------------------------

molecular dipole:
                 x           y           z       tot (Debye)
 q only:        2.617      -1.262       0.070
   full:        2.492      -1.372       0.067       7.232

           -------------------------------------------------
          | TOTAL ENERGY              -42.094891495242 Eh   |
          | GRADIENT NORM               0.002796607747 Eh/α |
          | HOMO-LUMO GAP               1.043822195066 eV   |
           -------------------------------------------------

 * finished run on 2024/06/05 at 19:59:08.530
