   * xtb version 6.6.1 (8d0f1dd) compiled by 'conda@1efc2f54142f' on 2023-08-01
          program call               : xtb struc.xyz --opt loose --input .xc1 --gfn2

   ID    Z sym.   atoms
    1    7 N      1, 17
    2    6 C      2-6, 8, 9, 11-16, 18-23, 25, 26, 28-33
    3    8 O      7, 10, 24, 27
    4    1 H      34-72
constraining bond 9 11 to    5.0000000 Å, actual value:    2.3754741 Å

          :  Hamiltonian                  GFN2-xTB          :
 * total energy  :   -98.1742321 Eh     change       -0.4035485E-08 Eh
 * total energy  :   -98.4522076 Eh     change       -0.2779755E+00 Eh
 * total energy  :   -98.6532397 Eh     change       -0.2010321E+00 Eh
 * total energy  :   -98.7937874 Eh     change       -0.1405478E+00 Eh
 * total energy  :   -98.8994064 Eh     change       -0.1056189E+00 Eh
 * total energy  :   -98.9694668 Eh     change       -0.7006045E-01 Eh
 * total energy  :   -99.0223027 Eh     change       -0.5283583E-01 Eh
 * total energy  :   -99.0817427 Eh     change       -0.5943998E-01 Eh
 * total energy  :   -99.1605597 Eh     change       -0.7881708E-01 Eh
 * total energy  :   -99.1999826 Eh     change       -0.3942284E-01 Eh
 * total energy  :   -99.2917260 Eh     change       -0.9386664E-03 Eh
 * total energy  :   -99.2922206 Eh     change       -0.4946237E-03 Eh
 * total energy  :   -99.2926426 Eh     change       -0.4220454E-03 Eh
 * total energy  :   -99.2931659 Eh     change       -0.5232434E-03 Eh
 * total energy  :   -99.2936584 Eh     change       -0.4925006E-03 Eh
 * total energy  :   -99.2939207 Eh     change       -0.2623036E-03 Eh
 * total energy  :   -99.2940185 Eh     change       -0.9784939E-04 Eh
 * total energy  :   -99.2940945 Eh     change       -0.7598675E-04 Eh
 * total energy  :   -99.2941425 Eh     change       -0.4799787E-04 Eh
   *** GEOMETRY OPTIMIZATION CONVERGED AFTER 27 ITERATIONS ***

 final structure:
================
72
 xtb: 6.6.1 (8d0f1dd)
N           -1.85151268700029        2.98484951417626        2.17985952707692
C           -1.80456473740705        2.29926868875767        1.13842273270679
C           -2.94837025405233        2.11069500298383        0.18080171647225
C           -3.43902590214791        0.67534585903526        0.25756717722753
C           -4.38595494758323        0.21009388241368       -0.65714450739907
C           -4.83188538916614       -1.09835037486694       -0.64776312903878
O           -5.75592528985629       -1.60719420001208       -1.47248055205174
C           -6.43259147623165       -0.76426666852557       -2.37401382904358
C           -4.28749026163925       -2.06994209252731        0.30788095561562
O           -4.61344533924562       -3.26446448748025        0.29370570872363
C           -4.81739698195643       -6.60814454109404        2.33716164763825
C           -3.35438963866628       -1.52699197639679        1.25074051628347
C           -2.95836999493337       -0.21601664466814        1.22553227703743
C           -2.37444648763375        2.38311566284969       -1.23545947759297
C           -1.45345016377069        1.27400991978254       -1.77444447332503
C           -0.13447697937264        1.21760120352810       -1.10596681806691
N            0.48702004326510        0.11359345308359       -0.72135165645499
C            1.85932760844100        0.16373379139891       -0.27428526144794
C            2.83056576730946       -0.32284192007980       -1.36714636494498
C            4.25088202798508       -0.12557004757114       -0.91616883526061
C            4.89530903441382        1.08214000123913       -1.13515113565742
C            6.19706159190196        1.28162416586291       -0.70399230829371
C            6.88223530135763        0.27461923888147       -0.03834258468683
O            8.14374666964570        0.35347251787528        0.41910766200906
C            8.88051224504592        1.53674609227612        0.21069001770650
C            6.22720504380202       -0.96744921921059        0.19610454951129
O            6.96486837376242       -1.88797948939781        0.84429376802828
C            6.41951731387994       -3.16157911621864        1.09538238256348
C            4.92349483223551       -1.14200288296408       -0.24305107834641
C           -0.14142609009747       -1.18494219378385       -0.78364207720608
C           -4.14309532238813        3.07154130173729        0.45986423970851
C           -4.81104544242736        2.75172053908324        1.79405628343665
C           -3.75084544263752        4.54533979845383        0.41522418130050
H           -4.78742692122188        0.89494591235730       -1.38765241915370
H           -6.94148258434163        0.05085808396579       -1.85088905018323
H           -7.17043794643221       -1.39227557758596       -2.86901863622177
H           -5.75039400937886       -0.34987674319956       -3.12336545360152
H           -5.15319128906506       -6.21578701217326        3.27322132100457
H           -5.50949084171537       -6.73199812645476        1.53065015380155
H           -3.78629242730444       -6.85415670350642        2.19802810334963
H           -2.97666895118596       -2.20952702723725        1.99633869847022
H           -2.26936434301344        0.13660739736993        1.97924099600734
H           -3.20539958559444        2.49507202362103       -1.93099422144669
H           -1.82713428047867        3.32617123044012       -1.21937966687783
H           -1.96817951302415        0.31605859380247       -1.73291172129135
H           -1.26853239897424        1.50867355152708       -2.83059503100329
H           -0.89120319078921        1.78167611099460        0.78182575355272
H            0.43837461753810        2.13341876497951       -1.06695857154539
H            1.97017547811478       -0.45950926161682        0.61697225037616
H            2.11594640008227        1.19111910131389       -0.00744978581068
H            2.64906119549250        0.25241678585396       -2.27683941403406
H            2.64535640196102       -1.37576901981579       -1.58124097848097
H            4.38813727789063        1.87757766198141       -1.65986512477844
H            6.67440315754838        2.22817991521130       -0.89712934839200
H            8.41283438726610        2.39237574201088        0.70710139469428
H            8.99881779429394        1.75170009973965       -0.85547145205315
H            9.85794894424773        1.35344441439445        0.65258603908945
H            7.20464439620237       -3.72046252656015        1.60082372532364
H            5.54239321684106       -3.10105303879024        1.74743492143558
H            6.15180597040731       -3.67356698314132        0.16605597710841
H            4.42157124876318       -2.08228540780280       -0.07687602609572
H           -0.29208955004914       -1.50147300137800       -1.81760277486629
H           -1.10934297348449       -1.16871434668628       -0.27656916643615
H            0.49224338531356       -1.91494867911551       -0.28722275828507
H           -4.87615641704298        2.89438829890795       -0.33538892135289
H           -4.11736034208938        2.92724019399483        2.61003314801132
H           -5.14159149111585        1.71642433699425        1.82864220988752
H           -5.67699346965994        3.39332253115076        1.93163483229060
H           -3.00703685350462        4.76263042101266        1.17589263146232
H           -3.36446300008599        4.83420747418685       -0.55825543719817
H           -4.62817083469493        5.15320159933949        0.61704854847028
H           -1.01083208554513        3.06205795379498        2.74341884314440

          :  Hamiltonian                  GFN2-xTB          :
         :: total energy             -99.294142518228 Eh    ::
         :: gradient norm              0.002120948323 Eh/a0 ::
         :: HOMO-LUMO gap              0.403985079903 eV    ::
         :: SCC energy              -100.679746749892 Eh    ::
         :: -> dispersion             -0.072878465835 Eh    ::
         :: repulsion energy           1.384370199893 Eh    ::

    * Orbital Energies and Occupations

         #    Occupation            Energy/Eh            Energy/eV
      -------------------------------------------------------------
         1        2.0000           -0.8114393             -22.0804
       ...           ...                  ...                  ...
        78        1.9980           -0.5332419             -14.5103
        79        1.9977           -0.5313008             -14.4574
        80        1.9973           -0.5284256             -14.3792
        81        1.9966           -0.5247610             -14.2795
        82        1.9944           -0.5169948             -14.0681
        83        1.9939           -0.5157041             -14.0330
        84        1.9925           -0.5123915             -13.9429
        85        1.9754           -0.4934835             -13.4284
        86        1.9652           -0.4878830             -13.2760
        87        1.9281           -0.4760987             -12.9553
        88        1.8360           -0.4622709             -12.5790
        89        1.8194           -0.4606037             -12.5337
        90        1.3015           -0.4338794             -11.8065 (HOMO)
        91        0.8436           -0.4190332             -11.4025 (LUMO)
        92        0.3536           -0.3996709             -10.8756
        93        0.0126           -0.3439357              -9.3590
        94        0.0024           -0.3174168              -8.6374
        95        0.0021           -0.3153358              -8.5807
        96        0.0014           -0.3094881              -8.4216
        97        0.0008           -0.3006273              -8.1805
        98        0.0000           -0.1928116              -5.2467
        99        0.0000           -0.1862885              -5.0692
       100                         -0.1406758              -3.8280
       101                         -0.0728320              -1.9819
       ...                                ...                  ...
       171                          0.6005728              16.3424
      -------------------------------------------------------------
                  HL-Gap            0.0148462 Eh            0.4040 eV

     #   Z          covCN         q      C6AA      α(0)
     1   7 N        1.774    -0.263    27.652     7.787
     2   6 C        2.826     0.102    25.730     8.312
     3   6 C        3.907     0.007    20.395     6.419
     4   6 C        2.974     0.004    27.932     8.669
     5   6 C        2.911    -0.080    29.992     8.980
     6   6 C        2.856     0.124    25.282     8.241
     7   8 O        1.706    -0.203    17.376     5.628
     8   6 C        3.645     0.025    20.482     6.504
     9   6 C        2.828     0.196    23.834     8.000
    10   8 O        0.858    -0.374    21.170     6.169
    11   6 C        2.780    -0.109    30.726     9.079
    12   6 C        2.909    -0.071    29.770     8.947
    13   6 C        2.912    -0.047    29.177     8.857
    14   6 C        3.812    -0.065    21.728     6.635
    15   6 C        3.802    -0.070    21.829     6.652
    16   6 C        2.844     0.012    27.748     8.633
    17   7 N        2.729     0.018    20.947     6.798
    18   6 C        3.756    -0.017    20.939     6.524
    19   6 C        3.808    -0.071    21.850     6.654
    20   6 C        2.969     0.001    27.999     8.679
    21   6 C        2.922    -0.048    29.193     8.860
    22   6 C        2.913    -0.067    29.664     8.931
    23   6 C        2.865     0.135    25.054     8.205
    24   8 O        1.706    -0.218    17.619     5.667
    25   6 C        3.645     0.024    20.508     6.508
    26   6 C        2.862     0.135    25.058     8.205
    27   8 O        1.706    -0.221    17.663     5.674
    28   6 C        3.645     0.026    20.479     6.504
    29   6 C        2.919    -0.079    29.967     8.977
    30   6 C        3.700    -0.074    22.076     6.719
    31   6 C        3.852    -0.006    20.657     6.464
    32   6 C        3.756    -0.118    22.824     6.812
    33   6 C        3.755    -0.119    22.830     6.813
    34   1 H        0.926     0.048     2.345     2.394
    35   1 H        0.924     0.058     2.221     2.331
    36   1 H        0.925     0.085     1.928     2.171
    37   1 H        0.924     0.052     2.296     2.369
    38   1 H        0.927     0.087     1.906     2.159
    39   1 H        0.927     0.094     1.840     2.121
    40   1 H        0.927     0.085     1.929     2.172
    41   1 H        0.926     0.062     2.178     2.308
    42   1 H        0.926     0.038     2.476     2.461
    43   1 H        0.925     0.062     2.179     2.308
    44   1 H        0.924     0.054     2.273     2.358
    45   1 H        0.925     0.068     2.102     2.267
    46   1 H        0.924     0.083     1.950     2.184
    47   1 H        0.922     0.008     2.915     2.670
    48   1 H        0.926     0.072     2.063     2.246
    49   1 H        0.924     0.070     2.083     2.257
    50   1 H        0.924     0.068     2.108     2.270
    51   1 H        0.924     0.056     2.242     2.342
    52   1 H        0.924     0.058     2.221     2.331
    53   1 H        0.926     0.046     2.367     2.406
    54   1 H        0.926     0.060     2.197     2.318
    55   1 H        0.924     0.056     2.247     2.344
    56   1 H        0.924     0.058     2.227     2.334
    57   1 H        0.925     0.084     1.937     2.176
    58   1 H        0.925     0.084     1.940     2.178
    59   1 H        0.924     0.051     2.307     2.375
    60   1 H        0.924     0.055     2.264     2.353
    61   1 H        0.926     0.050     2.321     2.382
    62   1 H        0.924     0.080     1.983     2.202
    63   1 H        0.924     0.085     1.933     2.174
    64   1 H        0.925     0.083     1.947     2.182
    65   1 H        0.924     0.039     2.465     2.455
    66   1 H        0.925     0.070     2.084     2.258
    67   1 H        0.925     0.038     2.472     2.459
    68   1 H        0.925     0.053     2.286     2.364
    69   1 H        0.925     0.061     2.193     2.316
    70   1 H        0.925     0.035     2.515     2.480
    71   1 H        0.925     0.056     2.244     2.343
    72   1 H        0.860     0.159     1.339     1.812

Wiberg/Mayer (AO) data.
largest (>0.10) Wiberg bond orders for each atom

     #   Z sym  total        # sym  WBO       # sym  WBO       # sym  WBO
 ---------------------------------------------------------------------------
     1   7 N    3.045 --     2 C    1.959    72 H    0.940
     2   6 C    3.929 --     1 N    1.959     3 C    0.994    47 H    0.893
     3   6 C    3.973 --     2 C    0.994     4 C    0.973    14 C    0.955
                            31 C    0.939
     4   6 C    3.807 --     5 C    1.365    13 C    1.323     3 C    0.973
     5   6 C    3.947 --     6 C    1.412     4 C    1.365    34 H    0.953
     6   6 C    3.750 --     5 C    1.412     7 O    1.136     9 C    1.055
     7   8 O    2.250 --     6 C    1.136     8 C    0.975
     8   6 C    3.926 --    36 H    0.976     7 O    0.975    35 H    0.971
                            37 H    0.970
     9   6 C    3.885 --    10 O    1.576    12 C    1.160     6 C    1.055
    10   8 O    1.716 --     9 C    1.576
    11   6 C    2.970 --    40 H    0.991    38 H    0.990    39 H    0.989
    12   6 C    3.800 --    13 C    1.522     9 C    1.160    41 H    0.964
    13   6 C    3.943 --    12 C    1.522     4 C    1.323    42 H    0.957
    14   6 C    3.968 --    15 C    0.981    44 H    0.972    43 H    0.969
                             3 C    0.955
    15   6 C    3.985 --    16 C    1.060    14 C    0.981    45 H    0.961
                            46 H    0.926
    16   6 C    3.627 --    17 N    1.420    15 C    1.060    48 H    0.956
    17   7 N    3.501 --    16 C    1.420    30 C    0.997    18 C    0.987
    18   6 C    3.954 --    17 N    0.987    50 H    0.968    19 C    0.966
                            49 H    0.963
    19   6 C    3.976 --    20 C    1.008    52 H    0.972    51 H    0.971
                            18 C    0.966
    20   6 C    3.940 --    21 C    1.404    29 C    1.383    19 C    1.008
    21   6 C    3.945 --    22 C    1.420    20 C    1.404    53 H    0.968
    22   6 C    3.956 --    21 C    1.420    23 C    1.380    54 H    0.963
    23   6 C    3.890 --    22 C    1.380    26 C    1.215    24 O    1.115
    24   8 O    2.256 --    23 C    1.115    25 C    0.975
    25   6 C    3.926 --    57 H    0.976    24 O    0.975    55 H    0.972
                            56 H    0.972
    26   6 C    3.894 --    29 C    1.391    23 C    1.215    27 O    1.109
    27   8 O    2.255 --    26 C    1.109    28 C    0.977
    28   6 C    3.929 --    27 O    0.977    58 H    0.976    59 H    0.973
                            60 H    0.973
    29   6 C    3.956 --    26 C    1.391    20 C    1.383    61 H    0.962
    30   6 C    3.953 --    17 N    0.997    64 H    0.977    62 H    0.965
                            63 H    0.957
    31   6 C    3.963 --    33 C    1.009    32 C    1.008    65 H    0.958
                             3 C    0.939
    32   6 C    3.974 --    31 C    1.008    67 H    0.980    68 H    0.980
                            66 H    0.972
    33   6 C    3.980 --    31 C    1.009    70 H    0.982    71 H    0.979
                            69 H    0.976
    34   1 H    0.992 --     5 C    0.953
    35   1 H    0.989 --     8 C    0.971
    36   1 H    0.992 --     8 C    0.976
    37   1 H    0.989 --     8 C    0.970
    38   1 H    0.992 --    11 C    0.990
    39   1 H    0.991 --    11 C    0.989
    40   1 H    0.992 --    11 C    0.991
    41   1 H    0.991 --    12 C    0.964
    42   1 H    0.993 --    13 C    0.957
    43   1 H    0.995 --    14 C    0.969
    44   1 H    0.996 --    14 C    0.972
    45   1 H    0.995 --    15 C    0.961
    46   1 H    0.971 --    15 C    0.926
    47   1 H    0.985 --     2 C    0.893
    48   1 H    0.994 --    16 C    0.956
    49   1 H    0.990 --    18 C    0.963
    50   1 H    0.994 --    18 C    0.968
    51   1 H    0.995 --    19 C    0.971
    52   1 H    0.995 --    19 C    0.972
    53   1 H    0.997 --    21 C    0.968
    54   1 H    0.995 --    22 C    0.963
    55   1 H    0.991 --    25 C    0.972
    56   1 H    0.991 --    25 C    0.972
    57   1 H    0.992 --    25 C    0.976
    58   1 H    0.992 --    28 C    0.976
    59   1 H    0.992 --    28 C    0.973
    60   1 H    0.992 --    28 C    0.973
    61   1 H    0.996 --    29 C    0.962
    62   1 H    0.985 --    30 C    0.965
    63   1 H    0.987 --    30 C    0.957
    64   1 H    0.993 --    30 C    0.977
    65   1 H    0.991 --    31 C    0.958
    66   1 H    0.989 --    32 C    0.972
    67   1 H    0.996 --    32 C    0.980
    68   1 H    0.993 --    32 C    0.980
    69   1 H    0.993 --    33 C    0.976
    70   1 H    0.997 --    33 C    0.982
    71   1 H    0.993 --    33 C    0.979
    72   1 H    0.969 --     1 N    0.940
 ---------------------------------------------------------------------------

molecular dipole:
                 x           y           z       tot (Debye)
 q only:        1.428       0.551      -0.872
   full:        1.682       0.731      -1.149       5.500

           -------------------------------------------------
          | TOTAL ENERGY              -99.294142518228 Eh   |
          | GRADIENT NORM               0.002120948323 Eh/α |
          | HOMO-LUMO GAP               0.403985079903 eV   |
           -------------------------------------------------

 * finished run on 2024/04/06 at 11:12:47.202
