   * xtb version 6.6.1 (8d0f1dd) compiled by 'conda@1efc2f54142f' on 2023-08-01
          program call               : xtb xtbopt.xyz --opt crude --input .xc2 --gfn2

   ID    Z sym.   atoms
    1    7 N      1, 17
    2    6 C      2-6, 8, 9, 11-16, 18-23, 25, 26, 28-33
    3    8 O      7, 10, 24, 27
    4    1 H      34-72

          :  Hamiltonian                  GFN2-xTB          :
 * total energy  :   -99.2941426 Eh     change        0.6536993E-11 Eh
 * total energy  :   -99.2941692 Eh     change       -0.2663283E-04 Eh
   *** GEOMETRY OPTIMIZATION CONVERGED AFTER 2 ITERATIONS ***

 final structure:
================
72
 xtb: 6.6.1 (8d0f1dd)
N           -1.85322849281645        2.98755137258282        2.17950611652128
C           -1.80529914567203        2.30116630796047        1.13868360515437
C           -2.94853724657680        2.11122750968774        0.18070097960225
C           -3.43833266344241        0.67557734508529        0.25799607948448
C           -4.38513780057402        0.20948383396482       -0.65649930440307
C           -4.83068761529812       -1.09879341911184       -0.64610693961849
O           -5.75425406824268       -1.60873039665269       -1.47069339566314
C           -6.43185657943334       -0.76794069531611       -2.37384349015612
C           -4.28626377697649       -2.06978313931296        0.31087870430412
O           -4.61227106481231       -3.26403709308928        0.29716760318888
C           -4.81763282900652       -6.59321684484186        2.32970817063018
C           -3.35333425640669       -1.52563978224611        1.25350388805703
C           -2.95753155639690       -0.21443824932782        1.22677910501388
C           -2.37383121208365        2.38401960319536       -1.23533311811643
C           -1.45341569557357        1.27354723524946       -1.77362897599370
C           -0.13400194606873        1.21695281197335       -1.10580383548271
N            0.48720608614432        0.11283926289339       -0.72107784903072
C            1.85983314646948        0.16283552341022       -0.27452572925072
C            2.83089649787125       -0.32307513257664       -1.36789195309545
C            4.25121819842841       -0.12584369939950       -0.91689052634476
C            4.89564775990058        1.08188377371701       -1.13563479468120
C            6.19731181661432        1.28132648171432       -0.70416533334051
C            6.88238178388252        0.27429826254051       -0.03845682175317
O            8.14377015760603        0.35323402817530        0.41935835850193
C            8.88058749364748        1.53648040416655        0.21096279194558
C            6.22736218418878       -0.96780781540919        0.19573402888415
O            6.96478429864486       -1.88840839997846        0.84415304846438
C            6.41913265115367       -3.16191514540773        1.09507678168534
C            4.92375776255301       -1.14233248738546       -0.24374058578077
C           -0.14013175907410       -1.18610236014971       -0.78519461647239
C           -4.14439734236356        3.07055815189562        0.46007517490076
C           -4.81139263073275        2.75020451135129        1.79508824999877
C           -3.75353821594083        4.54487347326355        0.41552183684391
H           -4.78712596275220        0.89348081960181       -1.38765830993803
H           -6.94185930851896        0.04775057348510       -1.85246774776595
H           -7.16893765155919       -1.39786374765969       -2.86788436276994
H           -5.75035457846562       -0.35356734189539       -3.12399381479736
H           -5.15650215186764       -6.21617400575832        3.27111733788404
H           -5.50952199842991       -6.72016848622966        1.52482881513546
H           -3.78964530174278       -6.85532489005498        2.19629814739264
H           -2.97521799700035       -2.20667408128336        2.00017494757310
H           -2.26877283207336        0.13974001932462        1.98019803457964
H           -3.20393789182571        2.49734756315902       -1.93168838157223
H           -1.82540771956970        3.32651377795995       -1.21874077735499
H           -1.96881729052175        0.31573342376051       -1.72985033856267
H           -1.26896003736256        1.50589979262330       -2.83062191330620
H           -0.89119528042097        1.78436541802041        0.78279972083888
H            0.43933786950685        2.13247009581170       -1.06670766380409
H            1.97119479869712       -0.46084425039592        0.61638295034620
H            2.11647449050039        1.19007483585250       -0.00716869602233
H            2.64918358359818        0.25263406958752       -2.27726101875903
H            2.64586571428273       -1.37592993504015       -1.58251516199727
H            4.38856530066008        1.87736935538245       -1.66035750418156
H            6.67463842387938        2.22794235791287       -0.89703607913214
H            8.41290765310209        2.39213450236061        0.70732918088985
H            8.99895891947037        1.75140336489136       -0.85519646364685
H            9.85798651262348        1.35315852812637        0.65293122117942
H            7.20396438475488       -3.72095835865604        1.60079229560352
H            5.54180340753034       -3.10119797564828        1.74683666384195
H            6.15163787549030       -3.67384694139833        0.16565750628445
H            4.42180714960840       -2.08263333255488       -0.07780654820722
H           -0.29071725798882       -1.50113789093619       -1.81959215343976
H           -1.10802914134009       -1.17159119673784       -0.27804654954712
H            0.49431711661343       -1.91624964647589       -0.28996864433416
H           -4.87775109604267        2.89279829609961       -0.33472755175607
H           -4.11756040740766        2.92757514625440        2.61064450632293
H           -5.14028554626347        1.71431358096012        1.83123838035274
H           -5.67852275348720        3.39062715818662        1.93273278877579
H           -3.00968818207629        4.76254232082989        1.17594780713099
H           -3.36737132214125        4.83444828256750       -0.55822169225066
H           -4.63177330827437        5.15193480719523        0.61820978384355
H           -1.01298652579165        3.06604828064985        2.74324887377397

          :  Hamiltonian                  GFN2-xTB          :
         :: total energy             -99.294169217581 Eh    ::
         :: gradient norm              0.001357330813 Eh/a0 ::
         :: HOMO-LUMO gap              0.403810283349 eV    ::
         :: SCC energy              -100.679504305659 Eh    ::
         :: -> dispersion             -0.072879273184 Eh    ::
         :: repulsion energy           1.384101157457 Eh    ::

    * Orbital Energies and Occupations

         #    Occupation            Energy/Eh            Energy/eV
      -------------------------------------------------------------
         1        2.0000           -0.8114048             -22.0794
       ...           ...                  ...                  ...
        78        1.9980           -0.5332166             -14.5096
        79        1.9977           -0.5312036             -14.4548
        80        1.9973           -0.5283842             -14.3781
        81        1.9966           -0.5247340             -14.2787
        82        1.9944           -0.5169646             -14.0673
        83        1.9939           -0.5156720             -14.0321
        84        1.9925           -0.5123415             -13.9415
        85        1.9754           -0.4934526             -13.4275
        86        1.9651           -0.4878316             -13.2746
        87        1.9279           -0.4760230             -12.9532
        88        1.8362           -0.4622505             -12.5785
        89        1.8196           -0.4605800             -12.5330
        90        1.3011           -0.4338267             -11.8050 (HOMO)
        91        0.8435           -0.4189870             -11.4012 (LUMO)
        92        0.3539           -0.3996455             -10.8749
        93        0.0126           -0.3438705              -9.3572
        94        0.0024           -0.3173904              -8.6366
        95        0.0021           -0.3153046              -8.5799
        96        0.0014           -0.3094311              -8.4200
        97        0.0008           -0.3005629              -8.1787
        98        0.0000           -0.1927831              -5.2459
        99        0.0000           -0.1862774              -5.0689
       100                         -0.1406862              -3.8283
       101                         -0.0729619              -1.9854
       ...                                ...                  ...
       171                          0.6008750              16.3506
      -------------------------------------------------------------
                  HL-Gap            0.0148398 Eh            0.4038 eV

     #   Z          covCN         q      C6AA      α(0)
     1   7 N        1.774    -0.263    27.653     7.787
     2   6 C        2.826     0.102    25.729     8.312
     3   6 C        3.907     0.007    20.395     6.419
     4   6 C        2.974     0.004    27.931     8.669
     5   6 C        2.911    -0.080    29.992     8.980
     6   6 C        2.856     0.124    25.282     8.241
     7   8 O        1.706    -0.203    17.377     5.628
     8   6 C        3.645     0.025    20.483     6.505
     9   6 C        2.828     0.196    23.833     8.000
    10   8 O        0.858    -0.374    21.166     6.168
    11   6 C        2.780    -0.108    30.723     9.079
    12   6 C        2.909    -0.071    29.771     8.947
    13   6 C        2.912    -0.047    29.176     8.857
    14   6 C        3.812    -0.064    21.727     6.635
    15   6 C        3.802    -0.069    21.829     6.652
    16   6 C        2.844     0.012    27.748     8.633
    17   7 N        2.729     0.018    20.947     6.797
    18   6 C        3.756    -0.018    20.940     6.524
    19   6 C        3.808    -0.071    21.850     6.654
    20   6 C        2.969     0.001    27.999     8.680
    21   6 C        2.922    -0.048    29.194     8.861
    22   6 C        2.913    -0.067    29.664     8.931
    23   6 C        2.865     0.135    25.054     8.205
    24   8 O        1.706    -0.218    17.619     5.667
    25   6 C        3.645     0.024    20.508     6.508
    26   6 C        2.862     0.134    25.058     8.205
    27   8 O        1.706    -0.221    17.663     5.674
    28   6 C        3.645     0.026    20.479     6.504
    29   6 C        2.919    -0.079    29.967     8.977
    30   6 C        3.700    -0.074    22.075     6.719
    31   6 C        3.852    -0.006    20.658     6.464
    32   6 C        3.756    -0.118    22.823     6.812
    33   6 C        3.755    -0.119    22.829     6.813
    34   1 H        0.926     0.048     2.345     2.395
    35   1 H        0.924     0.058     2.221     2.331
    36   1 H        0.925     0.085     1.927     2.171
    37   1 H        0.924     0.052     2.296     2.370
    38   1 H        0.927     0.087     1.907     2.159
    39   1 H        0.927     0.094     1.839     2.120
    40   1 H        0.927     0.085     1.929     2.172
    41   1 H        0.926     0.062     2.178     2.308
    42   1 H        0.926     0.038     2.476     2.461
    43   1 H        0.925     0.062     2.179     2.308
    44   1 H        0.924     0.054     2.273     2.358
    45   1 H        0.925     0.068     2.102     2.267
    46   1 H        0.924     0.083     1.951     2.184
    47   1 H        0.922     0.008     2.917     2.671
    48   1 H        0.926     0.072     2.063     2.246
    49   1 H        0.924     0.070     2.083     2.257
    50   1 H        0.924     0.068     2.108     2.270
    51   1 H        0.924     0.056     2.242     2.342
    52   1 H        0.924     0.058     2.222     2.331
    53   1 H        0.926     0.046     2.367     2.406
    54   1 H        0.926     0.060     2.197     2.318
    55   1 H        0.924     0.056     2.248     2.344
    56   1 H        0.924     0.058     2.227     2.334
    57   1 H        0.925     0.084     1.937     2.176
    58   1 H        0.925     0.084     1.941     2.178
    59   1 H        0.924     0.051     2.307     2.375
    60   1 H        0.924     0.055     2.264     2.353
    61   1 H        0.926     0.050     2.321     2.382
    62   1 H        0.924     0.080     1.983     2.202
    63   1 H        0.924     0.085     1.933     2.174
    64   1 H        0.925     0.083     1.947     2.182
    65   1 H        0.924     0.039     2.465     2.455
    66   1 H        0.925     0.070     2.084     2.258
    67   1 H        0.925     0.038     2.472     2.459
    68   1 H        0.925     0.053     2.287     2.365
    69   1 H        0.925     0.061     2.192     2.315
    70   1 H        0.925     0.035     2.516     2.480
    71   1 H        0.925     0.056     2.245     2.343
    72   1 H        0.860     0.159     1.339     1.812

Wiberg/Mayer (AO) data.
largest (>0.10) Wiberg bond orders for each atom

     #   Z sym  total        # sym  WBO       # sym  WBO       # sym  WBO
 ---------------------------------------------------------------------------
     1   7 N    3.045 --     2 C    1.959    72 H    0.940
     2   6 C    3.929 --     1 N    1.959     3 C    0.994    47 H    0.894
     3   6 C    3.973 --     2 C    0.994     4 C    0.973    14 C    0.955
                            31 C    0.939
     4   6 C    3.806 --     5 C    1.364    13 C    1.323     3 C    0.973
     5   6 C    3.947 --     6 C    1.413     4 C    1.364    34 H    0.953
     6   6 C    3.750 --     5 C    1.413     7 O    1.136     9 C    1.054
     7   8 O    2.250 --     6 C    1.136     8 C    0.975
     8   6 C    3.926 --    36 H    0.976     7 O    0.975    35 H    0.971
                            37 H    0.970
     9   6 C    3.885 --    10 O    1.576    12 C    1.159     6 C    1.054
    10   8 O    1.717 --     9 C    1.576
    11   6 C    2.970 --    40 H    0.991    38 H    0.990    39 H    0.989
    12   6 C    3.799 --    13 C    1.522     9 C    1.159    41 H    0.964
    13   6 C    3.943 --    12 C    1.522     4 C    1.323    42 H    0.957
    14   6 C    3.968 --    15 C    0.981    44 H    0.972    43 H    0.969
                             3 C    0.955
    15   6 C    3.985 --    16 C    1.060    14 C    0.981    45 H    0.961
                            46 H    0.926
    16   6 C    3.627 --    17 N    1.421    15 C    1.060    48 H    0.956
    17   7 N    3.500 --    16 C    1.421    30 C    0.997    18 C    0.987
    18   6 C    3.954 --    17 N    0.987    50 H    0.968    19 C    0.966
                            49 H    0.963
    19   6 C    3.976 --    20 C    1.008    52 H    0.972    51 H    0.971
                            18 C    0.966
    20   6 C    3.940 --    21 C    1.404    29 C    1.383    19 C    1.008
    21   6 C    3.945 --    22 C    1.419    20 C    1.404    53 H    0.968
    22   6 C    3.956 --    21 C    1.419    23 C    1.380    54 H    0.963
    23   6 C    3.890 --    22 C    1.380    26 C    1.215    24 O    1.115
    24   8 O    2.256 --    23 C    1.115    25 C    0.975
    25   6 C    3.926 --    57 H    0.976    24 O    0.975    55 H    0.972
                            56 H    0.972
    26   6 C    3.894 --    29 C    1.391    23 C    1.215    27 O    1.109
    27   8 O    2.255 --    26 C    1.109    28 C    0.977
    28   6 C    3.929 --    27 O    0.977    58 H    0.976    59 H    0.973
                            60 H    0.973
    29   6 C    3.956 --    26 C    1.391    20 C    1.383    61 H    0.962
    30   6 C    3.953 --    17 N    0.997    64 H    0.977    62 H    0.965
                            63 H    0.957
    31   6 C    3.963 --    33 C    1.009    32 C    1.008    65 H    0.958
                             3 C    0.939
    32   6 C    3.974 --    31 C    1.008    67 H    0.980    68 H    0.980
                            66 H    0.972
    33   6 C    3.980 --    31 C    1.009    70 H    0.982    71 H    0.979
                            69 H    0.976
    34   1 H    0.992 --     5 C    0.953
    35   1 H    0.989 --     8 C    0.971
    36   1 H    0.992 --     8 C    0.976
    37   1 H    0.989 --     8 C    0.970
    38   1 H    0.992 --    11 C    0.990
    39   1 H    0.991 --    11 C    0.989
    40   1 H    0.992 --    11 C    0.991
    41   1 H    0.991 --    12 C    0.964
    42   1 H    0.993 --    13 C    0.957
    43   1 H    0.995 --    14 C    0.969
    44   1 H    0.996 --    14 C    0.972
    45   1 H    0.995 --    15 C    0.961
    46   1 H    0.971 --    15 C    0.926
    47   1 H    0.985 --     2 C    0.894
    48   1 H    0.994 --    16 C    0.956
    49   1 H    0.990 --    18 C    0.963
    50   1 H    0.994 --    18 C    0.968
    51   1 H    0.995 --    19 C    0.971
    52   1 H    0.995 --    19 C    0.972
    53   1 H    0.997 --    21 C    0.968
    54   1 H    0.995 --    22 C    0.963
    55   1 H    0.991 --    25 C    0.972
    56   1 H    0.991 --    25 C    0.972
    57   1 H    0.992 --    25 C    0.976
    58   1 H    0.992 --    28 C    0.976
    59   1 H    0.992 --    28 C    0.973
    60   1 H    0.992 --    28 C    0.973
    61   1 H    0.996 --    29 C    0.962
    62   1 H    0.985 --    30 C    0.965
    63   1 H    0.987 --    30 C    0.957
    64   1 H    0.993 --    30 C    0.977
    65   1 H    0.991 --    31 C    0.958
    66   1 H    0.989 --    32 C    0.972
    67   1 H    0.996 --    32 C    0.980
    68   1 H    0.993 --    32 C    0.980
    69   1 H    0.993 --    33 C    0.976
    70   1 H    0.997 --    33 C    0.982
    71   1 H    0.993 --    33 C    0.979
    72   1 H    0.969 --     1 N    0.940
 ---------------------------------------------------------------------------

molecular dipole:
                 x           y           z       tot (Debye)
 q only:        1.423       0.544      -0.874
   full:        1.676       0.721      -1.149       5.481

           -------------------------------------------------
          | TOTAL ENERGY              -99.294169217581 Eh   |
          | GRADIENT NORM               0.001357330813 Eh/α |
          | HOMO-LUMO GAP               0.403810283349 eV   |
           -------------------------------------------------

 * finished run on 2024/04/06 at 11:12:47.844
