   * xtb version 6.6.1 (8d0f1dd) compiled by 'conda@1efc2f54142f' on 2023-08-01
          program call               : xtb struc.xyz --opt loose --input .xc1 --gfn2

   ID    Z sym.   atoms
    1    6 C      1, 3, 5-7, 10, 11, 14
    2    7 N      2, 4, 9, 13
    3    8 O      8, 12
    4    1 H      15-25
constraining bond 2 8 to    5.6800000 Å, actual value:    3.0543308 Å

          :  Hamiltonian                  GFN2-xTB          :
 * total energy  :   -29.9381525 Eh     change       -0.6650680E-10 Eh
 * total energy  :   -34.4701828 Eh     change       -0.4532030E+01 Eh
 * total energy  :   -37.8574968 Eh     change       -0.3387314E+01 Eh
 * total energy  :   -40.1102357 Eh     change       -0.2252739E+01 Eh
 * total energy  :   -41.2967613 Eh     change       -0.1186526E+01 Eh
 * total energy  :   -41.6581101 Eh     change       -0.3613487E+00 Eh
 * total energy  :   -41.6992537 Eh     change       -0.4114359E-01 Eh
 * total energy  :   -41.7265196 Eh     change       -0.2726598E-01 Eh
 * total energy  :   -41.7742342 Eh     change       -0.4771455E-01 Eh
 * total energy  :   -41.7972015 Eh     change       -0.2296727E-01 Eh
 * total energy  :   -42.1183922 Eh     change       -0.7896455E-03 Eh
 * total energy  :   -42.1187660 Eh     change       -0.3738206E-03 Eh
 * total energy  :   -42.1189601 Eh     change       -0.1941675E-03 Eh
 * total energy  :   -42.1195575 Eh     change       -0.5974079E-03 Eh
 * total energy  :   -42.1197520 Eh     change       -0.1944189E-03 Eh
 * total energy  :   -42.1200107 Eh     change       -0.2587681E-03 Eh
 * total energy  :   -42.1201876 Eh     change       -0.1768370E-03 Eh
 * total energy  :   -42.1203080 Eh     change       -0.1204751E-03 Eh
 * total energy  :   -42.1203436 Eh     change       -0.3557374E-04 Eh
   *** GEOMETRY OPTIMIZATION CONVERGED AFTER 75 ITERATIONS ***

 final structure:
================
25
 xtb: 6.6.1 (8d0f1dd)
C            4.12493460497309        0.39670321277922        0.14114483506819
N            3.73325918076733       -0.80321050929820        0.30923348100394
C            2.77919105073830       -1.60009882364052       -0.03488932524576
N            1.42083447099434       -1.45711363722154       -0.15839722823455
C            0.44364507810905       -0.49992200973488       -0.04157008584177
C            0.57701968690821        0.88698928797545       -0.04573344552078
C           -0.54035137634719        1.71382370445480       -0.04947384240543
O           -0.42072006355965        3.04387895035753       -0.07464889385969
N           -1.80332617617274        1.16885947197361       -0.06941440407709
C           -2.93320521840843        1.88669310969487       -0.17680644655515
C           -1.97970932911295       -0.24792291168322        0.04170314101054
O           -3.08778138022373       -0.70814937297956        0.11521928166703
N           -0.84245873533947       -1.01659785899778        0.04673306975934
C           -1.08414937216047       -2.45051068598132        0.16320027822660
H            4.89570137271259        0.77492124128797        0.79311680445929
H            3.80593058782600        1.02090404987631       -0.68784829034309
H            1.54608873386624        1.35207720424646       -0.06009603517799
H            3.08246468850392       -2.63642574439847       -0.13534292286686
H           -1.23434890612460        3.50313257574756        0.17564347412405
H           -2.92272473962925        2.93811354977590       -0.38282502588407
H           -3.86052214240919        1.34910005123245       -0.13935583203362
H           -0.53665019785566       -2.87208758755273        1.00683158251352
H           -0.85091443845314       -2.97380302831696       -0.76679910488475
H           -2.15030881982365       -2.58114419551749        0.35123660962512
H            0.99853295432121       -2.36997150247905       -0.28969005662778

          :  Hamiltonian                  GFN2-xTB          :
         :: total energy             -42.120343624407 Eh    ::
         :: gradient norm              0.002579942611 Eh/a0 ::
         :: HOMO-LUMO gap              0.877710932578 eV    ::
         :: SCC energy               -42.658288511166 Eh    ::
         :: -> dispersion             -0.021651685259 Eh    ::
         :: repulsion energy           0.537841349495 Eh    ::

    * Orbital Energies and Occupations

         #    Occupation            Energy/Eh            Energy/eV
      -------------------------------------------------------------
         1        2.0000           -0.8848670             -24.0785
       ...           ...                  ...                  ...
        25        2.0000           -0.6704150             -18.2429
        26        2.0000           -0.6549053             -17.8209
        27        2.0000           -0.6471416             -17.6096
        28        2.0000           -0.6428816             -17.4937
        29        1.9999           -0.6341088             -17.2550
        30        1.9999           -0.6270677             -17.0634
        31        1.9998           -0.6171025             -16.7922
        32        1.9998           -0.6152036             -16.7405
        33        1.9995           -0.6013529             -16.3636
        34        1.9978           -0.5781736             -15.7329
        35        1.9949           -0.5646025             -15.3636
        36        1.9909           -0.5553779             -15.1126
        37        1.4519           -0.4855434             -13.2123 (HOMO)
        38        0.5135           -0.4532882             -12.3346 (LUMO)
        39        0.0428           -0.4095749             -11.1451
        40        0.0077           -0.3821050             -10.3976
        41        0.0018           -0.3588099              -9.7637
        42        0.0000           -0.2887736              -7.8579
        43                         -0.1939989              -5.2790
        44                         -0.1613118              -4.3895
        45                         -0.1317442              -3.5849
        46                         -0.1046434              -2.8475
        47                         -0.0897642              -2.4426
        48                         -0.0641158              -1.7447
       ...                                ...                  ...
        67                          0.5787242              15.7479
      -------------------------------------------------------------
                  HL-Gap            0.0322553 Eh            0.8777 eV

     #   Z          covCN         q      C6AA      α(0)
     1   6 C        2.775     0.006    27.868     8.646
     2   7 N        1.822    -0.068    23.293     7.151
     3   6 C        2.760     0.081    26.168     8.377
     4   7 N        2.691    -0.101    23.216     7.156
     5   6 C        2.827     0.108    25.598     8.291
     6   6 C        2.904    -0.096    30.413     9.043
     7   6 C        2.783     0.194    23.861     8.001
     8   8 O        1.660    -0.337    19.674     5.988
     9   7 N        2.739    -0.005    21.359     6.864
    10   6 C        2.811    -0.066    29.626     8.918
    11   6 C        2.747     0.309    21.744     7.635
    12   8 O        0.859    -0.370    21.083     6.156
    13   7 N        2.748    -0.060    22.406     7.030
    14   6 C        3.706    -0.080    22.173     6.731
    15   1 H        0.926     0.111     1.684     2.029
    16   1 H        0.925     0.082     1.959     2.189
    17   1 H        0.926     0.103     1.756     2.072
    18   1 H        0.925     0.100     1.782     2.088
    19   1 H        0.805     0.345     0.600     1.217
    20   1 H        0.926     0.088     1.901     2.156
    21   1 H        0.926     0.124     1.580     1.966
    22   1 H        0.924     0.084     1.934     2.175
    23   1 H        0.924     0.083     1.949     2.183
    24   1 H        0.924     0.133     1.513     1.924
    25   1 H        0.860     0.230     0.967     1.540

Wiberg/Mayer (AO) data.
largest (>0.10) Wiberg bond orders for each atom

     #   Z sym  total        # sym  WBO       # sym  WBO       # sym  WBO
 ---------------------------------------------------------------------------
     1   6 C    3.680 --     2 N    1.681    15 H    0.953    16 H    0.939
     2   7 N    3.295 --     1 C    1.681     3 C    1.482
     3   6 C    3.744 --     2 N    1.482     4 N    1.194    18 H    0.936
     4   7 N    3.501 --     3 C    1.194     5 C    1.169    25 H    0.895
     5   6 C    3.824 --     6 C    1.346     4 N    1.169    13 N    1.125
     6   6 C    3.921 --     7 C    1.373     5 C    1.346    17 H    0.952
     7   6 C    3.814 --     6 C    1.373     8 O    1.142     9 N    1.133
     8   8 O    2.157 --     7 C    1.142    19 H    0.841
     9   7 N    3.645 --    10 C    1.310     7 C    1.133    11 C    0.983
    10   6 C    3.436 --     9 N    1.310    20 H    0.961    21 H    0.960
    11   6 C    3.925 --    12 O    1.690    13 N    1.151     9 N    0.983
    12   8 O    2.028 --    11 C    1.690    13 N    0.153
    13   7 N    3.546 --    11 C    1.151     5 C    1.125    14 C    0.976
                            12 O    0.153
    14   6 C    3.930 --    13 N    0.976    22 H    0.968    23 H    0.963
                            24 H    0.955
    15   1 H    0.981 --     1 C    0.953
    16   1 H    0.977 --     1 C    0.939
    17   1 H    0.988 --     6 C    0.952
    18   1 H    0.983 --     3 C    0.936
    19   1 H    0.879 --     8 O    0.841
    20   1 H    0.991 --    10 C    0.961
    21   1 H    0.984 --    10 C    0.960
    22   1 H    0.990 --    14 C    0.968
    23   1 H    0.990 --    14 C    0.963
    24   1 H    0.982 --    14 C    0.955
    25   1 H    0.947 --     4 N    0.895
 ---------------------------------------------------------------------------

molecular dipole:
                 x           y           z       tot (Debye)
 q only:        1.406      -0.276      -0.003
   full:        1.253      -0.109      -0.086       3.204

           -------------------------------------------------
          | TOTAL ENERGY              -42.120343624407 Eh   |
          | GRADIENT NORM               0.002579942611 Eh/α |
          | HOMO-LUMO GAP               0.877710932578 eV   |
           -------------------------------------------------

 * finished run on 2024/06/05 at 20:00:07.692
