   * xtb version 6.6.1 (8d0f1dd) compiled by 'conda@1efc2f54142f' on 2023-08-01
          program call               : xtb struc.xyz --opt loose --input .xc1 --gfn2

   ID    Z sym.   atoms
    1    7 N      1, 17
    2    6 C      2-6, 8, 9, 11-16, 18-23, 25, 26, 28-33
    3    8 O      7, 10, 24, 27
    4    1 H      34-72
constraining bond 33 68 to    5.1400000 Å, actual value:    2.7109635 Å

          :  Hamiltonian                  GFN2-xTB          :
 * total energy  :   -98.3506280 Eh     change       -0.4035485E-08 Eh
 * total energy  :   -98.7136662 Eh     change       -0.3630382E+00 Eh
 * total energy  :   -98.9503908 Eh     change       -0.2367245E+00 Eh
 * total energy  :   -99.0795997 Eh     change       -0.1292089E+00 Eh
 * total energy  :   -99.1444937 Eh     change       -0.6489406E-01 Eh
 * total energy  :   -99.1752124 Eh     change       -0.3071865E-01 Eh
 * total energy  :   -99.1910413 Eh     change       -0.1582892E-01 Eh
 * total energy  :   -99.2027685 Eh     change       -0.1172719E-01 Eh
 * total energy  :   -99.2117491 Eh     change       -0.8980643E-02 Eh
 * total energy  :   -99.2200355 Eh     change       -0.8286406E-02 Eh
 * total energy  :   -99.3414132 Eh     change       -0.9158029E-03 Eh
 * total energy  :   -99.3419227 Eh     change       -0.5095202E-03 Eh
 * total energy  :   -99.3423113 Eh     change       -0.3885367E-03 Eh
 * total energy  :   -99.3425855 Eh     change       -0.2741926E-03 Eh
 * total energy  :   -99.3427236 Eh     change       -0.1380942E-03 Eh
 * total energy  :   -99.3428188 Eh     change       -0.9522560E-04 Eh
 * total energy  :   -99.3428830 Eh     change       -0.6416029E-04 Eh
 * total energy  :   -99.3429368 Eh     change       -0.5385091E-04 Eh
 * total energy  :   -99.3429686 Eh     change       -0.3181642E-04 Eh
   *** GEOMETRY OPTIMIZATION CONVERGED AFTER 40 ITERATIONS ***

 final structure:
================
72
 xtb: 6.6.1 (8d0f1dd)
N           -2.56222829244823        2.74490522915271        2.27175386903631
C           -1.94911184848627        2.20001346210205        1.23389542009516
C           -2.91657379574391        1.92365798855086        0.13322228792602
C           -3.43951755762296        0.48917742153319        0.22369872357879
C           -4.45491403602920        0.07946050680886       -0.64055804842889
C           -4.97853635261218       -1.20055085672619       -0.57722126556018
O           -5.95523666444247       -1.68470245194305       -1.37128524348353
C           -6.57040270759749       -0.83302469088617       -2.30830471986200
C           -4.47557776061837       -2.11404019646121        0.38780948769795
O           -5.05070669167991       -3.33253492434320        0.38586389134499
C           -4.67967441112137       -4.26090618751935        1.37860711584378
C           -3.45775760504379       -1.70186813741363        1.23136134129489
C           -2.94578043617994       -0.41349757712445        1.14937747222482
C           -2.33761696785803        2.18619116341811       -1.26997726360873
C           -1.40080843987336        1.07279529660793       -1.76694871150851
C           -0.09380859046136        1.05783840216947       -1.07630790892004
N            0.52236000675036       -0.02375128293296       -0.60467612363445
C            1.90250147446545        0.05456995915239       -0.18997103837055
C            2.86177643605538       -0.36800287845128       -1.32128173247846
C            4.28651283565372       -0.15745479840465       -0.89356947886709
C            4.91886154841825        1.05304012523813       -1.12163732472004
C            6.22318038476233        1.26315681455787       -0.70054890340591
C            6.91963026042273        0.26475907469177       -0.03620153968729
O            8.18433749033586        0.35839378352558        0.41924983864769
C            8.90006420982762        1.55392022050190        0.21210426112075
C            6.27911054461559       -0.98164607900076        0.20220675435204
O            7.03062343447362       -1.89783910180929        0.84762485654159
C            6.49395788594448       -3.17423321650535        1.09862560049523
C            4.97488244742445       -1.16824064677704       -0.22617698996934
C           -0.06457522871325       -1.33873198680025       -0.69434804430308
C           -4.08322505293082        2.88792970610120        0.53535596601468
C           -3.97790172198524        2.85505732121406        2.06543215078541
C           -3.91057140318493        4.31565606373652        0.00677934011045
H           -4.84759629331139        0.77570570094543       -1.36374418736528
H           -7.04512986051213        0.02445537795902       -1.82137240540440
H           -7.33380503914666       -1.43818863802755       -2.79378181879749
H           -5.85805167233082       -0.47995863388570       -3.06137062012170
H           -4.86292307479078       -3.86569735861746        2.38186874972737
H           -5.30768544334607       -5.13413267261858        1.21289993382425
H           -3.62738900215497       -4.54930226808384        1.28420103833381
H           -3.06589497766500       -2.36980398671390        1.98053781006939
H           -2.16594733323853       -0.11876118060516        1.83527176924796
H           -3.16486398357432        2.26576642460597       -1.97400076545339
H           -1.80189161489891        3.13529795587644       -1.27099634840859
H           -1.90639503249077        0.11184868347452       -1.69169494454350
H           -1.21430217946008        1.26545970507058       -2.83188385031484
H           -0.89578295350177        1.99867976137097        1.22809125750404
H            0.44252466763735        1.99019682544752       -0.99639193025267
H            2.05571088873029       -0.59114396972804        0.67832132435281
H            2.13488749604341        1.08107517173626        0.10125379973527
H            2.64512206116481        0.23730337416786       -2.20332429001185
H            2.69296722873129       -1.41609212348949       -1.57072012690507
H            4.40129927760474        1.84315961719357       -1.64442339308972
H            6.69167048509010        2.21266917649244       -0.90089698788377
H            8.41583047791496        2.40178626201583        0.70650675605948
H            9.01817398869707        1.77089093234964       -0.85381484158690
H            9.87929155639232        1.38859178757922        0.65712107297374
H            7.28219378887025       -3.72768102495589        1.60523783043882
H            5.61540289427582       -3.12024679781670        1.74981858739640
H            6.23049258293746       -3.68908088857290        0.16939238458096
H            4.48214607792093       -2.11287833600284       -0.05681617512737
H           -0.13632216788102       -1.67478415967014       -1.73158599687400
H           -1.06490888211312       -1.33801195995096       -0.25568930876830
H            0.55350610830762       -2.04366404898475       -0.14384522278493
H           -5.04347613215615        2.49589501676170        0.20095229835235
H           -4.38618282874648        3.73769401422825        2.55267717938972
H           -4.47840548740022        1.93972082362016        2.49215029179799
H           -4.84948885136237        0.42851908035871        3.20078701014653
H           -2.94738193273393        4.72894682263072        0.29970418333491
H           -3.99617221090282        4.34714338111278       -1.07502023639277
H           -4.69439489849935        4.94723912032271        0.41961237590433
H           -2.13358552562307        2.89602502893409        3.17227859921776

          :  Hamiltonian                  GFN2-xTB          :
         :: total energy             -99.342968625639 Eh    ::
         :: gradient norm              0.003332291139 Eh/a0 ::
         :: HOMO-LUMO gap              0.821644014776 eV    ::
         :: SCC energy              -100.699548355390 Eh    ::
         :: -> dispersion             -0.077682872626 Eh    ::
         :: repulsion energy           1.355245085305 Eh    ::

    * Orbital Energies and Occupations

         #    Occupation            Energy/Eh            Energy/eV
      -------------------------------------------------------------
         1        2.0000           -0.8027175             -21.8431
       ...           ...                  ...                  ...
        78        1.9994           -0.5351557             -14.5623
        79        1.9993           -0.5349532             -14.5568
        80        1.9990           -0.5288250             -14.3901
        81        1.9989           -0.5273176             -14.3490
        82        1.9986           -0.5233265             -14.2404
        83        1.9986           -0.5230218             -14.2321
        84        1.9978           -0.5156522             -14.0316
        85        1.9977           -0.5147549             -14.0072
        86        1.9857           -0.4859138             -13.2224
        87        1.9825           -0.4827027             -13.1350
        88        1.9001           -0.4544519             -12.3663
        89        1.8732           -0.4504499             -12.2574
        90        1.3729           -0.4202211             -11.4348 (HOMO)
        91        0.4908           -0.3900262             -10.6132 (LUMO)
        92        0.3949           -0.3856093             -10.4930
        93        0.0045           -0.3114383              -8.4747
        94        0.0038           -0.3084606              -8.3936
        95        0.0033           -0.3065732              -8.3423
        96        0.0029           -0.3041011              -8.2750
        97        0.0000           -0.1857080              -5.0534
        98        0.0000           -0.1814414              -4.9373
        99                         -0.1283337              -3.4921
       100                         -0.1055165              -2.8712
       101                         -0.0791504              -2.1538
       ...                                ...                  ...
       171                          0.5829946              15.8641
      -------------------------------------------------------------
                  HL-Gap            0.0301949 Eh            0.8216 eV

     #   Z          covCN         q      C6AA      α(0)
     1   7 N        2.719    -0.051    22.221     7.001
     2   6 C        2.915     0.012    27.752     8.639
     3   6 C        3.940     0.013    20.297     6.402
     4   6 C        2.974    -0.004    28.125     8.699
     5   6 C        2.920    -0.080    29.999     8.982
     6   6 C        2.863     0.132    25.110     8.214
     7   8 O        1.706    -0.229    17.804     5.697
     8   6 C        3.644     0.028    20.442     6.499
     9   6 C        2.866     0.133    25.098     8.212
    10   8 O        1.706    -0.228    17.777     5.693
    11   6 C        3.646     0.027    20.450     6.499
    12   6 C        2.914    -0.068    29.681     8.934
    13   6 C        2.921    -0.046    29.153     8.854
    14   6 C        3.806    -0.068    21.801     6.647
    15   6 C        3.802    -0.070    21.835     6.653
    16   6 C        2.844    -0.009    28.227     8.707
    17   7 N        2.729     0.009    21.095     6.821
    18   6 C        3.757    -0.017    20.933     6.523
    19   6 C        3.808    -0.070    21.836     6.652
    20   6 C        2.969    -0.002    28.072     8.691
    21   6 C        2.922    -0.050    29.252     8.869
    22   6 C        2.914    -0.069    29.712     8.938
    23   6 C        2.865     0.132    25.113     8.214
    24   8 O        1.706    -0.226    17.751     5.689
    25   6 C        3.645     0.026    20.464     6.501
    26   6 C        2.863     0.132    25.117     8.215
    27   8 O        1.706    -0.229    17.790     5.695
    28   6 C        3.645     0.028    20.433     6.497
    29   6 C        2.920    -0.080    30.009     8.983
    30   6 C        3.700    -0.072    22.055     6.716
    31   6 C        3.901    -0.021    20.899     6.498
    32   6 C        3.808    -0.021    20.935     6.513
    33   6 C        3.752    -0.118    22.816     6.812
    34   1 H        0.926     0.049     2.331     2.387
    35   1 H        0.924     0.052     2.299     2.371
    36   1 H        0.925     0.081     1.970     2.195
    37   1 H        0.924     0.046     2.368     2.407
    38   1 H        0.924     0.057     2.231     2.336
    39   1 H        0.925     0.080     1.977     2.199
    40   1 H        0.924     0.047     2.363     2.404
    41   1 H        0.926     0.054     2.267     2.354
    42   1 H        0.926     0.034     2.533     2.489
    43   1 H        0.925     0.063     2.167     2.302
    44   1 H        0.925     0.056     2.243     2.342
    45   1 H        0.925     0.067     2.118     2.276
    46   1 H        0.923     0.078     1.996     2.210
    47   1 H        0.926     0.057     2.229     2.335
    48   1 H        0.926     0.062     2.180     2.309
    49   1 H        0.924     0.066     2.131     2.283
    50   1 H        0.924     0.065     2.145     2.291
    51   1 H        0.924     0.053     2.280     2.361
    52   1 H        0.924     0.055     2.262     2.352
    53   1 H        0.926     0.042     2.420     2.433
    54   1 H        0.926     0.056     2.249     2.345
    55   1 H        0.924     0.052     2.300     2.372
    56   1 H        0.924     0.054     2.271     2.357
    57   1 H        0.925     0.080     1.975     2.198
    58   1 H        0.925     0.080     1.978     2.199
    59   1 H        0.924     0.047     2.361     2.403
    60   1 H        0.924     0.051     2.308     2.376
    61   1 H        0.926     0.046     2.376     2.410
    62   1 H        0.924     0.075     2.035     2.231
    63   1 H        0.924     0.081     1.971     2.196
    64   1 H        0.925     0.078     1.996     2.210
    65   1 H        0.925     0.062     2.171     2.304
    66   1 H        0.925     0.075     2.028     2.227
    67   1 H        0.918     0.110     1.701     2.040
    68   1 H        0.000    -0.298    55.200    13.585
    69   1 H        0.925     0.043     2.405     2.425
    70   1 H        0.925     0.053     2.279     2.361
    71   1 H        0.925     0.058     2.222     2.331
    72   1 H        0.860     0.189     1.162     1.689

Wiberg/Mayer (AO) data.
largest (>0.10) Wiberg bond orders for each atom

     #   Z sym  total        # sym  WBO       # sym  WBO       # sym  WBO
 ---------------------------------------------------------------------------
     1   7 N    3.439 --     2 C    1.426    32 C    1.004    72 H    0.934
     2   6 C    3.547 --     1 N    1.426     3 C    1.024    47 H    0.962
     3   6 C    3.984 --     2 C    1.024    14 C    0.970     4 C    0.948
                            31 C    0.942
     4   6 C    3.929 --    13 C    1.419     5 C    1.369     3 C    0.948
     5   6 C    3.964 --     6 C    1.401     4 C    1.369    34 H    0.959
     6   6 C    3.909 --     5 C    1.401     9 C    1.223     7 O    1.099
     7   8 O    2.258 --     6 C    1.099     8 C    0.979
     8   6 C    3.934 --     7 O    0.979    36 H    0.977    35 H    0.974
                            37 H    0.974
     9   6 C    3.911 --    12 C    1.396     6 C    1.223    10 O    1.104
    10   8 O    2.259 --     9 C    1.104    11 C    0.977
    11   6 C    3.932 --    39 H    0.977    10 O    0.977    40 H    0.974
                            38 H    0.974
    12   6 C    3.964 --    13 C    1.397     9 C    1.396    41 H    0.963
    13   6 C    3.958 --     4 C    1.419    12 C    1.397    42 H    0.962
    14   6 C    3.966 --    15 C    0.983    44 H    0.973     3 C    0.970
                            43 H    0.969
    15   6 C    3.988 --    16 C    1.060    14 C    0.983    45 H    0.961
                            46 H    0.929
    16   6 C    3.516 --    17 N    1.385    15 C    1.060    48 H    0.959
    17   7 N    3.443 --    16 C    1.385    30 C    1.000    18 C    0.990
    18   6 C    3.956 --    17 N    0.990    50 H    0.968    49 H    0.965
                            19 C    0.965
    19   6 C    3.975 --    20 C    1.008    51 H    0.972    52 H    0.972
                            18 C    0.965
    20   6 C    3.950 --    21 C    1.414    29 C    1.377    19 C    1.008
    21   6 C    3.955 --    20 C    1.414    22 C    1.414    53 H    0.968
    22   6 C    3.963 --    21 C    1.414    23 C    1.388    54 H    0.963
    23   6 C    3.901 --    22 C    1.388    26 C    1.224    24 O    1.105
    24   8 O    2.255 --    23 C    1.105    25 C    0.977
    25   6 C    3.931 --    24 O    0.977    57 H    0.977    55 H    0.973
                            56 H    0.973
    26   6 C    3.905 --    29 C    1.399    23 C    1.224    27 O    1.099
    27   8 O    2.254 --    26 C    1.099    28 C    0.980
    28   6 C    3.934 --    27 O    0.980    58 H    0.977    59 H    0.974
                            60 H    0.974
    29   6 C    3.962 --    26 C    1.399    20 C    1.377    61 H    0.963
    30   6 C    3.958 --    17 N    1.000    64 H    0.978    62 H    0.966
                            63 H    0.959
    31   6 C    3.975 --    33 C    1.008    32 C    0.990    65 H    0.965
                             3 C    0.942
    32   6 C    3.894 --     1 N    1.004    31 C    0.990    66 H    0.963
                            67 H    0.863
    33   6 C    3.987 --    31 C    1.008    69 H    0.986    70 H    0.982
                            71 H    0.981
    34   1 H    0.996 --     5 C    0.959
    35   1 H    0.994 --     8 C    0.974
    36   1 H    0.993 --     8 C    0.977
    37   1 H    0.995 --     8 C    0.974
    38   1 H    0.993 --    11 C    0.974
    39   1 H    0.993 --    11 C    0.977
    40   1 H    0.994 --    11 C    0.974
    41   1 H    0.995 --    12 C    0.963
    42   1 H    0.998 --    13 C    0.962
    43   1 H    0.994 --    14 C    0.969
    44   1 H    0.996 --    14 C    0.973
    45   1 H    0.994 --    15 C    0.961
    46   1 H    0.966 --    15 C    0.929
    47   1 H    0.997 --     2 C    0.962
    48   1 H    0.996 --    16 C    0.959
    49   1 H    0.991 --    18 C    0.965
    50   1 H    0.994 --    18 C    0.968
    51   1 H    0.996 --    19 C    0.972
    52   1 H    0.996 --    19 C    0.972
    53   1 H    0.998 --    21 C    0.968
    54   1 H    0.995 --    22 C    0.963
    55   1 H    0.993 --    25 C    0.973
    56   1 H    0.993 --    25 C    0.973
    57   1 H    0.993 --    25 C    0.977
    58   1 H    0.993 --    28 C    0.977
    59   1 H    0.994 --    28 C    0.974
    60   1 H    0.994 --    28 C    0.974
    61   1 H    0.997 --    29 C    0.963
    62   1 H    0.983 --    30 C    0.966
    63   1 H    0.987 --    30 C    0.959
    64   1 H    0.994 --    30 C    0.978
    65   1 H    0.995 --    31 C    0.965
    66   1 H    0.990 --    32 C    0.963
    67   1 H    0.976 --    32 C    0.863
    68   1 H    0.139
    69   1 H    0.998 --    33 C    0.986
    70   1 H    0.996 --    33 C    0.982
    71   1 H    0.995 --    33 C    0.981
    72   1 H    0.963 --     1 N    0.934
 ---------------------------------------------------------------------------

molecular dipole:
                 x           y           z       tot (Debye)
 q only:        0.685       1.484      -0.879
   full:        0.756       1.646      -0.658       4.899

           -------------------------------------------------
          | TOTAL ENERGY              -99.342968625639 Eh   |
          | GRADIENT NORM               0.003332291139 Eh/α |
          | HOMO-LUMO GAP               0.821644014776 eV   |
           -------------------------------------------------

 * finished run on 2024/04/06 at 11:15:01.357
