   * xtb version 6.6.1 (8d0f1dd) compiled by 'conda@1efc2f54142f' on 2023-08-01
          program call               : xtb struc.xyz --opt loose --input .xc1 --gfn2

   ID    Z sym.   atoms
    1    7 N      1, 17
    2    6 C      2-6, 8, 9, 11-16, 18-23, 25, 26, 28-33
    3    8 O      7, 10, 24, 27
    4    1 H      34-72
constraining bond 17 51 to    5.0600000 Å, actual value:    2.6770191 Å

          :  Hamiltonian                  GFN2-xTB          :
 * total energy  :   -98.3901990 Eh     change       -0.4035485E-08 Eh
 * total energy  :   -98.7648158 Eh     change       -0.3746167E+00 Eh
 * total energy  :   -99.0052589 Eh     change       -0.2404431E+00 Eh
 * total energy  :   -99.1134559 Eh     change       -0.1081970E+00 Eh
 * total energy  :   -99.1569413 Eh     change       -0.4348538E-01 Eh
 * total energy  :   -99.1759160 Eh     change       -0.1897470E-01 Eh
 * total energy  :   -99.1863518 Eh     change       -0.1043575E-01 Eh
 * total energy  :   -99.1947465 Eh     change       -0.8394670E-02 Eh
 * total energy  :   -99.2052104 Eh     change       -0.1046394E-01 Eh
 * total energy  :   -99.2164426 Eh     change       -0.1123221E-01 Eh
 * total energy  :   -99.4110851 Eh     change       -0.1118516E-03 Eh
 * total energy  :   -99.4112112 Eh     change       -0.1260195E-03 Eh
 * total energy  :   -99.4113455 Eh     change       -0.1342961E-03 Eh
 * total energy  :   -99.4114614 Eh     change       -0.1159546E-03 Eh
 * total energy  :   -99.4115592 Eh     change       -0.9779811E-04 Eh
 * total energy  :   -99.4116576 Eh     change       -0.9838044E-04 Eh
 * total energy  :   -99.4117375 Eh     change       -0.7988082E-04 Eh
 * total energy  :   -99.4117975 Eh     change       -0.6000205E-04 Eh
 * total energy  :   -99.4118393 Eh     change       -0.4186866E-04 Eh
   *** GEOMETRY OPTIMIZATION CONVERGED AFTER 183 ITERATIONS ***

 final structure:
================
72
 xtb: 6.6.1 (8d0f1dd)
N           -0.88612303438917        2.28840526790618        0.01249186351418
C           -2.13535186416983        2.30894143388041        0.44975390467943
C           -3.26976190452853        1.73388379111466       -0.31303441540012
C           -3.66057181349784        0.37022845054218        0.26752753002310
C           -4.70160952892165       -0.35466853487727       -0.31090615226116
C           -5.08275391424292       -1.58859397384810        0.18875892617134
O           -6.07787741189684       -2.35326696052618       -0.30240382129230
C           -6.81934958242647       -1.89356821888418       -1.40740433907545
C           -4.40059913680610       -2.13173415253690        1.31096961852597
O           -4.83984542711964       -3.33396994620521        1.73168675199062
C           -4.25765712123370       -3.91112636067041        2.87718881360263
C           -3.36422412979872       -1.40659429919303        1.87483075166975
C           -2.99858855950118       -0.17267700598850        1.35565806776083
C           -2.81367360728263        1.53264203129548       -1.77100039260273
C           -1.50937626752616        0.74440299049972       -1.78962373621684
C           -0.38599226601536        1.57966972487849       -1.17582644432960
N            0.78195773848996        0.80779235036135       -0.88675213519536
C            2.06131010400535        1.51628758285394       -0.84797089459938
C            3.14494159647545        0.58487447798034       -1.29911320464993
C            4.40718254003900        0.45104226559957       -0.84121153747366
C            5.05390193119377        1.31707075582959        0.20378082426749
C            6.05972756998025        0.58873093216982        1.03596304019697
C            6.69406778045490       -0.50787328275136        0.58144214143267
O            7.63993543272537       -1.22345246194353        1.22024196465676
C            8.05092792220911       -0.80930191482320        2.50198034154420
C            6.34153886329721       -1.05013144356294       -0.73453502020917
O            7.15950360883544       -2.02503040227064       -1.15132049375793
C            6.92771141177836       -2.63030610075904       -2.40216414813472
C            5.23733485167709       -0.59215571583751       -1.38244527826185
C            0.68102490562228       -0.16288118022494        0.18277594310020
C           -4.49814816701142        2.69601108679692       -0.22580075387890
C           -5.13721143917468        2.69335584664136        1.16128813591298
C           -4.14517503227175        4.12866665965654       -0.61977454553641
H           -5.23254551585149        0.05634067299413       -1.15326384620713
H           -7.34227558758123       -0.95951475469925       -1.18180467301750
H           -7.55121100509332       -2.67140453838327       -1.61169650627083
H           -6.18473001099879       -1.75554986632574       -2.28848603875073
H           -4.38732933103752       -3.27233716537180        3.75556020050135
H           -4.78538878464418       -4.84933722358993        3.03285816690918
H           -3.19338421247051       -4.11523093636560        2.72776791416337
H           -2.82899345921606       -1.79185418410344        2.72710459341733
H           -2.18827837938798        0.36549346470057        1.82275880843082
H           -3.57577787865827        0.99369299521317       -2.32978922797940
H           -2.66149359368367        2.49800434894691       -2.25294272686405
H           -1.64746612834472       -0.18111741421562       -1.23266218532781
H           -1.22510605685338        0.48640382764529       -2.80888240327782
H           -2.32001085532517        2.78946762459408        1.39675615241729
H           -0.09147955653585        2.35297599552757       -1.90235271441207
H            2.27729587628009        1.91144312239519        0.15763703213401
H            2.00809435867018        2.36600623369490       -1.53784961152554
H            5.60469134450855        2.13142229832691       -0.29990826391668
H            2.81780184892722       -0.07533332511324       -2.09082141903533
H            4.30911646985848        1.79053337252774        0.84541532642171
H            6.30795723381021        1.03200610360455        1.98619148359404
H            7.21445210244654       -0.80646134803670        3.20683662807731
H            8.50631239941102        0.18448703871145        2.47370252017706
H            8.79154542988105       -1.53856773979723        2.82188571582737
H            7.73397159167019       -3.34864381346804       -2.53520811179724
H            5.96743473513662       -3.15444740530588       -2.41971211917772
H            6.95586047617770       -1.89442892800832       -3.21110257958983
H            4.90338200049326       -1.06226513231565       -2.29355978929524
H           -0.18591936686088       -0.80086000671655        0.03922443337351
H            0.61562522756151        0.30426808064957        1.17588549526342
H            1.57590142823674       -0.78396655298680        0.15937464128178
H           -5.23786528307683        2.32152199745556       -0.93870973489166
H           -4.48358446319745        3.14955574527989        1.90031884013283
H           -5.37561760443104        1.68494310766981        1.48739945577454
H           -6.05900999787111        3.26943787134356        1.13607836271142
H           -3.39277983696859        4.54686514833329        0.04477018105675
H           -3.77971482133737        4.19267978034255       -1.64048465001717
H           -5.03652534378906        4.74844996260392       -0.55036440509068
H           -0.17361590182482        2.75478737148586        0.55828859123538

          :  Hamiltonian                  GFN2-xTB          :
         :: total energy             -99.411839348688 Eh    ::
         :: gradient norm              0.003382686209 Eh/a0 ::
         :: HOMO-LUMO gap              1.406149096507 eV    ::
         :: SCC energy              -100.760534049661 Eh    ::
         :: -> dispersion             -0.074906896505 Eh    ::
         :: repulsion energy           1.347658036227 Eh    ::

    * Orbital Energies and Occupations

         #    Occupation            Energy/Eh            Energy/eV
      -------------------------------------------------------------
         1        2.0000           -0.8058102             -21.9272
       ...           ...                  ...                  ...
        78        1.9991           -0.5333503             -14.5132
        79        1.9988           -0.5287459             -14.3879
        80        1.9985           -0.5248925             -14.2831
        81        1.9983           -0.5225293             -14.2187
        82        1.9981           -0.5211772             -14.1820
        83        1.9979           -0.5193657             -14.1327
        84        1.9970           -0.5138335             -13.9821
        85        1.9956           -0.5077261             -13.8159
        86        1.9835           -0.4866772             -13.2432
        87        1.9628           -0.4736908             -12.8898
        88        1.9533           -0.4700061             -12.7895
        89        1.8847           -0.4551342             -12.3848
        90        1.7612           -0.4425249             -12.0417 (HOMO)
        91        0.4401           -0.3908499             -10.6356 (LUMO)
        92        0.0293           -0.3442663              -9.3680
        93        0.0039           -0.3120384              -8.4910
        94        0.0032           -0.3092113              -8.4141
        95        0.0005           -0.2792849              -7.5997
        96        0.0000           -0.2134487              -5.8082
        97        0.0000           -0.1858496              -5.0572
        98                         -0.1325648              -3.6073
        99                         -0.1047540              -2.8505
       100                         -0.0632199              -1.7203
       101                         -0.0589675              -1.6046
       ...                                ...                  ...
       171                          0.6104305              16.6107
      -------------------------------------------------------------
                  HL-Gap            0.0516750 Eh            1.4061 eV

     #   Z          covCN         q      C6AA      α(0)
     1   7 N        2.683    -0.097    23.138     7.144
     2   6 C        2.837     0.035    27.219     8.550
     3   6 C        3.909     0.013    20.307     6.405
     4   6 C        2.974     0.001    27.997     8.679
     5   6 C        2.920    -0.078    29.943     8.973
     6   6 C        2.864     0.132    25.114     8.214
     7   8 O        1.706    -0.228    17.775     5.692
     8   6 C        3.645     0.027    20.453     6.500
     9   6 C        2.865     0.131    25.131     8.217
    10   8 O        1.706    -0.227    17.768     5.691
    11   6 C        3.646     0.027    20.454     6.499
    12   6 C        2.914    -0.072    29.790     8.950
    13   6 C        2.922    -0.053    29.306     8.878
    14   6 C        3.816    -0.067    21.772     6.641
    15   6 C        3.808    -0.074    21.913     6.664
    16   6 C        3.734     0.095    19.096     6.237
    17   7 N        2.732    -0.154    24.326     7.325
    18   6 C        3.753     0.003    20.591     6.471
    19   6 C        2.907    -0.065    29.621     8.924
    20   6 C        2.950     0.014    27.698     8.632
    21   6 C        3.813    -0.064    21.717     6.633
    22   6 C        2.899    -0.079    29.967     8.976
    23   6 C        2.852     0.134    25.067     8.206
    24   8 O        1.706    -0.229    17.804     5.697
    25   6 C        3.647     0.025    20.478     6.502
    26   6 C        2.858     0.144    24.868     8.174
    27   8 O        1.706    -0.213    17.546     5.656
    28   6 C        3.647     0.023    20.516     6.508
    29   6 C        2.916    -0.086    30.148     9.004
    30   6 C        3.704    -0.044    21.508     6.631
    31   6 C        3.854    -0.016    20.822     6.490
    32   6 C        3.755    -0.114    22.742     6.800
    33   6 C        3.755    -0.114    22.728     6.798
    34   1 H        0.926     0.052     2.292     2.367
    35   1 H        0.924     0.052     2.297     2.370
    36   1 H        0.925     0.081     1.966     2.193
    37   1 H        0.924     0.049     2.328     2.386
    38   1 H        0.924     0.053     2.284     2.364
    39   1 H        0.925     0.081     1.970     2.195
    40   1 H        0.924     0.050     2.314     2.379
    41   1 H        0.926     0.053     2.284     2.363
    42   1 H        0.926     0.034     2.533     2.489
    43   1 H        0.925     0.058     2.221     2.330
    44   1 H        0.925     0.051     2.302     2.373
    45   1 H        0.925     0.061     2.185     2.312
    46   1 H        0.925     0.066     2.129     2.282
    47   1 H        0.926     0.070     2.080     2.255
    48   1 H        0.923     0.061     2.184     2.311
    49   1 H        0.923     0.025     2.660     2.551
    50   1 H        0.924     0.050     2.315     2.380
    51   1 H        0.923     0.077     2.016     2.220
    52   1 H        0.925     0.055     2.255     2.348
    53   1 H        0.924     0.056     2.246     2.343
    54   1 H        0.926     0.055     2.261     2.352
    55   1 H        0.924     0.050     2.319     2.382
    56   1 H        0.924     0.053     2.282     2.362
    57   1 H        0.925     0.081     1.967     2.193
    58   1 H        0.925     0.084     1.942     2.179
    59   1 H        0.924     0.055     2.264     2.353
    60   1 H        0.924     0.056     2.244     2.342
    61   1 H        0.926     0.055     2.260     2.351
    62   1 H        0.925     0.054     2.270     2.356
    63   1 H        0.923     0.022     2.711     2.575
    64   1 H        0.925     0.064     2.150     2.293
    65   1 H        0.924     0.048     2.340     2.392
    66   1 H        0.925     0.039     2.457     2.451
    67   1 H        0.925     0.044     2.395     2.420
    68   1 H        0.925     0.054     2.265     2.353
    69   1 H        0.925     0.037     2.492     2.469
    70   1 H        0.925     0.040     2.450     2.448
    71   1 H        0.925     0.057     2.235     2.338
    72   1 H        0.860     0.185     1.186     1.706

Wiberg/Mayer (AO) data.
largest (>0.10) Wiberg bond orders for each atom

     #   Z sym  total        # sym  WBO       # sym  WBO       # sym  WBO
 ---------------------------------------------------------------------------
     1   7 N    3.399 --     2 C    1.422    72 H    0.935    16 C    0.933
     2   6 C    3.527 --     1 N    1.422     3 C    1.037    47 H    0.956
     3   6 C    3.983 --     2 C    1.037    14 C    0.970     4 C    0.944
                            31 C    0.931
     4   6 C    3.927 --    13 C    1.419     5 C    1.372     3 C    0.944
     5   6 C    3.963 --     6 C    1.400     4 C    1.372    34 H    0.957
     6   6 C    3.908 --     5 C    1.400     9 C    1.222     7 O    1.102
     7   8 O    2.259 --     6 C    1.102     8 C    0.978
     8   6 C    3.932 --     7 O    0.978    36 H    0.977    37 H    0.974
                            35 H    0.973
     9   6 C    3.906 --    12 C    1.393     6 C    1.222    10 O    1.103
    10   8 O    2.257 --     9 C    1.103    11 C    0.977
    11   6 C    3.932 --    10 O    0.977    39 H    0.977    38 H    0.974
                            40 H    0.974
    12   6 C    3.964 --    13 C    1.405     9 C    1.393    41 H    0.963
    13   6 C    3.954 --     4 C    1.419    12 C    1.405    42 H    0.961
    14   6 C    3.987 --    15 C    1.007    43 H    0.971     3 C    0.970
                            44 H    0.969
    15   6 C    3.986 --    14 C    1.007    16 C    0.985    46 H    0.971
                            45 H    0.964
    16   6 C    3.956 --    17 N    1.026    15 C    0.985    48 H    0.942
                             1 N    0.933
    17   7 N    3.155 --    16 C    1.026    30 C    1.009    18 C    0.986
    18   6 C    3.975 --    19 C    1.022    17 N    0.986    49 H    0.955
                            50 H    0.950
    19   6 C    3.862 --    20 C    1.700    18 C    1.022    52 H    0.960
    20   6 C    3.962 --    19 C    1.700    29 C    1.161    21 C    1.012
    21   6 C    3.989 --    22 C    1.029    20 C    1.012    53 H    0.957
                            51 H    0.919
    22   6 C    3.872 --    23 C    1.647    21 C    1.029    54 H    0.963
                            24 O    0.111
    23   6 C    3.911 --    22 C    1.647    24 O    1.098    26 C    1.055
    24   8 O    2.255 --    23 C    1.098    25 C    0.977    22 C    0.111
    25   6 C    3.932 --    24 O    0.977    57 H    0.977    55 H    0.974
                            56 H    0.973
    26   6 C    3.886 --    29 C    1.548    27 O    1.128    23 C    1.055
    27   8 O    2.288 --    26 C    1.128    28 C    0.974
    28   6 C    3.929 --    58 H    0.977    27 O    0.974    60 H    0.973
                            59 H    0.972
    29   6 C    3.882 --    26 C    1.548    20 C    1.161    61 H    0.958
    30   6 C    3.974 --    17 N    1.009    64 H    0.976    62 H    0.975
                            63 H    0.972
    31   6 C    3.972 --    32 C    1.010    33 C    1.010    65 H    0.962
                             3 C    0.931
    32   6 C    3.991 --    31 C    1.010    66 H    0.983    68 H    0.982
                            67 H    0.981
    33   6 C    3.990 --    31 C    1.010    69 H    0.982    71 H    0.982
                            70 H    0.981
    34   1 H    0.996 --     5 C    0.957
    35   1 H    0.994 --     8 C    0.973
    36   1 H    0.993 --     8 C    0.977
    37   1 H    0.994 --     8 C    0.974
    38   1 H    0.993 --    11 C    0.974
    39   1 H    0.993 --    11 C    0.977
    40   1 H    0.993 --    11 C    0.974
    41   1 H    0.995 --    12 C    0.963
    42   1 H    0.998 --    13 C    0.961
    43   1 H    0.996 --    14 C    0.971
    44   1 H    0.996 --    14 C    0.969
    45   1 H    0.996 --    15 C    0.964
    46   1 H    0.995 --    15 C    0.971
    47   1 H    0.994 --     2 C    0.956
    48   1 H    0.987 --    16 C    0.942
    49   1 H    0.993 --    18 C    0.955
    50   1 H    0.987 --    18 C    0.950
    51   1 H    0.978 --    21 C    0.919
    52   1 H    0.996 --    19 C    0.960
    53   1 H    0.993 --    21 C    0.957
    54   1 H    0.995 --    22 C    0.963
    55   1 H    0.994 --    25 C    0.974
    56   1 H    0.994 --    25 C    0.973
    57   1 H    0.993 --    25 C    0.977
    58   1 H    0.992 --    28 C    0.977
    59   1 H    0.993 --    28 C    0.972
    60   1 H    0.994 --    28 C    0.973
    61   1 H    0.995 --    29 C    0.958
    62   1 H    0.996 --    30 C    0.975
    63   1 H    0.994 --    30 C    0.972
    64   1 H    0.994 --    30 C    0.976
    65   1 H    0.996 --    31 C    0.962
    66   1 H    0.998 --    32 C    0.983
    67   1 H    0.998 --    32 C    0.981
    68   1 H    0.995 --    32 C    0.982
    69   1 H    0.998 --    33 C    0.982
    70   1 H    0.998 --    33 C    0.981
    71   1 H    0.995 --    33 C    0.982
    72   1 H    0.965 --     1 N    0.935
 ---------------------------------------------------------------------------

molecular dipole:
                 x           y           z       tot (Debye)
 q only:        0.270       1.126      -0.191
   full:        0.368       1.640       0.163       4.292

           -------------------------------------------------
          | TOTAL ENERGY              -99.411839348688 Eh   |
          | GRADIENT NORM               0.003382686209 Eh/α |
          | HOMO-LUMO GAP               1.406149096507 eV   |
           -------------------------------------------------

 * finished run on 2024/04/06 at 11:13:58.585
