   * xtb version 6.6.1 (8d0f1dd) compiled by 'conda@1efc2f54142f' on 2023-08-01
          program call               : xtb struc.xyz --opt loose --input .xc1 --gfn2

   ID    Z sym.   atoms
    1    6 C      1, 3, 5-7, 10, 11, 14
    2    7 N      2, 4, 9, 13
    3    8 O      8, 12
    4    1 H      15-25
constraining bond 15 16 to    3.2800000 Å, actual value:    1.7725958 Å

          :  Hamiltonian                  GFN2-xTB          :
 * total energy  :   -38.1880771 Eh     change       -0.6633627E-10 Eh
 * total energy  :   -40.2830556 Eh     change       -0.2094979E+01 Eh
 * total energy  :   -41.6303752 Eh     change       -0.1347320E+01 Eh
 * total energy  :   -42.0311554 Eh     change       -0.4007802E+00 Eh
 * total energy  :   -42.0597820 Eh     change       -0.2862663E-01 Eh
 * total energy  :   -42.0601839 Eh     change       -0.4018872E-03 Eh
 * total energy  :   -42.0612503 Eh     change       -0.1066451E-02 Eh
 * total energy  :   -42.0618168 Eh     change       -0.5664523E-03 Eh
 * total energy  :   -42.0623028 Eh     change       -0.4859636E-03 Eh
 * total energy  :   -42.0627883 Eh     change       -0.4855311E-03 Eh
 * total energy  :   -42.1802782 Eh     change       -0.1843036E-03 Eh
 * total energy  :   -42.1810575 Eh     change       -0.7793572E-03 Eh
 * total energy  :   -42.1812958 Eh     change       -0.2382420E-03 Eh
 * total energy  :   -42.1815644 Eh     change       -0.2685856E-03 Eh
 * total energy  :   -42.1817188 Eh     change       -0.1544544E-03 Eh
 * total energy  :   -42.1818118 Eh     change       -0.9296401E-04 Eh
 * total energy  :   -42.1819116 Eh     change       -0.9983528E-04 Eh
 * total energy  :   -42.1819845 Eh     change       -0.7283055E-04 Eh
 * total energy  :   -42.1820132 Eh     change       -0.2874172E-04 Eh
   *** GEOMETRY OPTIMIZATION CONVERGED AFTER 70 ITERATIONS ***

 final structure:
================
25
 xtb: 6.6.1 (8d0f1dd)
C            3.26797340094739        0.95884608957736       -0.23019488866818
N            2.37896569591161       -0.02162662343586       -0.17062062074922
C            2.59613189558124       -1.35472856641173       -0.13305589918908
N            1.39498519255940       -2.02947596523359       -0.08578768303446
C            0.40022610338426       -1.14477576690044       -0.09187644808380
C            0.98490889232178        0.14338385431951       -0.11124705849549
C            0.18814136089203        1.25822306987545        0.07670426757553
O            0.63282807307538        2.48975718980053        0.25048214570585
N           -1.15218160712545        1.05451029600025        0.12326998582259
C           -2.06875956624231        2.17452242904579        0.28244370657608
C           -1.77890342908295       -0.20293946671741        0.03851215213268
O           -2.97087206964446       -0.29920695695554        0.05766296555075
N           -0.94307320538389       -1.31462621795255       -0.04478763344630
C           -1.53609305691924       -2.63874715325401       -0.07045634111657
H            1.60351374263498        2.50086143431441        0.36026860160982
H            4.30557443098017        0.71920494955713       -0.18793636284896
H            2.98792008219671        1.94134396139891       -0.54958121228073
H            3.55318694065088       -1.82470064399971       -0.14766614775768
H           -1.50461694743500        3.10062649512324        0.31413529083609
H           -2.76802800139970        2.18647394965962       -0.55313910892578
H           -2.64091771953991        2.04931681587643        1.20116718099974
H           -1.30403394403095       -3.17872476541457        0.84875202771305
H           -1.17268332689749       -3.19598439177832       -0.93375724428796
H           -2.61576374180706       -2.51845218313292       -0.14789713132493
H            1.32200231847526       -3.03484329175624       -0.06422292641251

          :  Hamiltonian                  GFN2-xTB          :
         :: total energy             -42.182013197403 Eh    ::
         :: gradient norm              0.001983323709 Eh/a0 ::
         :: HOMO-LUMO gap              1.389366015022 eV    ::
         :: SCC energy               -42.712091277043 Eh    ::
         :: -> dispersion             -0.023098939811 Eh    ::
         :: repulsion energy           0.529942533984 Eh    ::

    * Orbital Energies and Occupations

         #    Occupation            Energy/Eh            Energy/eV
      -------------------------------------------------------------
         1        2.0000           -0.9084204             -24.7194
       ...           ...                  ...                  ...
        25        2.0000           -0.6697203             -18.2240
        26        2.0000           -0.6643364             -18.0775
        27        2.0000           -0.6575559             -17.8930
        28        2.0000           -0.6481114             -17.6360
        29        2.0000           -0.6424631             -17.4823
        30        2.0000           -0.6234185             -16.9641
        31        2.0000           -0.6137137             -16.7000
        32        2.0000           -0.6118639             -16.6497
        33        2.0000           -0.6097674             -16.5926
        34        2.0000           -0.5874951             -15.9866
        35        2.0000           -0.5796692             -15.7736
        36        2.0000           -0.5586971             -15.2029
        37        1.9233           -0.4828522             -13.1391 (HOMO)
        38        0.0763           -0.4317939             -11.7497 (LUMO)
        39        0.0003           -0.3880520             -10.5594
        40        0.0000           -0.3571604              -9.7188
        41                         -0.2955201              -8.0415
        42                         -0.2070582              -5.6343
        43                         -0.1685143              -4.5855
        44                         -0.1485461              -4.0421
        45                         -0.1300655              -3.5393
        46                         -0.1097870              -2.9875
        47                         -0.0661967              -1.8013
        48                         -0.0334480              -0.9102
       ...                                ...                  ...
        67                          0.5383005              14.6479
      -------------------------------------------------------------
                  HL-Gap            0.0510583 Eh            1.3894 eV

     #   Z          covCN         q      C6AA      α(0)
     1   6 C        2.789    -0.137    31.502     9.194
     2   7 N        2.789     0.106    19.412     6.544
     3   6 C        3.037    -0.021    28.490     8.755
     4   7 N        2.775    -0.058    22.359     7.023
     5   6 C        3.011     0.105    25.657     8.309
     6   6 C        3.111    -0.039    28.820     8.795
     7   6 C        2.776     0.216    23.443     7.930
     8   8 O        1.660    -0.322    19.389     5.944
     9   7 N        2.748    -0.048    22.174     6.994
    10   6 C        3.705    -0.070    22.003     6.706
    11   6 C        2.728     0.314    21.662     7.620
    12   8 O        0.859    -0.353    20.756     6.108
    13   7 N        2.737    -0.057    22.338     7.020
    14   6 C        3.698    -0.072    22.050     6.716
    15   1 H        0.804     0.356     0.574     1.190
    16   1 H        0.927     0.079     1.988     2.205
    17   1 H        0.926     0.065     2.141     2.288
    18   1 H        0.927     0.100     1.784     2.089
    19   1 H        0.925     0.110     1.698     2.038
    20   1 H        0.925     0.108     1.710     2.045
    21   1 H        0.925     0.105     1.740     2.063
    22   1 H        0.924     0.086     1.920     2.167
    23   1 H        0.925     0.084     1.935     2.176
    24   1 H        0.925     0.124     1.579     1.965
    25   1 H        0.860     0.218     1.020     1.582

Wiberg/Mayer (AO) data.
largest (>0.10) Wiberg bond orders for each atom

     #   Z sym  total        # sym  WBO       # sym  WBO       # sym  WBO
 ---------------------------------------------------------------------------
     1   6 C    3.787 --     2 N    1.343    16 H    0.971    17 H    0.955
                             3 C    0.258
     2   7 N    3.742 --     1 C    1.343     3 C    1.247     6 C    1.063
     3   6 C    3.800 --     2 N    1.247     4 N    1.155    18 H    0.961
                             1 C    0.258     5 C    0.113
     4   7 N    3.595 --     5 C    1.304     3 C    1.155    25 H    0.924
     5   6 C    3.934 --     4 N    1.304     6 C    1.204    13 N    1.173
                             3 C    0.113
     6   6 C    3.920 --     7 C    1.331     5 C    1.204     2 N    1.063
     7   6 C    3.902 --     6 C    1.331     9 N    1.224     8 O    1.176
     8   8 O    2.220 --     7 C    1.176    15 H    0.821
     9   7 N    3.580 --     7 C    1.224    11 C    1.054    10 C    0.967
                            12 O    0.123
    10   6 C    3.916 --    19 H    0.971     9 N    0.967    21 H    0.964
                            20 H    0.963
    11   6 C    3.960 --    12 O    1.723    13 N    1.088     9 N    1.054
    12   8 O    2.082 --    11 C    1.723    13 N    0.143     9 N    0.123
    13   7 N    3.559 --     5 C    1.173    11 C    1.088    14 C    0.972
                            12 O    0.143
    14   6 C    3.925 --    13 N    0.972    23 H    0.972    22 H    0.969
                            24 H    0.966
    15   1 H    0.872 --     8 O    0.821
    16   1 H    0.993 --     1 C    0.971
    17   1 H    0.996 --     1 C    0.955
    18   1 H    0.989 --     3 C    0.961
    19   1 H    0.987 --    10 C    0.971
    20   1 H    0.984 --    10 C    0.963
    21   1 H    0.985 --    10 C    0.964
    22   1 H    0.990 --    14 C    0.969
    23   1 H    0.991 --    14 C    0.972
    24   1 H    0.984 --    14 C    0.966
    25   1 H    0.952 --     4 N    0.924
 ---------------------------------------------------------------------------

molecular dipole:
                 x           y           z       tot (Debye)
 q only:        1.577      -0.705       0.096
   full:        2.033      -0.972       0.061       5.730

           -------------------------------------------------
          | TOTAL ENERGY              -42.182013197403 Eh   |
          | GRADIENT NORM               0.001983323709 Eh/α |
          | HOMO-LUMO GAP               1.389366015022 eV   |
           -------------------------------------------------

 * finished run on 2024/06/05 at 19:58:09.106
