   * xtb version 6.6.1 (8d0f1dd) compiled by 'conda@1efc2f54142f' on 2023-08-01
          program call               : xtb xtbopt.xyz --opt crude --input .xc2 --gfn2

   ID    Z sym.   atoms
    1    7 N      1, 17
    2    6 C      2-6, 8, 9, 11-16, 18-23, 25, 26, 28-33
    3    8 O      7, 10, 24, 27
    4    1 H      34-72

          :  Hamiltonian                  GFN2-xTB          :
 * total energy  :   -99.2945914 Eh     change       -0.6480150E-11 Eh
   *** GEOMETRY OPTIMIZATION CONVERGED AFTER 1 ITERATIONS ***

 final structure:
================
72
 xtb: 6.6.1 (8d0f1dd)
N           -1.80656979212772        2.98403482533326        2.24501611594415
C           -1.77038996838652        2.17243926061700        1.29722194222274
C           -2.91373679893998        1.90783693471737        0.35817580537684
C           -3.32196826115450        0.44452607574222        0.45019747042783
C           -4.10446594544359       -0.11940063480485       -0.53182450580068
C           -4.55083979584961       -1.47908342580564       -0.49889771107940
O           -5.23421564025024       -1.97480193303689       -1.40660368991879
C           -7.77626406985722       -0.61814671825985       -3.80014488038256
C           -4.14038047958667       -2.25318269427050        0.67917057664208
O           -4.58965751755098       -3.51284437840603        0.68269173012068
C           -4.32014887518176       -4.35647072547900        1.77765596210329
C           -3.36136188934335       -1.66161076689504        1.65780205985459
C           -2.95156392023318       -0.33884927546592        1.55049944393187
C           -2.37745085316300        2.24201476813125       -1.05888734239475
C           -1.43287892716349        1.18741899733412       -1.66425590507397
C           -0.10068429625347        1.13550213413635       -1.02762215733555
N            0.53705201171831        0.03286006249816       -0.67084265529998
C            1.91825165704306        0.08291439763560       -0.25106543603347
C            2.87329900534474       -0.37926061901934       -1.36948283946287
C            4.29837483749645       -0.17845577407534       -0.93462571022519
C            4.93586536693175        1.03234885871840       -1.15611088676452
C            6.23700494922770        1.23953018253442       -0.72656177643071
C            6.92836328905621        0.23778971578075       -0.05941289416034
O            8.18664501431281        0.32809004276955        0.40495527329493
C            8.90866136244513        1.52328692096545        0.21313265064791
C            6.28336169606531       -1.01023558248227        0.17061339314934
O            7.02782369429672       -1.92687591873639        0.81720991662961
C            6.49133056101847       -3.20449390139003        1.06633744192641
C            4.98035209159395       -1.19276604475883       -0.26722801229844
C           -0.08167630857836       -1.26986528922362       -0.75409648851452
C           -4.17910986153799        2.76762809231472        0.65447040107023
C           -4.75899031809703        2.45883772232314        2.03259062095607
C           -3.93292411455328        4.26823562471652        0.52633389561660
H           -4.43917827631865        0.45039467688930       -1.38461367521063
H           -8.28881567846691        0.13357249757054       -3.23805137256426
H           -7.94895174873051       -1.65456481228969       -3.59036979075408
H           -7.07145429822391       -0.33717872448561       -4.55359513711165
H           -4.73280406849641       -3.94944054581521        2.70498746466199
H           -4.80782343943450       -5.30113078680171        1.54677896183555
H           -3.24522500475324       -4.52200398888234        1.89867898629328
H           -3.07031840198249       -2.22368856461869        2.53262493955238
H           -2.36769871706990        0.09179616769848        2.34944034288452
H           -3.22686937393583        2.35064414350425       -1.73235047234499
H           -1.86182880415209        3.20252712086550       -1.01827456028302
H           -1.92198939629410        0.21546546296218       -1.66228784728659
H           -1.27616121907949        1.48007154980446       -2.71064163890993
H           -0.86831857430822        1.59549022773818        1.01568924775593
H            0.45214695069126        2.06113782915198       -0.95077134047308
H            2.05063937881388       -0.55421693640942        0.62748706316193
H            2.17423750151613        1.10724544933612        0.02738504312748
H            2.67334260929283        0.20969761907010       -2.26623676199445
H            2.69290421032212       -1.42985703771967       -1.59883394364607
H            4.42316892726000        1.82455822166548       -1.68019903042321
H            6.70841335275738        2.18884302228748       -0.92061096745326
H            8.42144565474643        2.36892064127849        0.70789452856077
H            9.03840252978758        1.74623217530853       -0.84999619924662
H            9.88255120354773        1.35193752324387        0.66745535939380
H            7.27714251854534       -3.75606825610488        1.57869376577626
H            5.60881506476490       -3.15040470186630        1.71170500300711
H            6.23503710884459       -3.72012753431988        0.13579794114185
H            4.48572329313574       -2.13739469614202       -0.10362952449965
H           -0.29338536993130       -1.54179838521394       -1.78956186346958
H           -1.01793027182397       -1.28328752560705       -0.19121376205607
H            0.58840580754451       -2.01297845299832       -0.33076580673269
H           -4.92425131791132        2.47531563934253       -0.09480541806350
H           -4.05874219023742        2.75354164514853        2.80821820251696
H           -4.98218803685812        1.39983418976218        2.13804598179312
H           -5.68196217441625        3.01578302114365        2.17123141297203
H           -3.16618079393938        4.58434633954653        1.22719383362336
H           -3.63755610598320        4.54862038997668       -0.48106703955230
H           -4.85055943875878        4.80042649715709        0.76330677018048
H           -0.96677571682900        3.11292748692204        2.80011433765558

          :  Hamiltonian                  GFN2-xTB          :
         :: total energy             -99.294591387258 Eh    ::
         :: gradient norm              0.003169276231 Eh/a0 ::
         :: HOMO-LUMO gap              0.416232010465 eV    ::
         :: SCC energy              -100.679607243876 Eh    ::
         :: -> dispersion             -0.072642962868 Eh    ::
         :: repulsion energy           1.383835014520 Eh    ::

    * Orbital Energies and Occupations

         #    Occupation            Energy/Eh            Energy/eV
      -------------------------------------------------------------
         1        2.0000           -0.8121041             -22.0985
       ...           ...                  ...                  ...
        78        1.9978           -0.5322109             -14.4822
        79        1.9973           -0.5293808             -14.4052
        80        1.9966           -0.5253458             -14.2954
        81        1.9959           -0.5224612             -14.2169
        82        1.9941           -0.5169005             -14.0656
        83        1.9928           -0.5135249             -13.9737
        84        1.9921           -0.5121275             -13.9357
        85        1.9755           -0.4941218             -13.4457
        86        1.9557           -0.4845546             -13.1854
        87        1.9164           -0.4741766             -12.9030
        88        1.8373           -0.4629705             -12.5981
        89        1.8209           -0.4613055             -12.5528
        90        1.3183           -0.4350283             -11.8377 (HOMO)
        91        0.8479           -0.4197321             -11.4215 (LUMO)
        92        0.3569           -0.4004063             -10.8956
        93        0.0108           -0.3420418              -9.3074
        94        0.0024           -0.3181135              -8.6563
        95        0.0021           -0.3159301              -8.5969
        96        0.0015           -0.3105788              -8.4513
        97        0.0007           -0.2985702              -8.1245
        98        0.0000           -0.1934941              -5.2652
        99        0.0000           -0.1859604              -5.0602
       100                         -0.1416035              -3.8532
       101                         -0.0726393              -1.9766
       ...                                ...                  ...
       171                          0.6004034              16.3378
      -------------------------------------------------------------
                  HL-Gap            0.0152962 Eh            0.4162 eV

     #   Z          covCN         q      C6AA      α(0)
     1   7 N        1.774    -0.266    27.718     7.796
     2   6 C        2.827     0.103    25.704     8.308
     3   6 C        3.908     0.007    20.407     6.421
     4   6 C        2.967     0.004    27.921     8.667
     5   6 C        2.917    -0.080    29.992     8.981
     6   6 C        2.827     0.194    23.857     8.004
     7   8 O        0.858    -0.379    21.266     6.183
     8   6 C        2.780    -0.110    30.766     9.085
     9   6 C        2.857     0.123    25.297     8.244
    10   8 O        1.706    -0.201    17.344     5.623
    11   6 C        3.645     0.024    20.499     6.508
    12   6 C        2.904    -0.074    29.840     8.957
    13   6 C        2.920    -0.049    29.222     8.865
    14   6 C        3.812    -0.065    21.735     6.636
    15   6 C        3.802    -0.072    21.884     6.660
    16   6 C        2.844     0.013    27.711     8.627
    17   7 N        2.729     0.019    20.917     6.793
    18   6 C        3.756    -0.018    20.945     6.525
    19   6 C        3.808    -0.071    21.850     6.654
    20   6 C        2.969     0.001    28.002     8.680
    21   6 C        2.922    -0.048    29.191     8.860
    22   6 C        2.913    -0.067    29.662     8.931
    23   6 C        2.865     0.135    25.053     8.205
    24   8 O        1.706    -0.218    17.620     5.667
    25   6 C        3.645     0.024    20.509     6.509
    26   6 C        2.862     0.134    25.061     8.206
    27   8 O        1.706    -0.221    17.668     5.675
    28   6 C        3.645     0.026    20.475     6.504
    29   6 C        2.919    -0.079    29.971     8.978
    30   6 C        3.700    -0.072    22.043     6.714
    31   6 C        3.853    -0.008    20.679     6.468
    32   6 C        3.756    -0.117    22.799     6.808
    33   6 C        3.755    -0.120    22.854     6.817
    34   1 H        0.926     0.059     2.210     2.325
    35   1 H        0.927     0.084     1.937     2.176
    36   1 H        0.926     0.095     1.827     2.114
    37   1 H        0.927     0.084     1.942     2.179
    38   1 H        0.924     0.060     2.195     2.317
    39   1 H        0.925     0.085     1.925     2.170
    40   1 H        0.924     0.053     2.287     2.365
    41   1 H        0.926     0.049     2.338     2.391
    42   1 H        0.926     0.038     2.474     2.460
    43   1 H        0.925     0.067     2.116     2.275
    44   1 H        0.924     0.055     2.260     2.351
    45   1 H        0.925     0.075     2.035     2.231
    46   1 H        0.924     0.086     1.914     2.163
    47   1 H        0.922     0.003     3.004     2.711
    48   1 H        0.926     0.073     2.058     2.243
    49   1 H        0.924     0.070     2.090     2.261
    50   1 H        0.924     0.069     2.098     2.265
    51   1 H        0.924     0.057     2.232     2.337
    52   1 H        0.924     0.058     2.226     2.333
    53   1 H        0.926     0.047     2.357     2.401
    54   1 H        0.926     0.060     2.193     2.316
    55   1 H        0.924     0.056     2.249     2.345
    56   1 H        0.924     0.058     2.223     2.332
    57   1 H        0.925     0.084     1.936     2.176
    58   1 H        0.925     0.084     1.941     2.179
    59   1 H        0.924     0.050     2.318     2.381
    60   1 H        0.924     0.055     2.264     2.353
    61   1 H        0.926     0.049     2.331     2.387
    62   1 H        0.924     0.082     1.954     2.186
    63   1 H        0.924     0.082     1.963     2.191
    64   1 H        0.925     0.082     1.955     2.187
    65   1 H        0.924     0.044     2.403     2.424
    66   1 H        0.925     0.067     2.120     2.277
    67   1 H        0.925     0.037     2.483     2.464
    68   1 H        0.925     0.053     2.280     2.361
    69   1 H        0.925     0.064     2.154     2.295
    70   1 H        0.925     0.037     2.491     2.468
    71   1 H        0.925     0.056     2.241     2.341
    72   1 H        0.860     0.158     1.348     1.818

Wiberg/Mayer (AO) data.
largest (>0.10) Wiberg bond orders for each atom

     #   Z sym  total        # sym  WBO       # sym  WBO       # sym  WBO
 ---------------------------------------------------------------------------
     1   7 N    3.034 --     2 C    1.955    72 H    0.941
     2   6 C    3.933 --     1 N    1.955     3 C    0.995    47 H    0.906
     3   6 C    3.968 --     2 C    0.995     4 C    0.966    14 C    0.955
                            31 C    0.940
     4   6 C    3.936 --     5 C    1.479    13 C    1.326     3 C    0.966
     5   6 C    3.801 --     4 C    1.479     6 C    1.170    34 H    0.960
     6   6 C    3.888 --     7 O    1.567     5 C    1.170     9 C    1.056
     7   8 O    1.710 --     6 C    1.567
     8   6 C    2.970 --    37 H    0.991    35 H    0.991    36 H    0.989
     9   6 C    3.741 --    12 C    1.397    10 O    1.140     6 C    1.056
    10   8 O    2.249 --     9 C    1.140    11 C    0.974
    11   6 C    3.925 --    39 H    0.976    10 O    0.974    40 H    0.971
                            38 H    0.970
    12   6 C    3.944 --    13 C    1.406     9 C    1.397    41 H    0.960
    13   6 C    3.812 --    12 C    1.406     4 C    1.326    42 H    0.963
    14   6 C    3.971 --    15 C    0.978    44 H    0.972    43 H    0.966
                             3 C    0.955
    15   6 C    3.983 --    16 C    1.064    14 C    0.978    45 H    0.958
                            46 H    0.923
    16   6 C    3.619 --    17 N    1.428    15 C    1.064    48 H    0.956
    17   7 N    3.502 --    16 C    1.428    30 C    0.996    18 C    0.987
    18   6 C    3.954 --    17 N    0.987    50 H    0.968    19 C    0.966
                            49 H    0.963
    19   6 C    3.976 --    20 C    1.008    52 H    0.972    51 H    0.971
                            18 C    0.966
    20   6 C    3.940 --    21 C    1.405    29 C    1.382    19 C    1.008
    21   6 C    3.945 --    22 C    1.419    20 C    1.405    53 H    0.968
    22   6 C    3.956 --    21 C    1.419    23 C    1.380    54 H    0.963
    23   6 C    3.890 --    22 C    1.380    26 C    1.215    24 O    1.115
    24   8 O    2.256 --    23 C    1.115    25 C    0.975
    25   6 C    3.926 --    57 H    0.976    24 O    0.975    55 H    0.972
                            56 H    0.972
    26   6 C    3.894 --    29 C    1.392    23 C    1.215    27 O    1.109
    27   8 O    2.255 --    26 C    1.109    28 C    0.977
    28   6 C    3.930 --    27 O    0.977    58 H    0.976    59 H    0.973
                            60 H    0.973
    29   6 C    3.956 --    26 C    1.392    20 C    1.382    61 H    0.962
    30   6 C    3.955 --    17 N    0.996    64 H    0.977    62 H    0.965
                            63 H    0.962
    31   6 C    3.967 --    32 C    1.008    33 C    1.008    65 H    0.958
                             3 C    0.940
    32   6 C    3.974 --    31 C    1.008    68 H    0.980    67 H    0.980
                            66 H    0.973
    33   6 C    3.977 --    31 C    1.008    70 H    0.982    71 H    0.979
                            69 H    0.974
    34   1 H    0.992 --     5 C    0.960
    35   1 H    0.993 --     8 C    0.991
    36   1 H    0.990 --     8 C    0.989
    37   1 H    0.993 --     8 C    0.991
    38   1 H    0.988 --    11 C    0.970
    39   1 H    0.992 --    11 C    0.976
    40   1 H    0.989 --    11 C    0.971
    41   1 H    0.992 --    12 C    0.960
    42   1 H    0.998 --    13 C    0.963
    43   1 H    0.994 --    14 C    0.966
    44   1 H    0.996 --    14 C    0.972
    45   1 H    0.994 --    15 C    0.958
    46   1 H    0.970 --    15 C    0.923
    47   1 H    0.983 --     2 C    0.906
    48   1 H    0.994 --    16 C    0.956
    49   1 H    0.990 --    18 C    0.963
    50   1 H    0.994 --    18 C    0.968
    51   1 H    0.995 --    19 C    0.971
    52   1 H    0.995 --    19 C    0.972
    53   1 H    0.997 --    21 C    0.968
    54   1 H    0.995 --    22 C    0.963
    55   1 H    0.991 --    25 C    0.972
    56   1 H    0.990 --    25 C    0.972
    57   1 H    0.992 --    25 C    0.976
    58   1 H    0.992 --    28 C    0.976
    59   1 H    0.992 --    28 C    0.973
    60   1 H    0.992 --    28 C    0.973
    61   1 H    0.996 --    29 C    0.962
    62   1 H    0.985 --    30 C    0.965
    63   1 H    0.987 --    30 C    0.962
    64   1 H    0.993 --    30 C    0.977
    65   1 H    0.989 --    31 C    0.958
    66   1 H    0.990 --    32 C    0.973
    67   1 H    0.995 --    32 C    0.980
    68   1 H    0.993 --    32 C    0.980
    69   1 H    0.991 --    33 C    0.974
    70   1 H    0.996 --    33 C    0.982
    71   1 H    0.993 --    33 C    0.979
    72   1 H    0.969 --     1 N    0.941
 ---------------------------------------------------------------------------

molecular dipole:
                 x           y           z       tot (Debye)
 q only:        1.621       0.424      -0.434
   full:        2.002       0.304      -0.332       5.216

           -------------------------------------------------
          | TOTAL ENERGY              -99.294591387258 Eh   |
          | GRADIENT NORM               0.003169276231 Eh/α |
          | HOMO-LUMO GAP               0.416232010465 eV   |
           -------------------------------------------------

 * finished run on 2024/04/06 at 11:12:47.115
