   * xtb version 6.6.1 (8d0f1dd) compiled by 'conda@1efc2f54142f' on 2023-08-01
          program call               : xtb struc.xyz --opt loose --input .xc1 --gfn2

   ID    Z sym.   atoms
    1    6 C      1, 3, 5-7, 10, 11, 14
    2    7 N      2, 4, 9, 13
    3    8 O      8, 12
    4    1 H      15-25
constraining bond 7 13 to    5.9200000 Å, actual value:    2.8933564 Å

          :  Hamiltonian                  GFN2-xTB          :
 * total energy  :   -25.8913643 Eh     change       -0.6650680E-10 Eh
 * total energy  :   -31.1260147 Eh     change       -0.5234650E+01 Eh
 * total energy  :   -34.5459566 Eh     change       -0.3419942E+01 Eh
 * total energy  :   -36.9857380 Eh     change       -0.2439781E+01 Eh
 * total energy  :   -38.9266335 Eh     change       -0.1940895E+01 Eh
 * total energy  :   -40.3018823 Eh     change       -0.1375249E+01 Eh
 * total energy  :   -41.0747125 Eh     change       -0.7728302E+00 Eh
 * total energy  :   -41.4060339 Eh     change       -0.3313214E+00 Eh
 * total energy  :   -41.5041369 Eh     change       -0.9810298E-01 Eh
 * total energy  :   -41.5129505 Eh     change       -0.8813580E-02 Eh
 * total energy  :   -42.0219535 Eh     change       -0.3767837E-04 Eh
 * total energy  :   -42.0220037 Eh     change       -0.5025414E-04 Eh
 * total energy  :   -42.0220549 Eh     change       -0.5117091E-04 Eh
 * total energy  :   -42.0220995 Eh     change       -0.4454631E-04 Eh
 * total energy  :   -42.0221696 Eh     change       -0.7016210E-04 Eh
 * total energy  :   -42.0222600 Eh     change       -0.9034610E-04 Eh
 * total energy  :   -42.0221751 Eh     change        0.8485449E-04 Eh
 * total energy  :   -42.0224083 Eh     change       -0.2332257E-03 Eh
 * total energy  :   -42.0224542 Eh     change       -0.4581597E-04 Eh
   *** GEOMETRY OPTIMIZATION CONVERGED AFTER 96 ITERATIONS ***

 final structure:
================
25
 xtb: 6.6.1 (8d0f1dd)
C            3.13655185507598        0.66861277845489       -0.30834891933743
N            2.16192439817286       -0.37736302369979       -0.16357196948220
C            1.97277246774292       -1.11275328013067        0.93275640551459
N            0.97851261255208       -1.97381935801030        0.70996174385071
C            0.52622272793882       -1.74443788216762       -0.57796473603750
C            1.28347041448204       -0.72752631272113       -1.14668197070625
C            0.99039861238468        3.28530378663422       -0.57041393777680
O            0.97836974520919        4.36767781442914       -0.88794512796534
N           -2.31022865976597        1.15443220691120        0.50183814687798
C           -2.64473294498675        2.52139962413389        0.50642671882522
C           -1.88736253244140        0.17980770114279        1.01286054806453
O           -1.48208807919256       -0.87485830353462        1.30429147589213
N           -0.50433648795567       -2.41138208883791       -1.17281857169226
C           -1.25375267532286       -3.36448478717647       -0.68419034622125
H            3.82580176118843        0.66094315619917        0.53301051960782
H            3.68660892974873        0.52506389210840       -1.23741577342736
H            2.62488102967199        1.63383972762328       -0.35745214053840
H            2.53094516067073       -1.03773791574590        1.84511802268057
H           -1.75669343848644        3.11571827183307        0.28231766752066
H           -3.38938229577675        2.68366962720896       -0.27187035475363
H           -3.05568061021421        2.82598599524993        1.46983495546328
H           -1.10674040752891       -3.72895512721604        0.31610876454915
H           -0.68081994004326       -2.07809164724203       -2.11813717034194
H           -2.04187095532098       -3.77948255459737       -1.28438597784313
H            0.57766082629631       -2.59332375924211        1.39784364517877

          :  Hamiltonian                  GFN2-xTB          :
         :: total energy             -42.022454150763 Eh    ::
         :: gradient norm              0.002977149477 Eh/a0 ::
         :: HOMO-LUMO gap              1.543891909029 eV    ::
         :: SCC energy               -42.626779721488 Eh    ::
         :: -> dispersion             -0.018596216682 Eh    ::
         :: repulsion energy           0.604012332631 Eh    ::

    * Orbital Energies and Occupations

         #    Occupation            Energy/Eh            Energy/eV
      -------------------------------------------------------------
         1        2.0000           -0.8920178             -24.2730
       ...           ...                  ...                  ...
        25        2.0000           -0.6539571             -17.7951
        26        2.0000           -0.6438590             -17.5203
        27        2.0000           -0.6410529             -17.4439
        28        1.9999           -0.6273911             -17.0722
        29        1.9999           -0.6270196             -17.0621
        30        1.9999           -0.6231329             -16.9563
        31        1.9996           -0.6067233             -16.5098
        32        1.9983           -0.5830654             -15.8660
        33        1.9950           -0.5655185             -15.3885
        34        1.9788           -0.5426473             -14.7662
        35        1.9758           -0.5405275             -14.7085
        36        1.9710           -0.5376384             -14.6299
        37        1.7460           -0.5013666             -13.6429 (HOMO)
        38        0.3207           -0.4446296             -12.0990 (LUMO)
        39        0.0064           -0.3799670             -10.3394
        40        0.0054           -0.3771235             -10.2621
        41        0.0034           -0.3700721             -10.0702
        42        0.0001           -0.3078905              -8.3781
        43        0.0001           -0.3033918              -8.2557
        44        0.0000           -0.2884126              -7.8481
        45                         -0.1532040              -4.1689
        46                         -0.1372977              -3.7361
        47                         -0.0793825              -2.1601
        48                         -0.0724933              -1.9726
       ...                                ...                  ...
        67                          1.2219592              33.2512
      -------------------------------------------------------------
                  HL-Gap            0.0567370 Eh            1.5439 eV

     #   Z          covCN         q      C6AA      α(0)
     1   6 C        3.695    -0.087    22.335     6.761
     2   7 N        2.887     0.080    19.850     6.617
     3   6 C        3.029     0.060    26.624     8.464
     4   7 N        2.781    -0.056    22.318     7.016
     5   6 C        3.075     0.087    25.991     8.359
     6   6 C        2.055    -0.167    35.718     9.653
     7   6 C        0.856     0.030    34.185     9.756
     8   8 O        0.856    -0.035    15.589     5.294
     9   7 N        1.820    -0.148    24.976     7.405
    10   6 C        3.686    -0.031    21.323     6.611
    11   6 C        1.769     0.302    24.403     7.987
    12   8 O        0.856    -0.328    20.295     6.040
    13   7 N        2.684     0.012    21.056     6.815
    14   6 C        2.777    -0.034    28.838     8.796
    15   1 H        0.925     0.083     1.951     2.184
    16   1 H        0.925     0.105     1.737     2.061
    17   1 H        0.924     0.105     1.736     2.061
    18   1 H        0.926     0.096     1.820     2.110
    19   1 H        0.924     0.077     2.015     2.220
    20   1 H        0.925     0.095     1.830     2.115
    21   1 H        0.924     0.083     1.945     2.181
    22   1 H        0.926     0.108     1.712     2.046
    23   1 H        0.860     0.238     0.931     1.511
    24   1 H        0.926     0.110     1.699     2.039
    25   1 H        0.860     0.213     1.044     1.600

Wiberg/Mayer (AO) data.
largest (>0.10) Wiberg bond orders for each atom

     #   Z sym  total        # sym  WBO       # sym  WBO       # sym  WBO
 ---------------------------------------------------------------------------
     1   6 C    3.940 --     2 N    0.997    15 H    0.978    16 H    0.965
                            17 H    0.945
     2   7 N    3.708 --     3 C    1.352     6 C    1.231     1 C    0.997
     3   6 C    3.877 --     2 N    1.352     4 N    1.344    18 H    0.955
     4   7 N    3.585 --     3 C    1.344     5 C    1.130    25 H    0.921
     5   6 C    3.868 --     6 C    1.386    13 N    1.137     4 N    1.130
     6   6 C    2.853 --     5 C    1.386     2 N    1.231
     7   6 C    2.638 --     8 O    2.610
     8   8 O    2.616 --     7 C    2.610
     9   7 N    3.445 --    11 C    2.055    10 C    1.017    12 O    0.372
    10   6 C    3.939 --     9 N    1.017    20 H    0.963    21 H    0.959
                            19 H    0.958
    11   6 C    3.946 --     9 N    2.055    12 O    1.814
    12   8 O    2.231 --    11 C    1.814     9 N    0.372
    13   7 N    3.594 --    14 C    1.507     5 C    1.137    23 H    0.908
    14   6 C    3.644 --    13 N    1.507    24 H    0.968    22 H    0.963
    15   1 H    0.993 --     1 C    0.978
    16   1 H    0.988 --     1 C    0.965
    17   1 H    0.988 --     1 C    0.945
    18   1 H    0.989 --     3 C    0.955
    19   1 H    0.988 --    10 C    0.958
    20   1 H    0.986 --    10 C    0.963
    21   1 H    0.987 --    10 C    0.959
    22   1 H    0.988 --    14 C    0.963
    23   1 H    0.943 --    13 N    0.908
    24   1 H    0.987 --    14 C    0.968
    25   1 H    0.953 --     4 N    0.921
 ---------------------------------------------------------------------------

molecular dipole:
                 x           y           z       tot (Debye)
 q only:        0.563      -1.701      -0.300
   full:        0.445      -1.582       0.276       4.236

           -------------------------------------------------
          | TOTAL ENERGY              -42.022454150763 Eh   |
          | GRADIENT NORM               0.002977149477 Eh/α |
          | HOMO-LUMO GAP               1.543891909029 eV   |
           -------------------------------------------------

 * finished run on 2024/06/05 at 19:58:25.115
