   * xtb version 6.6.1 (8d0f1dd) compiled by 'conda@1efc2f54142f' on 2023-08-01
          program call               : xtb struc.xyz --opt loose --input .xc1 --gfn2

   ID    Z sym.   atoms
    1    6 C      1, 3, 5-7, 10, 11, 14
    2    7 N      2, 4, 9, 13
    3    8 O      8, 12
    4    1 H      15-25
constraining bond 12 20 to    4.6333300 Å, actual value:    2.6315711 Å

          :  Hamiltonian                  GFN2-xTB          :
 * total energy  :   -49.4025548 Eh     change       -0.6650680E-10 Eh
 * total energy  :   -55.6976636 Eh     change       -0.6295109E+01 Eh
 * total energy  :   -63.8918353 Eh     change       -0.8194172E+01 Eh
 * total energy  :   -71.9786552 Eh     change       -0.8086820E+01 Eh
 * total energy  :   -71.7009277 Eh     change        0.2777275E+00 Eh
 * total energy  :   -72.0299931 Eh     change       -0.3290654E+00 Eh
 * total energy  :   -72.0607329 Eh     change       -0.3073989E-01 Eh
 * total energy  :   -72.1026518 Eh     change       -0.4191885E-01 Eh
 * total energy  :   -72.1315158 Eh     change       -0.2886397E-01 Eh
 * total energy  :   -72.1477757 Eh     change       -0.1625996E-01 Eh
 * total energy  :   -72.2206555 Eh     change       -0.5460226E-04 Eh
 * total energy  :   -72.2207057 Eh     change       -0.5017602E-04 Eh
 * total energy  :   -72.2207413 Eh     change       -0.3559721E-04 Eh
 * total energy  :   -72.2207786 Eh     change       -0.3730393E-04 Eh
 * total energy  :   -72.2208081 Eh     change       -0.2950951E-04 Eh
 * total energy  :   -72.2208346 Eh     change       -0.2651276E-04 Eh
 * total energy  :   -72.2206577 Eh     change        0.1768468E-03 Eh
 * total energy  :   -72.2208492 Eh     change       -0.1914278E-03 Eh
 * total energy  :   -72.2208538 Eh     change       -0.4624533E-05 Eh
   *** GEOMETRY OPTIMIZATION CONVERGED AFTER 46 ITERATIONS ***

 final structure:
================
25
 xtb: 6.6.1 (8d0f1dd)
C            3.31127855746887        1.10425152225036        0.06348638592958
N            2.31215801584778        0.07188759334454        0.01912898282075
C            2.53300199737384       -1.24885497302021       -0.01895389595007
N            1.34566685353429       -1.91213758402630       -0.04482333513427
C            0.34550137416285       -0.98473199894821       -0.02347381215095
C            0.94431183367901        0.27703185973898        0.01709475127057
C            0.21165235686061        1.48761157630608        0.04799269362163
O            0.61883765903120        2.62785467828519        0.07948665730424
N           -1.24428845615230        1.23550917675471        0.03602508728678
C           -2.01140171697526        2.33103275823356        0.07202453751944
C           -1.76925526702958       -0.01796674205362       -0.01166291928845
O           -3.10886497927820       -0.18637499562616       -0.04506656022023
N           -0.99259773053886       -1.15572641778819       -0.03724125171376
C           -1.57846398462337       -2.48016288102868       -0.06982949696932
H            3.91602332223055        1.00906712760986        0.96602666106347
H            3.96540600870757        1.03736425160887       -0.80622612857357
H            2.81102654162405        2.07128846811245        0.06622889423243
H            3.49438324607628       -1.71729811397321       -0.02759974948703
H           -1.50724481509767        3.27512409515459        0.10383706704196
H           -3.40296646069389        0.08056627794600       -0.13091908817553
H           -3.07944492118631        2.26985684082219        0.08799928731406
H           -1.21884347056151       -3.06686294502506        0.77592789738706
H           -1.32151180847753       -2.98263714030829       -1.00333902929283
H           -2.65857597260344       -2.39335724302196       -0.00153687931791
H            1.24464333072083       -2.91409664974728       -0.08341513861784

          :  Hamiltonian                  GFN2-xTB          :
         :: total energy             -72.220853791619 Eh    ::
         :: gradient norm              0.003112024280 Eh/a0 ::
         :: HOMO-LUMO gap              1.185344157460 eV    ::
         :: SCC energy               -42.726830978741 Eh    ::
         :: -> dispersion             -0.022960691325 Eh    ::
         :: repulsion energy           2.408546351538 Eh    ::

    * Orbital Energies and Occupations

         #    Occupation            Energy/Eh            Energy/eV
      -------------------------------------------------------------
         1        2.0000           -0.9133480             -24.8535
       ...           ...                  ...                  ...
        25        2.0000           -0.6656415             -18.1130
        26        2.0000           -0.6618018             -18.0085
        27        2.0000           -0.6513581             -17.7244
        28        2.0000           -0.6382102             -17.3666
        29        2.0000           -0.6304888             -17.1565
        30        2.0000           -0.6267943             -17.0559
        31        2.0000           -0.6168601             -16.7856
        32        2.0000           -0.6139069             -16.7053
        33        1.9999           -0.5956612             -16.2088
        34        1.9999           -0.5940576             -16.1651
        35        1.9981           -0.5522671             -15.0280
        36        1.9979           -0.5506569             -14.9841
        37        1.5589           -0.4616976             -12.5634 (HOMO)
        38        0.3683           -0.4181370             -11.3781 (LUMO)
        39        0.0487           -0.3832849             -10.4297
        40        0.0282           -0.3744791             -10.1901
        41        0.0001           -0.2744942              -7.4694
        42        0.0000           -0.2035888              -5.5399
        43        0.0000           -0.1840613              -5.0086
        44                         -0.1588774              -4.3233
        45                         -0.1234325              -3.3588
        46                         -0.0778352              -2.1180
        47                         -0.0392412              -1.0678
        48                         -0.0151098              -0.4112
       ...                                ...                  ...
        67                          5.3378990             145.2516
      -------------------------------------------------------------
                  HL-Gap            0.0435606 Eh            1.1853 eV

     #   Z          covCN         q      C6AA      α(0)
     1   6 C        3.690    -0.090    22.423     6.777
     2   7 N        2.821     0.061    20.184     6.673
     3   6 C        3.028     0.033    27.227     8.559
     4   7 N        2.777    -0.067    22.543     7.052
     5   6 C        3.049     0.085    26.052     8.371
     6   6 C        3.083    -0.027    28.584     8.765
     7   6 C        2.774     0.240    22.980     7.851
     8   8 O        0.857    -0.370    21.097     6.158
     9   7 N        2.736    -0.009    21.433     6.876
    10   6 C        2.812    -0.083    30.055     8.982
    11   6 C        2.804     0.194    23.855     8.002
    12   8 O        1.664    -0.377    20.409     6.099
    13   7 N        2.736    -0.016    21.558     6.896
    14   6 C        3.698    -0.082    22.237     6.745
    15   1 H        0.924     0.098     1.802     2.099
    16   1 H        0.924     0.098     1.805     2.101
    17   1 H        0.925     0.129     1.542     1.942
    18   1 H        0.927     0.112     1.677     2.025
    19   1 H        0.926     0.114     1.665     2.018
    20   1 H        0.861     0.369     0.539     1.150
    21   1 H        0.927     0.073     2.058     2.243
    22   1 H        0.924     0.089     1.886     2.148
    23   1 H        0.924     0.090     1.878     2.143
    24   1 H        0.925     0.117     1.634     1.999
    25   1 H        0.860     0.218     1.019     1.581

Wiberg/Mayer (AO) data.
largest (>0.10) Wiberg bond orders for each atom

     #   Z sym  total        # sym  WBO       # sym  WBO       # sym  WBO
 ---------------------------------------------------------------------------
     1   6 C    3.924 --     2 N    0.990    17 H    0.963    16 H    0.963
                            15 H    0.962
     2   7 N    3.581 --     3 C    1.332     6 C    1.130     1 C    0.990
     3   6 C    3.716 --     2 N    1.332     4 N    1.237    18 H    0.957
     4   7 N    3.525 --     3 C    1.237     5 C    1.183    25 H    0.925
     5   6 C    3.881 --     6 C    1.286    13 N    1.183     4 N    1.183
     6   6 C    3.889 --     5 C    1.286     7 C    1.167     2 N    1.130
     7   6 C    3.842 --     8 O    1.663     6 C    1.167     9 N    0.907
     8   8 O    1.968 --     7 C    1.663     9 N    0.102
     9   7 N    3.665 --    10 C    1.319    11 C    1.202     7 C    0.907
                             8 O    0.102
    10   6 C    3.540 --     9 N    1.319    21 H    0.973    19 H    0.962
                            11 C    0.145
    11   6 C    3.697 --     9 N    1.202    13 N    1.139    12 O    1.098
                            10 C    0.145
    12   8 O    2.128 --    11 C    1.098    20 H    0.856
    13   7 N    3.539 --     5 C    1.183    11 C    1.139    14 C    0.976
    14   6 C    3.929 --    13 N    0.976    22 H    0.970    23 H    0.969
                            24 H    0.969
    15   1 H    0.984 --     1 C    0.962
    16   1 H    0.984 --     1 C    0.963
    17   1 H    0.983 --     1 C    0.963
    18   1 H    0.986 --     3 C    0.957
    19   1 H    0.986 --    10 C    0.962
    20   1 H    0.863 --    12 O    0.856
    21   1 H    0.994 --    10 C    0.973
    22   1 H    0.988 --    14 C    0.970
    23   1 H    0.987 --    14 C    0.969
    24   1 H    0.986 --    14 C    0.969
    25   1 H    0.952 --     4 N    0.925
 ---------------------------------------------------------------------------

molecular dipole:
                 x           y           z       tot (Debye)
 q only:        0.791      -2.359      -0.106
   full:        0.565      -2.717      -0.159       7.065

           -------------------------------------------------
          | TOTAL ENERGY              -72.220853791619 Eh   |
          | GRADIENT NORM               0.003112024280 Eh/α |
          | HOMO-LUMO GAP               1.185344157460 eV   |
           -------------------------------------------------

 * finished run on 2024/06/05 at 19:59:02.060
