   * xtb version 6.6.1 (8d0f1dd) compiled by 'conda@1efc2f54142f' on 2023-08-01
          program call               : xtb struc.xyz --opt loose --input .xc1 --gfn2

   ID    Z sym.   atoms
    1    6 C      1, 3, 5-7, 10, 11, 14
    2    7 N      2, 4, 9, 13
    3    8 O      8, 12
    4    1 H      15-25
constraining bond 7 19 to    3.7133300 Å, actual value:    2.4428892 Å

          :  Hamiltonian                  GFN2-xTB          :
 * total energy  :   -45.1419346 Eh     change       -0.2401990E-09 Eh
 * total energy  :   -49.3426258 Eh     change       -0.4200691E+01 Eh
 * total energy  :   -55.3677630 Eh     change       -0.6025137E+01 Eh
 * total energy  :   -56.9996617 Eh     change       -0.1631899E+01 Eh
 * total energy  :   -58.3758735 Eh     change       -0.1376212E+01 Eh
 * total energy  :   -58.9509015 Eh     change       -0.5750280E+00 Eh
 * total energy  :   -58.4414364 Eh     change        0.5094650E+00 Eh
 * total energy  :   -59.4276412 Eh     change       -0.9862048E+00 Eh
 * total energy  :   -59.5224951 Eh     change       -0.9485388E-01 Eh
 * total energy  :   -59.5538687 Eh     change       -0.3137364E-01 Eh
 * total energy  :   -59.7636335 Eh     change        0.7812651E-05 Eh
 * total energy  :   -59.7637619 Eh     change       -0.1283699E-03 Eh
 * total energy  :   -59.7637435 Eh     change        0.1835217E-04 Eh
 * total energy  :   -59.7638584 Eh     change       -0.1148311E-03 Eh
 * total energy  :   -59.7639454 Eh     change       -0.8701714E-04 Eh
 * total energy  :   -59.7640415 Eh     change       -0.9613809E-04 Eh
 * total energy  :   -59.7641114 Eh     change       -0.6984944E-04 Eh
 * total energy  :   -59.7641637 Eh     change       -0.5236873E-04 Eh
 * total energy  :   -59.7641984 Eh     change       -0.3462971E-04 Eh
   *** GEOMETRY OPTIMIZATION CONVERGED AFTER 65 ITERATIONS ***

 final structure:
================
25
 xtb: 6.6.1 (8d0f1dd)
C            3.46863506413715        1.05334049430774       -0.02868014740698
N            2.41478209434876        0.07546053239617       -0.04389595029871
C            2.55670716578697       -1.26040598099081       -0.08919237828016
N            1.33111397091481       -1.82812002940684       -0.05837614631030
C            0.37323603971946       -0.83981977851256        0.01221115938239
C            1.06805846071550        0.35989571159875        0.02531417241009
C           -0.64221968260571        2.09004458188189        0.12364753567790
O            0.67137133224215        1.61716776194569        0.09025235015361
N           -1.75805149680275        1.22699240071532       -0.00904818208530
C           -2.89684287782484        1.93866632244926       -0.20775388071272
C           -1.99969453097741       -0.17571661632752        0.15192789515527
O           -3.14156937072227       -0.55639760643664        0.30731145162497
N           -0.96905514739945       -1.09744585270602        0.06632065497690
C           -1.36280924854488       -2.50080690559913        0.08042809595181
H            3.89884771448641        1.13862498078278        0.97147587238333
H            4.25224542049372        0.76373485302165       -0.72728823736328
H            3.05886287285073        2.01891434135228       -0.31871516878669
H            3.48654588055238       -1.78477658537731       -0.14395630819773
H           -0.69398448847054        2.51047568928670        0.14448661077667
H           -2.82772701543244        3.00310481567442       -0.30742011355925
H           -3.83802301077981        1.42511078092218       -0.18046601608991
H           -0.98176911086349       -2.99950122017036        0.97264681927722
H           -1.00746887540304       -2.99911614508385       -0.82212271250112
H           -2.45061647967243       -2.54201408153131        0.09868483211560
H            1.14985683335084       -2.81917392259256       -0.07662059039427

          :  Hamiltonian                  GFN2-xTB          :
         :: total energy             -59.764198380753 Eh    ::
         :: gradient norm              0.003444606377 Eh/a0 ::
         :: HOMO-LUMO gap              1.125981848764 eV    ::
         :: SCC energy               -42.688947424879 Eh    ::
         :: -> dispersion             -0.022436688144 Eh    ::
         :: repulsion energy           2.242178877749 Eh    ::

    * Orbital Energies and Occupations

         #    Occupation            Energy/Eh            Energy/eV
      -------------------------------------------------------------
         1        2.0000           -0.9132929             -24.8520
       ...           ...                  ...                  ...
        25        1.9997           -0.6676171             -18.1668
        26        1.9996           -0.6625627             -18.0292
        27        1.9995           -0.6584512             -17.9174
        28        1.9991           -0.6425307             -17.4841
        29        1.9987           -0.6333625             -17.2347
        30        1.9985           -0.6306632             -17.1612
        31        1.9975           -0.6178496             -16.8125
        32        1.9963           -0.6086539             -16.5623
        33        1.9959           -0.6057773             -16.4840
        34        1.9939           -0.5965008             -16.2316
        35        1.9783           -0.5662238             -15.4077
        36        1.9311           -0.5381460             -14.6437
        37        1.3616           -0.4769825             -12.9794 (HOMO)
        38        0.5439           -0.4356034             -11.8534 (LUMO)
        39        0.1855           -0.4048321             -11.0160
        40        0.0161           -0.3446041              -9.3772
        41        0.0053           -0.3183338              -8.6623
        42        0.0001           -0.2077347              -5.6527
        43        0.0000           -0.1878223              -5.1109
        44        0.0000           -0.1760971              -4.7918
        45        0.0000           -0.1328725              -3.6156
        46        0.0000           -0.1115182              -3.0346
        47        0.0000           -0.0729259              -1.9844
        48                         -0.0297632              -0.8099
       ...                                ...                  ...
        67                         10.2475341             278.8496
      -------------------------------------------------------------
                  HL-Gap            0.0413791 Eh            1.1260 eV

     #   Z          covCN         q      C6AA      α(0)
     1   6 C        3.690    -0.081    22.242     6.749
     2   7 N        2.826     0.029    20.736     6.763
     3   6 C        3.002     0.029    27.339     8.577
     4   7 N        2.801    -0.077    22.726     7.080
     5   6 C        2.986     0.066    26.519     8.447
     6   6 C        2.970     0.149    24.753     8.161
     7   6 C        2.766     0.024    27.453     8.581
     8   8 O        1.707    -0.202    17.361     5.626
     9   7 N        2.738    -0.021    21.657     6.912
    10   6 C        2.869    -0.057    29.400     8.888
    11   6 C        2.736     0.296    21.973     7.675
    12   8 O        0.860    -0.372    21.137     6.164
    13   7 N        2.732    -0.058    22.371     7.025
    14   6 C        3.711    -0.073    22.036     6.708
    15   1 H        0.924     0.104     1.751     2.069
    16   1 H        0.925     0.102     1.765     2.077
    17   1 H        0.925     0.112     1.677     2.025
    18   1 H        0.927     0.117     1.636     2.000
    19   1 H        0.940     0.172     1.250     1.748
    20   1 H        0.926     0.096     1.821     2.110
    21   1 H        0.926     0.129     1.542     1.942
    22   1 H        0.924     0.079     1.987     2.205
    23   1 H        0.924     0.077     2.007     2.216
    24   1 H        0.925     0.130     1.537     1.939
    25   1 H        0.860     0.228     0.973     1.545

Wiberg/Mayer (AO) data.
largest (>0.10) Wiberg bond orders for each atom

     #   Z sym  total        # sym  WBO       # sym  WBO       # sym  WBO
 ---------------------------------------------------------------------------
     1   6 C    3.925 --     2 N    0.988    17 H    0.969    16 H    0.968
                            15 H    0.958
     2   7 N    3.576 --     3 C    1.289     6 C    1.141     1 C    0.988
     3   6 C    3.714 --     2 N    1.289     4 N    1.265    18 H    0.956
     4   7 N    3.507 --     3 C    1.265     5 C    1.151    25 H    0.917
     5   6 C    3.823 --     6 C    1.330     4 N    1.151    13 N    1.132
     6   6 C    3.836 --     5 C    1.330     2 N    1.141     8 O    1.109
     7   6 C    3.286 --     9 N    1.124     8 O    1.010    19 H    0.952
     8   8 O    2.314 --     6 C    1.109     7 C    1.010
     9   7 N    3.571 --    10 C    1.281     7 C    1.124    11 C    0.992
    10   6 C    3.329 --     9 N    1.281    20 H    0.969    21 H    0.957
    11   6 C    3.821 --    12 O    1.636    13 N    1.105     9 N    0.992
    12   8 O    1.906 --    11 C    1.636    13 N    0.117
    13   7 N    3.479 --     5 C    1.132    11 C    1.105    14 C    0.972
                            12 O    0.117
    14   6 C    3.922 --    13 N    0.972    23 H    0.970    22 H    0.970
                            24 H    0.959
    15   1 H    0.981 --     1 C    0.958
    16   1 H    0.985 --     1 C    0.968
    17   1 H    0.986 --     1 C    0.969
    18   1 H    0.985 --     3 C    0.956
    19   1 H    0.970 --     7 C    0.952
    20   1 H    0.988 --    10 C    0.969
    21   1 H    0.980 --    10 C    0.957
    22   1 H    0.987 --    14 C    0.970
    23   1 H    0.988 --    14 C    0.970
    24   1 H    0.981 --    14 C    0.959
    25   1 H    0.948 --     4 N    0.917
 ---------------------------------------------------------------------------

molecular dipole:
                 x           y           z       tot (Debye)
 q only:        2.312      -0.596      -0.227
   full:        2.560      -0.855      -0.229       6.884

           -------------------------------------------------
          | TOTAL ENERGY              -59.764198380753 Eh   |
          | GRADIENT NORM               0.003444606377 Eh/α |
          | HOMO-LUMO GAP               1.125981848764 eV   |
           -------------------------------------------------

 * finished run on 2024/06/05 at 19:59:01.204
