   * xtb version 6.6.1 (8d0f1dd) compiled by 'conda@1efc2f54142f' on 2023-08-01
          program call               : xtb xtbopt.xyz --opt crude --input .xc2 --gfn2

   ID    Z sym.   atoms
    1    6 C      1, 3, 5-7, 10, 11, 14
    2    7 N      2, 4, 9, 13
    3    8 O      8, 12
    4    1 H      15-25
########################################################################
[WARNING] Please study the warnings concerning your input carefully
-1- readin_getIntValue: could not parse ''
########################################################################

          :  Hamiltonian                  GFN2-xTB          :
 * total energy  :   -40.4466794 Eh     change       -0.1001865E-11 Eh
 * total energy  :   -42.1543216 Eh     change       -0.1707642E+01 Eh
 * total energy  :   -42.1664219 Eh     change       -0.1210029E-01 Eh
 * total energy  :   -42.1705175 Eh     change       -0.4095602E-02 Eh
 * total energy  :   -42.1711675 Eh     change       -0.6500198E-03 Eh
 * total energy  :   -42.1715517 Eh     change       -0.3841622E-03 Eh
 * total energy  :   -42.1718686 Eh     change       -0.3169548E-03 Eh
 * total energy  :   -42.1721476 Eh     change       -0.2790144E-03 Eh
 * total energy  :   -42.1723645 Eh     change       -0.2169094E-03 Eh
   *** GEOMETRY OPTIMIZATION CONVERGED AFTER 9 ITERATIONS ***

 final structure:
================
25
 xtb: 6.6.1 (8d0f1dd)
C            3.47453256835320        1.03671862719511       -0.02675042744983
N            2.41714003992236        0.06318986523114       -0.04864360180713
C            2.56298147097124       -1.27397293872789       -0.10249123553248
N            1.33710073519127       -1.84623515538628       -0.07587004589496
C            0.37728935386024       -0.86008378132648        0.00051300197912
C            1.06777490316053        0.34292491354716        0.02150660303448
C           -0.63041631795914        1.95864469617083        0.17133121437483
O            0.66055878498189        1.60111073031987        0.08803258673327
N           -1.75858120176194        1.22069102637557       -0.01431691646260
C           -2.90608284155257        1.92812921630381       -0.20162869783588
C           -1.99958577878150       -0.19407120823474        0.10785543227168
O           -3.14628811860222       -0.57865409163470        0.21329704881717
N           -0.96667503656815       -1.11609727905037        0.05967140069916
C           -1.35636100861659       -2.51962635886985        0.10827043187726
H            3.87631973235044        1.14389229828157        0.98314010799793
H            4.27522118877502        0.72385461977089       -0.69474550092126
H            3.08202209506935        1.99800021702413       -0.35228286095151
H            3.49257534118660       -1.79730150999085       -0.16247657358433
H           -0.74666381984088        3.02382145610051        0.20271761942880
H           -2.85958879165248        2.99489128190034       -0.27186533253595
H           -3.83848396074177        1.40291488748616       -0.23238092552571
H           -0.92431292618056       -3.00456906598843        0.98445002211512
H           -1.04899067893737       -3.02953040905107       -0.80574025387513
H           -2.44152137465595       -2.56289993959450        0.18417507110120
H            1.16046715612878       -2.83750355625203       -0.10459655015393

          :  Hamiltonian                  GFN2-xTB          :
         :: total energy             -42.172364531848 Eh    ::
         :: gradient norm              0.008810897375 Eh/a0 ::
         :: HOMO-LUMO gap              1.148511514852 eV    ::
         :: SCC energy               -42.672135814559 Eh    ::
         :: -> dispersion             -0.022403143812 Eh    ::
         :: repulsion energy           0.499686883144 Eh    ::

    * Orbital Energies and Occupations

         #    Occupation            Energy/Eh            Energy/eV
      -------------------------------------------------------------
         1        2.0000           -0.9168894             -24.9498
       ...           ...                  ...                  ...
        25        1.9997           -0.6655548             -18.1107
        26        1.9997           -0.6605702             -17.9750
        27        1.9995           -0.6507168             -17.7069
        28        1.9993           -0.6410600             -17.4441
        29        1.9989           -0.6320933             -17.2001
        30        1.9988           -0.6294895             -17.1293
        31        1.9979           -0.6158292             -16.7576
        32        1.9969           -0.6065357             -16.5047
        33        1.9965           -0.6035975             -16.4247
        34        1.9949           -0.5947960             -16.1852
        35        1.9804           -0.5627008             -15.3119
        36        1.9414           -0.5362485             -14.5921
        37        1.3474           -0.4703489             -12.7988 (HOMO)
        38        0.5177           -0.4281418             -11.6503 (LUMO)
        39        0.2112           -0.4023898             -10.9496
        40        0.0143           -0.3360134              -9.1434
        41        0.0062           -0.3161197              -8.6021
        42        0.0000           -0.2009139              -5.4671
        43        0.0000           -0.1843523              -5.0165
        44        0.0000           -0.1706329              -4.6432
        45        0.0000           -0.1032356              -2.8092
        46        0.0000           -0.0947587              -2.5785
        47        0.0000           -0.0677137              -1.8426
        48                         -0.0339165              -0.9229
       ...                                ...                  ...
        67                          0.4890629              13.3081
      -------------------------------------------------------------
                  HL-Gap            0.0422070 Eh            1.1485 eV

     #   Z          covCN         q      C6AA      α(0)
     1   6 C        3.690    -0.080    22.225     6.747
     2   7 N        2.824     0.026    20.793     6.772
     3   6 C        2.999     0.026    27.412     8.588
     4   7 N        2.797    -0.079    22.778     7.088
     5   6 C        2.985     0.066    26.523     8.448
     6   6 C        2.986     0.141    24.931     8.191
     7   6 C        2.775     0.079    26.224     8.387
     8   8 O        1.709    -0.163    16.761     5.528
     9   7 N        2.730     0.006    21.159     6.832
    10   6 C        2.854    -0.070    29.734     8.937
    11   6 C        2.735     0.293    22.022     7.683
    12   8 O        0.860    -0.374    21.174     6.169
    13   7 N        2.732    -0.061    22.416     7.032
    14   6 C        3.711    -0.072    22.025     6.707
    15   1 H        0.924     0.102     1.764     2.077
    16   1 H        0.925     0.102     1.770     2.081
    17   1 H        0.925     0.109     1.706     2.042
    18   1 H        0.927     0.115     1.654     2.011
    19   1 H        0.926     0.107     1.721     2.051
    20   1 H        0.927     0.090     1.880     2.144
    21   1 H        0.926     0.128     1.549     1.946
    22   1 H        0.924     0.077     2.010     2.217
    23   1 H        0.924     0.077     2.010     2.217
    24   1 H        0.925     0.129     1.540     1.941
    25   1 H        0.860     0.227     0.978     1.549

Wiberg/Mayer (AO) data.
largest (>0.10) Wiberg bond orders for each atom

     #   Z sym  total        # sym  WBO       # sym  WBO       # sym  WBO
 ---------------------------------------------------------------------------
     1   6 C    3.927 --     2 N    0.989    17 H    0.970    16 H    0.969
                            15 H    0.959
     2   7 N    3.560 --     3 C    1.281     6 C    1.139     1 C    0.989
     3   6 C    3.695 --     2 N    1.281     4 N    1.257    18 H    0.957
     4   7 N    3.494 --     3 C    1.257     5 C    1.150    25 H    0.918
     5   6 C    3.817 --     6 C    1.332     4 N    1.150    13 N    1.129
     6   6 C    3.819 --     5 C    1.332     2 N    1.139     8 O    1.088
     7   6 C    3.408 --     9 N    1.199     8 O    1.073    19 H    0.945
     8   8 O    2.356 --     6 C    1.088     7 C    1.073
     9   7 N    3.602 --    10 C    1.250     7 C    1.199    11 C    0.976
    10   6 C    3.311 --     9 N    1.250    20 H    0.969    21 H    0.958
    11   6 C    3.805 --    12 O    1.634    13 N    1.108     9 N    0.976
    12   8 O    1.903 --    11 C    1.634    13 N    0.119
    13   7 N    3.481 --     5 C    1.129    11 C    1.108    14 C    0.972
                            12 O    0.119
    14   6 C    3.923 --    13 N    0.972    22 H    0.971    23 H    0.970
                            24 H    0.959
    15   1 H    0.981 --     1 C    0.959
    16   1 H    0.986 --     1 C    0.969
    17   1 H    0.986 --     1 C    0.970
    18   1 H    0.986 --     3 C    0.957
    19   1 H    0.986 --     7 C    0.945
    20   1 H    0.990 --    10 C    0.969
    21   1 H    0.981 --    10 C    0.958
    22   1 H    0.989 --    14 C    0.971
    23   1 H    0.989 --    14 C    0.970
    24   1 H    0.981 --    14 C    0.959
    25   1 H    0.948 --     4 N    0.918
 ---------------------------------------------------------------------------

molecular dipole:
                 x           y           z       tot (Debye)
 q only:        2.340      -0.504      -0.160
   full:        2.606      -0.645      -0.178       6.840

           -------------------------------------------------
          | TOTAL ENERGY              -42.172364531848 Eh   |
          | GRADIENT NORM               0.008810897375 Eh/α |
          | HOMO-LUMO GAP               1.148511514852 eV   |
           -------------------------------------------------

 * finished run on 2024/06/05 at 19:59:01.581
