   * xtb version 6.6.1 (8d0f1dd) compiled by 'conda@1efc2f54142f' on 2023-08-01
          program call               : xtb xtbopt.xyz --opt crude --input .xc2 --gfn2

   ID    Z sym.   atoms
    1    6 C      1, 3, 5-7, 10, 11, 14
    2    7 N      2, 4, 9, 13
    3    8 O      8, 12
    4    1 H      15-25
########################################################################
[WARNING] Please study the warnings concerning your input carefully
-1- readin_getIntValue: could not parse ''
########################################################################

          :  Hamiltonian                  GFN2-xTB          :
 * total energy  :   -40.4281820 Eh     change       -0.3907985E-12 Eh
 * total energy  :   -42.1330482 Eh     change       -0.1704866E+01 Eh
 * total energy  :   -42.1520703 Eh     change       -0.1902208E-01 Eh
 * total energy  :   -42.1552529 Eh     change       -0.3182618E-02 Eh
 * total energy  :   -42.1564393 Eh     change       -0.1186434E-02 Eh
 * total energy  :   -42.1569954 Eh     change       -0.5561323E-03 Eh
 * total energy  :   -42.1574650 Eh     change       -0.4695249E-03 Eh
 * total energy  :   -42.1577300 Eh     change       -0.2649942E-03 Eh
 * total energy  :   -42.1579204 Eh     change       -0.1904566E-03 Eh
 * total energy  :   -42.1580436 Eh     change       -0.1231596E-03 Eh
   *** GEOMETRY OPTIMIZATION CONVERGED AFTER 10 ITERATIONS ***

 final structure:
================
25
 xtb: 6.6.1 (8d0f1dd)
C            3.24764650495952        1.22554236316841       -0.00530214039891
N            2.18741944410116        0.30047598848591        0.02429970413018
C            3.47908359471763       -0.24869572652096        0.07421812795696
N            1.17419841995365       -2.19370646807196        0.12664250428139
C            0.35070624766677       -1.22724206682361        0.06629839039531
C            0.90892013303747        0.11766917274913        0.01479698655937
C            0.04262978233337        1.31369977531576       -0.05617096453346
O            0.50881308344089        2.43059751590607       -0.09156651481162
N           -1.30266613086755        1.04511993262467       -0.07839718750338
C           -2.23068146457496        2.16083823614326       -0.14637945156336
C           -1.88204795639902       -0.21965539096559       -0.03168663450830
O           -3.07610237669913       -0.35115878505319       -0.05344104329925
N           -1.02572460817373       -1.31344591844657        0.03892551490262
C           -1.63981991741935       -2.63008730696321        0.08174976867810
H            3.79754968540128       -0.70652711528788        0.99801946514752
H            3.42039383325228        1.74862821549385       -0.94099291017573
H            3.36822643424041        1.85828782212601        0.86780252804090
H            3.80670940605904       -0.78405873775678       -0.81063540834061
H           -1.65871102715530        3.07489434687805       -0.28941920731138
H           -2.92677206017535        2.00890042169176       -0.97155074808354
H           -2.80855639674850        2.22148519347060        0.77728472694107
H           -1.38018967652689       -3.14001721990657        1.01101542289778
H           -1.31438573129897       -3.22738139315116       -0.77162042682892
H           -2.71991463604331       -2.50192277802815        0.03566933235815
H            0.83370692701955       -3.14400153547772        0.16161178296881

          :  Hamiltonian                  GFN2-xTB          :
         :: total energy             -42.158043576791 Eh    ::
         :: gradient norm              0.005817028034 Eh/a0 ::
         :: HOMO-LUMO gap              1.716954913812 eV    ::
         :: SCC energy               -42.687699618498 Eh    ::
         :: -> dispersion             -0.021768925433 Eh    ::
         :: repulsion energy           0.529548131140 Eh    ::

    * Orbital Energies and Occupations

         #    Occupation            Energy/Eh            Energy/eV
      -------------------------------------------------------------
         1        2.0000           -0.8942710             -24.3344
       ...           ...                  ...                  ...
        25        1.9994           -0.6563769             -17.8609
        26        1.9993           -0.6551197             -17.8267
        27        1.9988           -0.6460480             -17.5799
        28        1.9988           -0.6454296             -17.5630
        29        1.9978           -0.6363314             -17.3155
        30        1.9966           -0.6291553             -17.1202
        31        1.9962           -0.6276682             -17.0797
        32        1.9924           -0.6164431             -16.7743
        33        1.9712           -0.5952883             -16.1986
        34        1.9503           -0.5864589             -15.9584
        35        1.9411           -0.5836926             -15.8831
        36        1.8924           -0.5737553             -15.6127
        37        1.8626           -0.5696444             -15.5008 (HOMO)
        38        0.4028           -0.5065475             -13.7839 (LUMO)
        39        0.0006           -0.3995272             -10.8717
        40        0.0003           -0.3888173             -10.5803
        41        0.0000           -0.3011685              -8.1952
        42        0.0000           -0.2764767              -7.5233
        43                         -0.2118722              -5.7653
        44                         -0.1676378              -4.5617
        45                         -0.1357769              -3.6947
        46                         -0.0958109              -2.6071
        47                         -0.0641633              -1.7460
        48                         -0.0493341              -1.3424
       ...                                ...                  ...
        67                          0.5601575              15.2427
      -------------------------------------------------------------
                  HL-Gap            0.0630969 Eh            1.7170 eV

     #   Z          covCN         q      C6AA      α(0)
     1   6 C        3.737    -0.017    20.967     6.534
     2   7 N        2.745     0.103    19.477     6.555
     3   6 C        3.738    -0.021    21.034     6.544
     4   7 N        1.791    -0.288    28.294     7.879
     5   6 C        2.826     0.165    24.442     8.101
     6   6 C        2.899     0.038    27.156     8.544
     7   6 C        2.772     0.268    22.485     7.766
     8   8 O        0.858    -0.338    20.479     6.067
     9   7 N        2.740    -0.066    22.522     7.048
    10   6 C        3.707    -0.063    21.852     6.682
    11   6 C        2.716     0.323    21.513     7.593
    12   8 O        0.860    -0.336    20.442     6.062
    13   7 N        2.741    -0.070    22.597     7.060
    14   6 C        3.703    -0.064    21.890     6.690
    15   1 H        0.926     0.129     1.543     1.943
    16   1 H        0.925     0.130     1.538     1.940
    17   1 H        0.925     0.130     1.532     1.936
    18   1 H        0.925     0.128     1.551     1.948
    19   1 H        0.925     0.118     1.631     1.997
    20   1 H        0.925     0.113     1.668     2.020
    21   1 H        0.924     0.111     1.689     2.032
    22   1 H        0.924     0.093     1.853     2.129
    23   1 H        0.924     0.092     1.857     2.131
    24   1 H        0.925     0.123     1.587     1.970
    25   1 H        0.860     0.201     1.100     1.643

Wiberg/Mayer (AO) data.
largest (>0.10) Wiberg bond orders for each atom

     #   Z sym  total        # sym  WBO       # sym  WBO       # sym  WBO
 ---------------------------------------------------------------------------
     1   6 C    3.885 --     3 C    0.975     2 N    0.967    16 H    0.940
                            17 H    0.940
     2   7 N    3.529 --     6 C    1.504     1 C    0.967     3 C    0.967
     3   6 C    3.886 --     1 C    0.975     2 N    0.967    15 H    0.941
                            18 H    0.940
     4   7 N    2.845 --     5 C    1.677    25 H    0.921    13 N    0.122
     5   6 C    3.947 --     4 N    1.677    13 N    1.123     6 C    1.057
     6   6 C    3.784 --     2 N    1.504     5 C    1.057     7 C    1.002
     7   6 C    3.930 --     8 O    1.683     9 N    1.151     6 C    1.002
     8   8 O    1.972 --     7 C    1.683     9 N    0.148
     9   7 N    3.523 --     7 C    1.151    11 C    1.080    10 C    0.974
                             8 O    0.148    12 O    0.104
    10   6 C    3.882 --     9 N    0.974    19 H    0.964    20 H    0.952
                            21 H    0.948
    11   6 C    3.949 --    12 O    1.696    13 N    1.090     9 N    1.080
    12   8 O    2.014 --    11 C    1.696    13 N    0.113     9 N    0.104
    13   7 N    3.492 --     5 C    1.123    11 C    1.090    14 C    0.978
                             4 N    0.122    12 O    0.113
    14   6 C    3.905 --    13 N    0.978    24 H    0.961    23 H    0.960
                            22 H    0.959
    15   1 H    0.972 --     3 C    0.941
    16   1 H    0.972 --     1 C    0.940
    17   1 H    0.972 --     1 C    0.940
    18   1 H    0.972 --     3 C    0.940
    19   1 H    0.981 --    10 C    0.964
    20   1 H    0.969 --    10 C    0.952
    21   1 H    0.966 --    10 C    0.948
    22   1 H    0.978 --    14 C    0.959
    23   1 H    0.978 --    14 C    0.960
    24   1 H    0.981 --    14 C    0.961
    25   1 H    0.951 --     4 N    0.921
 ---------------------------------------------------------------------------

molecular dipole:
                 x           y           z       tot (Debye)
 q only:        2.115      -0.631       0.045
   full:        1.849      -0.869       0.059       5.195

           -------------------------------------------------
          | TOTAL ENERGY              -42.158043576791 Eh   |
          | GRADIENT NORM               0.005817028034 Eh/α |
          | HOMO-LUMO GAP               1.716954913812 eV   |
           -------------------------------------------------

 * finished run on 2024/06/05 at 20:00:17.705
