   * xtb version 6.6.1 (8d0f1dd) compiled by 'conda@1efc2f54142f' on 2023-08-01
          program call               : xtb struc.xyz --opt loose --input .xc1 --gfn2

   ID    Z sym.   atoms
    1    6 C      1, 3, 5-7, 10, 11, 14
    2    7 N      2, 4, 9, 13
    3    8 O      8, 12
    4    1 H      15-25
constraining bond 6 17 to    3.7133300 Å, actual value:    2.5833586 Å

          :  Hamiltonian                  GFN2-xTB          :
 * total energy  :   -44.5398807 Eh     change       -0.2401990E-09 Eh
 * total energy  :   -48.3632493 Eh     change       -0.3823369E+01 Eh
 * total energy  :   -54.0084822 Eh     change       -0.5645233E+01 Eh
 * total energy  :   -59.3257455 Eh     change       -0.5317263E+01 Eh
 * total energy  :   -58.6854031 Eh     change        0.6403423E+00 Eh
 * total energy  :   -59.4280089 Eh     change       -0.7426058E+00 Eh
 * total energy  :   -59.4594755 Eh     change       -0.3146662E-01 Eh
 * total energy  :   -59.5210061 Eh     change       -0.6153060E-01 Eh
 * total energy  :   -59.5347431 Eh     change       -0.1373702E-01 Eh
 * total energy  :   -59.5679734 Eh     change       -0.3323028E-01 Eh
 * total energy  :   -59.7714244 Eh     change       -0.6165360E-03 Eh
 * total energy  :   -59.7717671 Eh     change       -0.3426541E-03 Eh
 * total energy  :   -59.7720428 Eh     change       -0.2757532E-03 Eh
 * total energy  :   -59.7722662 Eh     change       -0.2233844E-03 Eh
 * total energy  :   -59.7723903 Eh     change       -0.1241222E-03 Eh
 * total energy  :   -59.7724504 Eh     change       -0.6007233E-04 Eh
 * total energy  :   -59.7724753 Eh     change       -0.2491640E-04 Eh
 * total energy  :   -59.7724864 Eh     change       -0.1102544E-04 Eh
 * total energy  :   -59.7724929 Eh     change       -0.6562618E-05 Eh
   *** GEOMETRY OPTIMIZATION CONVERGED AFTER 62 ITERATIONS ***

 final structure:
================
25
 xtb: 6.6.1 (8d0f1dd)
C            3.31492237586078        1.06139974923891       -0.17898984358539
N            2.42147893644556        0.09322054341615       -0.10712972175525
C            2.53212137233016       -1.11664758507591        0.48116206270502
N            1.35732973300070       -1.79987070881578        0.38441901407164
C            0.44243445216480       -1.07299506850004       -0.30073948259176
C            1.07117572856496        0.23155554423642       -0.74258553897444
C            0.21611629328568        1.32090973623720        0.11283927943263
O            0.76131698994837        2.21911828328634        0.69013960363117
N           -1.11956916925397        1.09520495497598       -0.00027610072679
C           -2.02254752033174        2.17263340434585        0.39498465470180
C           -1.73736363416188       -0.11535080584689       -0.34361426966817
O           -2.91859300319679       -0.20304943216337       -0.54692926185248
N           -0.89888837598180       -1.23880024917192       -0.33783835767480
C           -1.50933646345935       -2.55506499961208       -0.29312079176072
H            3.06158612173000        1.97989140264106       -0.67012342318663
H            4.27438601914181        0.92956825848875        0.28340143061453
H            1.06774762520643        0.34822040782021       -1.15066634427076
H            3.41113743105182       -1.48700467197052        0.96406030824719
H           -1.49851339268302        3.12098681800198        0.30328573874918
H           -2.89400141759914        2.14973032163546       -0.25724560393767
H           -2.34772970070359        2.03804128757405        1.42728690286786
H           -1.46624142695819       -2.96980694709082        0.71598384845310
H           -1.00924754941700       -3.22276965722504       -0.99304256862759
H           -2.55441793273885       -2.44349750879852       -0.58098121422604
H            1.20512802185309       -2.71738453602722        0.77689129726517

          :  Hamiltonian                  GFN2-xTB          :
         :: total energy             -59.772492925840 Eh    ::
         :: gradient norm              0.003197441262 Eh/a0 ::
         :: HOMO-LUMO gap              1.591683943178 eV    ::
         :: SCC energy               -42.710920129103 Eh    ::
         :: -> dispersion             -0.023108253339 Eh    ::
         :: repulsion energy           2.251962928998 Eh    ::

    * Orbital Energies and Occupations

         #    Occupation            Energy/Eh            Energy/eV
      -------------------------------------------------------------
         1        2.0000           -0.9106406             -24.7798
       ...           ...                  ...                  ...
        25        1.9994           -0.6776374             -18.4395
        26        1.9993           -0.6725431             -18.3008
        27        1.9991           -0.6660644             -18.1245
        28        1.9989           -0.6608953             -17.9839
        29        1.9974           -0.6410174             -17.4430
        30        1.9965           -0.6333501             -17.2343
        31        1.9957           -0.6285195             -17.1029
        32        1.9915           -0.6125466             -16.6682
        33        1.9890           -0.6062918             -16.4980
        34        1.9749           -0.5866384             -15.9632
        35        1.9663           -0.5795258             -15.7697
        36        1.9542           -0.5720624             -15.5666
        37        1.5552           -0.5126603             -13.9502 (HOMO)
        38        0.4591           -0.4541670             -12.3585 (LUMO)
        39        0.0839           -0.4086249             -11.1192
        40        0.0352           -0.3874142             -10.5421
        41        0.0062           -0.3459014              -9.4125
        42        0.0001           -0.2385812              -6.4921
        43        0.0000           -0.2005621              -5.4576
        44        0.0000           -0.1965265              -5.3478
        45        0.0000           -0.1593091              -4.3350
        46        0.0000           -0.1310125              -3.5650
        47        0.0000           -0.0898823              -2.4458
        48                         -0.0656499              -1.7864
       ...                                ...                  ...
        67                         10.4447324             284.2156
      -------------------------------------------------------------
                  HL-Gap            0.0584933 Eh            1.5917 eV

     #   Z          covCN         q      C6AA      α(0)
     1   6 C        2.785    -0.065    29.610     8.913
     2   7 N        2.781     0.081    19.834     6.614
     3   6 C        2.907     0.015    27.685     8.628
     4   7 N        2.726    -0.059    22.391     7.028
     5   6 C        2.971     0.074    26.335     8.418
     6   6 C        3.830    -0.060    21.636     6.618
     7   6 C        2.756     0.257    22.670     7.797
     8   8 O        0.857    -0.322    20.180     6.023
     9   7 N        2.734    -0.082    22.843     7.099
    10   6 C        3.708    -0.060    21.811     6.676
    11   6 C        2.722     0.309    21.755     7.635
    12   8 O        0.859    -0.342    20.557     6.079
    13   7 N        2.734    -0.059    22.373     7.025
    14   6 C        3.697    -0.072    22.045     6.716
    15   1 H        0.926     0.119     1.622     1.992
    16   1 H        0.926     0.109     1.704     2.041
    17   1 H        0.940     0.189     1.155     1.680
    18   1 H        0.927     0.117     1.637     2.001
    19   1 H        0.925     0.106     1.729     2.056
    20   1 H        0.925     0.117     1.635     1.999
    21   1 H        0.924     0.099     1.797     2.096
    22   1 H        0.924     0.085     1.926     2.170
    23   1 H        0.925     0.090     1.883     2.146
    24   1 H        0.925     0.128     1.553     1.949
    25   1 H        0.860     0.227     0.978     1.549

Wiberg/Mayer (AO) data.
largest (>0.10) Wiberg bond orders for each atom

     #   Z sym  total        # sym  WBO       # sym  WBO       # sym  WBO
 ---------------------------------------------------------------------------
     1   6 C    3.517 --     2 N    1.387    15 H    0.963    16 H    0.961
                             3 C    0.115
     2   7 N    3.666 --     1 C    1.387     3 C    1.240     6 C    0.957
     3   6 C    3.630 --     2 N    1.240     4 N    1.203    18 H    0.953
                             1 C    0.115
     4   7 N    3.494 --     5 C    1.224     3 C    1.203    25 H    0.918
     5   6 C    3.638 --     4 N    1.224    13 N    1.197     6 C    1.012
     6   6 C    3.905 --     5 C    1.012     2 N    0.957    17 H    0.925
                             7 C    0.796
     7   6 C    3.839 --     8 O    1.750     9 N    1.186     6 C    0.796
     8   8 O    2.061 --     7 C    1.750     9 N    0.143
     9   7 N    3.516 --     7 C    1.186    11 C    1.058    10 C    0.958
                             8 O    0.143    12 O    0.104
    10   6 C    3.891 --    19 H    0.969    21 H    0.959    20 H    0.959
                             9 N    0.958
    11   6 C    3.880 --    12 O    1.688     9 N    1.058    13 N    1.052
    12   8 O    1.979 --    11 C    1.688    13 N    0.109     9 N    0.104
    13   7 N    3.471 --     5 C    1.197    11 C    1.052    14 C    0.969
                            12 O    0.109
    14   6 C    3.910 --    23 H    0.971    13 N    0.969    22 H    0.964
                            24 H    0.960
    15   1 H    0.984 --     1 C    0.963
    16   1 H    0.985 --     1 C    0.961
    17   1 H    0.957 --     6 C    0.925
    18   1 H    0.985 --     3 C    0.953
    19   1 H    0.982 --    10 C    0.969
    20   1 H    0.977 --    10 C    0.959
    21   1 H    0.977 --    10 C    0.959
    22   1 H    0.983 --    14 C    0.964
    23   1 H    0.984 --    14 C    0.971
    24   1 H    0.980 --    14 C    0.960
    25   1 H    0.948 --     4 N    0.918
 ---------------------------------------------------------------------------

molecular dipole:
                 x           y           z       tot (Debye)
 q only:        1.861      -1.567      -0.041
   full:        2.113      -1.882       0.051       7.193

           -------------------------------------------------
          | TOTAL ENERGY              -59.772492925840 Eh   |
          | GRADIENT NORM               0.003197441262 Eh/α |
          | HOMO-LUMO GAP               1.591683943178 eV   |
           -------------------------------------------------

 * finished run on 2024/06/05 at 19:58:59.692
