   * xtb version 6.6.1 (8d0f1dd) compiled by 'conda@1efc2f54142f' on 2023-08-01
          program call               : xtb xtbopt.xyz --opt crude --input .xc2 --gfn2

   ID    Z sym.   atoms
    1    6 C      1, 3, 5-7, 10, 11, 14
    2    7 N      2, 4, 9, 13
    3    8 O      8, 12
    4    1 H      15-25
########################################################################
[WARNING] Please study the warnings concerning your input carefully
-1- readin_getIntValue: could not parse ''
########################################################################

          :  Hamiltonian                  GFN2-xTB          :
 * total energy  :   -40.4587971 Eh     change       -0.4547474E-12 Eh
 * total energy  :   -42.1720824 Eh     change       -0.1713285E+01 Eh
 * total energy  :   -42.1891969 Eh     change       -0.1711447E-01 Eh
 * total energy  :   -42.1933184 Eh     change       -0.4121507E-02 Eh
 * total energy  :   -42.1940676 Eh     change       -0.7491370E-03 Eh
 * total energy  :   -42.1946748 Eh     change       -0.6072332E-03 Eh
 * total energy  :   -42.1952783 Eh     change       -0.6035171E-03 Eh
 * total energy  :   -42.1958213 Eh     change       -0.5430162E-03 Eh
 * total energy  :   -42.1961269 Eh     change       -0.3056147E-03 Eh
   *** GEOMETRY OPTIMIZATION CONVERGED AFTER 9 ITERATIONS ***

 final structure:
================
25
 xtb: 6.6.1 (8d0f1dd)
C            3.30935838779988        1.05772419436861       -0.08655896539444
N            2.41545421634610        0.08509460961468       -0.05962178156284
C            2.54714360108076       -1.16039336146723        0.44864162396150
N            1.37428395527235       -1.84720840706157        0.33772796534340
C            0.44298198906761       -1.08165505211800       -0.27653644545350
C            1.06525925428085        0.22608750792734       -0.58477986534195
C            0.22168397002510        1.33274144880513        0.12186005504770
O            0.72437633105305        2.29057698735926        0.64832980546305
N           -1.12338623926945        1.09144663046658        0.03384961038960
C           -2.03021169815586        2.18551425984733        0.36406276384959
C           -1.73650607091312       -0.12022103405410       -0.28979532106120
O           -2.92095628301584       -0.21966759310358       -0.47862593504068
N           -0.89664381176483       -1.24486143504372       -0.29451051957220
C           -1.50776945141772       -2.56014416572956       -0.24202695774228
H            3.04359489589630        2.01130033462071       -0.49666072988193
H            4.27484007098618        0.89684339537656        0.35412751409598
H            1.06686264737438        0.51067674838628       -1.64660351340282
H            3.44466502231319       -1.55535944608005        0.87410472684779
H           -1.49421744026518        3.12622042338578        0.26411925256678
H           -2.88026208702967        2.15032747824231       -0.31632418026878
H           -2.39425323963092        2.08452621691496        1.38718936811289
H           -1.47640911843605       -2.96440804763625        0.77179417543684
H           -1.00117711329508       -3.23508168094885       -0.92972424027144
H           -2.55023629163808       -2.45032003578916       -0.54004635138182
H            1.24195601743488       -2.79152143468318        0.66717956316161

          :  Hamiltonian                  GFN2-xTB          :
         :: total energy             -42.196126950282 Eh    ::
         :: gradient norm              0.008849878325 Eh/a0 ::
         :: HOMO-LUMO gap              1.573151663500 eV    ::
         :: SCC energy               -42.704381450469 Eh    ::
         :: -> dispersion             -0.023037625353 Eh    ::
         :: repulsion energy           0.508088347439 Eh    ::

    * Orbital Energies and Occupations

         #    Occupation            Energy/Eh            Energy/eV
      -------------------------------------------------------------
         1        2.0000           -0.9029150             -24.5696
       ...           ...                  ...                  ...
        25        1.9995           -0.6760480             -18.3962
        26        1.9994           -0.6723327             -18.2951
        27        1.9991           -0.6638651             -18.0647
        28        1.9988           -0.6580482             -17.9064
        29        1.9972           -0.6375594             -17.3489
        30        1.9966           -0.6329109             -17.2224
        31        1.9959           -0.6282514             -17.0956
        32        1.9910           -0.6095172             -16.5858
        33        1.9881           -0.6028260             -16.4037
        34        1.9754           -0.5854252             -15.9302
        35        1.9637           -0.5760481             -15.6751
        36        1.9523           -0.5694300             -15.4950
        37        1.5529           -0.5108211             -13.9002 (HOMO)
        38        0.4668           -0.4530089             -12.3270 (LUMO)
        39        0.0832           -0.4067410             -11.0680
        40        0.0364           -0.3865057             -10.5174
        41        0.0056           -0.3417676              -9.3000
        42        0.0000           -0.2097574              -5.7078
        43        0.0000           -0.1916661              -5.2155
        44        0.0000           -0.1561481              -4.2490
        45        0.0000           -0.1473819              -4.0105
        46        0.0000           -0.1026265              -2.7926
        47                         -0.0792187              -2.1557
        48                         -0.0577278              -1.5709
       ...                                ...                  ...
        67                          0.5176559              14.0861
      -------------------------------------------------------------
                  HL-Gap            0.0578123 Eh            1.5732 eV

     #   Z          covCN         q      C6AA      α(0)
     1   6 C        2.787    -0.070    29.714     8.929
     2   7 N        2.781     0.098    19.543     6.566
     3   6 C        2.943     0.012    27.739     8.638
     4   7 N        2.738    -0.056    22.331     7.019
     5   6 C        2.971     0.079    26.234     8.401
     6   6 C        3.892    -0.005    20.607     6.453
     7   6 C        2.763     0.261    22.600     7.785
     8   8 O        0.857    -0.330    20.325     6.044
     9   7 N        2.736    -0.083    22.857     7.101
    10   6 C        3.707    -0.061    21.818     6.677
    11   6 C        2.723     0.308    21.771     7.638
    12   8 O        0.859    -0.346    20.625     6.089
    13   7 N        2.735    -0.054    22.281     7.011
    14   6 C        3.698    -0.072    22.050     6.716
    15   1 H        0.926     0.120     1.611     1.985
    16   1 H        0.926     0.109     1.701     2.040
    17   1 H        0.923     0.118     1.633     1.998
    18   1 H        0.927     0.117     1.640     2.003
    19   1 H        0.925     0.108     1.715     2.048
    20   1 H        0.925     0.115     1.653     2.011
    21   1 H        0.924     0.100     1.785     2.089
    22   1 H        0.924     0.087     1.909     2.160
    23   1 H        0.925     0.088     1.896     2.153
    24   1 H        0.925     0.128     1.547     1.945
    25   1 H        0.860     0.226     0.983     1.553

Wiberg/Mayer (AO) data.
largest (>0.10) Wiberg bond orders for each atom

     #   Z sym  total        # sym  WBO       # sym  WBO       # sym  WBO
 ---------------------------------------------------------------------------
     1   6 C    3.505 --     2 N    1.379    16 H    0.963    15 H    0.963
                             3 C    0.117
     2   7 N    3.669 --     1 C    1.379     3 C    1.234     6 C    0.977
     3   6 C    3.624 --     2 N    1.234     4 N    1.199    18 H    0.955
                             1 C    0.117
     4   7 N    3.495 --     5 C    1.225     3 C    1.199    25 H    0.920
     5   6 C    3.637 --     4 N    1.225    13 N    1.206     6 C    1.017
     6   6 C    3.953 --     5 C    1.017     2 N    0.977    17 H    0.913
                             7 C    0.867
     7   6 C    3.857 --     8 O    1.734     9 N    1.166     6 C    0.867
     8   8 O    2.033 --     7 C    1.734     9 N    0.143
     9   7 N    3.516 --     7 C    1.166    11 C    1.073    10 C    0.962
                             8 O    0.143    12 O    0.107
    10   6 C    3.891 --    19 H    0.967     9 N    0.962    20 H    0.959
                            21 H    0.958
    11   6 C    3.884 --    12 O    1.681     9 N    1.073    13 N    1.047
    12   8 O    1.974 --    11 C    1.681     9 N    0.107    13 N    0.107
    13   7 N    3.475 --     5 C    1.206    11 C    1.047    14 C    0.971
                            12 O    0.107
    14   6 C    3.912 --    23 H    0.971    13 N    0.971    22 H    0.963
                            24 H    0.960
    15   1 H    0.984 --     1 C    0.963
    16   1 H    0.985 --     1 C    0.963
    17   1 H    0.955 --     6 C    0.913
    18   1 H    0.985 --     3 C    0.955
    19   1 H    0.982 --    10 C    0.967
    20   1 H    0.977 --    10 C    0.959
    21   1 H    0.976 --    10 C    0.958
    22   1 H    0.982 --    14 C    0.963
    23   1 H    0.985 --    14 C    0.971
    24   1 H    0.979 --    14 C    0.960
    25   1 H    0.949 --     4 N    0.920
 ---------------------------------------------------------------------------

molecular dipole:
                 x           y           z       tot (Debye)
 q only:        1.937      -1.662      -0.086
   full:        2.188      -1.985      -0.086       7.512

           -------------------------------------------------
          | TOTAL ENERGY              -42.196126950282 Eh   |
          | GRADIENT NORM               0.008849878325 Eh/α |
          | HOMO-LUMO GAP               1.573151663500 eV   |
           -------------------------------------------------

 * finished run on 2024/06/05 at 19:59:00.059
