   * xtb version 6.6.1 (8d0f1dd) compiled by 'conda@1efc2f54142f' on 2023-08-01
          program call               : xtb struc.xyz --opt loose --input .xc1 --gfn2

   ID    Z sym.   atoms
    1    6 C      1, 3, 5-7, 10, 11, 14
    2    7 N      2, 4, 9, 13
    3    8 O      8, 12
    4    1 H      15-25
constraining bond 1 4 to    5.9200000 Å, actual value:    3.5856227 Å

          :  Hamiltonian                  GFN2-xTB          :
 * total energy  :    -3.3281358 Eh     change       -0.6650680E-10 Eh
 * total energy  :   -22.3705011 Eh     change       -0.1904237E+02 Eh
 * total energy  :   -33.2956294 Eh     change       -0.1092513E+02 Eh
 * total energy  :   -39.5554137 Eh     change       -0.6259784E+01 Eh
 * total energy  :   -41.5722062 Eh     change       -0.2016793E+01 Eh
 * total energy  :   -41.7257231 Eh     change       -0.1535168E+00 Eh
 * total energy  :   -41.7366255 Eh     change       -0.1090240E-01 Eh
 * total energy  :   -41.7751498 Eh     change       -0.3852433E-01 Eh
 * total energy  :   -41.8024769 Eh     change       -0.2732707E-01 Eh
 * total energy  :   -41.8171241 Eh     change       -0.1464721E-01 Eh
 * total energy  :   -42.1707694 Eh     change       -0.1517210E-03 Eh
 * total energy  :   -42.1709914 Eh     change       -0.2219299E-03 Eh
 * total energy  :   -42.1710877 Eh     change       -0.9629198E-04 Eh
 * total energy  :   -42.1711606 Eh     change       -0.7297226E-04 Eh
 * total energy  :   -42.1712364 Eh     change       -0.7580055E-04 Eh
 * total energy  :   -42.1713015 Eh     change       -0.6503928E-04 Eh
 * total energy  :   -42.1713610 Eh     change       -0.5947367E-04 Eh
 * total energy  :   -42.1713760 Eh     change       -0.1500891E-04 Eh
 * total energy  :   -42.1714064 Eh     change       -0.3048377E-04 Eh
   *** GEOMETRY OPTIMIZATION CONVERGED AFTER 82 ITERATIONS ***

 final structure:
================
25
 xtb: 6.6.1 (8d0f1dd)
C            3.50763577090212        1.75006140943034        0.49978137275153
N            2.25636997884361       -0.52802476667460        0.01115527222243
C            2.53172488999739        0.83386222222735       -0.30398485312474
N            0.27537470669107       -3.18053287351889       -0.00087722992787
C            0.06844164153402       -1.92317531432317        0.05200964003587
C            0.96613935948083       -0.72844897753624       -0.00621082804855
C            0.32903281837714        0.55834057600658       -0.20507417575978
O            1.22744498334215        1.48605100502190       -0.38699477580798
N           -0.96858813305973        0.76386227211850       -0.18305299105388
C           -1.56697860840128        2.07405444522680       -0.35034371899371
C           -1.85579761951051       -0.33256986589870        0.03329297916659
O           -3.03272139905012       -0.12345378048416        0.10311500156488
N           -1.27884488878867       -1.57259267474070        0.13138805082407
C           -2.20111924421210       -2.69112496452795        0.26608803533126
H            4.49122232490125        1.29185194430589        0.50731226948837
H            3.54174539003007        2.70998900751414       -0.00304546664055
H            3.15283684050123        1.87238572597353        1.52005903279795
H            2.94364786589770        0.81654610087247       -1.33166848311984
H           -0.78206250013520        2.82232753980722       -0.41423644471527
H           -2.17538742773267        2.08466967382684       -1.25538615512690
H           -2.22272267834743        2.27773765323570        0.49701558300279
H           -1.89838189883962       -3.30961949148948        1.11007671855407
H           -2.16874246055024       -3.30666671222445       -0.63361675025575
H           -3.20632864313150       -2.30439007328727        0.41677423683928
H            1.22649044536105       -3.52290153925193       -0.04240470209685

          :  Hamiltonian                  GFN2-xTB          :
         :: total energy             -42.171406445615 Eh    ::
         :: gradient norm              0.002676857620 Eh/a0 ::
         :: HOMO-LUMO gap              1.686492937523 eV    ::
         :: SCC energy               -42.663179938478 Eh    ::
         :: -> dispersion             -0.021473999219 Eh    ::
         :: repulsion energy           0.491607386250 Eh    ::

    * Orbital Energies and Occupations

         #    Occupation            Energy/Eh            Energy/eV
      -------------------------------------------------------------
         1        2.0000           -0.9474200             -25.7806
       ...           ...                  ...                  ...
        25        1.9997           -0.6699064             -18.2291
        26        1.9997           -0.6665175             -18.1369
        27        1.9990           -0.6479857             -17.6326
        28        1.9986           -0.6424471             -17.4819
        29        1.9965           -0.6282089             -17.0944
        30        1.9962           -0.6267760             -17.0554
        31        1.9947           -0.6214389             -16.9102
        32        1.9939           -0.6193045             -16.8521
        33        1.9825           -0.6025521             -16.3963
        34        1.9795           -0.6000415             -16.3280
        35        1.9618           -0.5900132             -16.0551
        36        1.9082           -0.5757032             -15.6657
        37        1.8310           -0.5653774             -15.3847 (HOMO)
        38        0.3555           -0.5034000             -13.6982 (LUMO)
        39        0.0032           -0.4256219             -11.5818
        40        0.0005           -0.3966945             -10.7946
        41        0.0000           -0.3150178              -8.5721
        42                         -0.2302303              -6.2649
        43                         -0.1905703              -5.1857
        44                         -0.1783025              -4.8519
        45                         -0.1362876              -3.7086
        46                         -0.1057711              -2.8782
        47                         -0.0944108              -2.5690
        48                         -0.0625682              -1.7026
       ...                                ...                  ...
        67                          0.5237965              14.2532
      -------------------------------------------------------------
                  HL-Gap            0.0619775 Eh            1.6865 eV

     #   Z          covCN         q      C6AA      α(0)
     1   6 C        3.746    -0.125    22.976     6.837
     2   7 N        1.880    -0.185    25.815     7.532
     3   6 C        3.870     0.173    17.803     6.000
     4   7 N        1.797    -0.236    26.997     7.697
     5   6 C        2.820     0.160    24.535     8.116
     6   6 C        2.990     0.056    26.728     8.481
     7   6 C        2.960     0.226    23.266     7.912
     8   8 O        1.706    -0.193    17.218     5.602
     9   7 N        2.735    -0.035    21.917     6.953
    10   6 C        3.700    -0.068    21.965     6.702
    11   6 C        2.727     0.318    21.598     7.608
    12   8 O        0.859    -0.325    20.237     6.031
    13   7 N        2.763    -0.041    22.037     6.972
    14   6 C        3.715    -0.079    22.132     6.721
    15   1 H        0.925     0.109     1.707     2.043
    16   1 H        0.925     0.103     1.756     2.073
    17   1 H        0.925     0.096     1.825     2.113
    18   1 H        0.922     0.131     1.529     1.934
    19   1 H        0.925     0.106     1.732     2.058
    20   1 H        0.924     0.117     1.636     2.000
    21   1 H        0.924     0.122     1.600     1.978
    22   1 H        0.925     0.117     1.636     2.000
    23   1 H        0.924     0.118     1.632     1.998
    24   1 H        0.925     0.124     1.578     1.964
    25   1 H        0.860     0.210     1.055     1.609

Wiberg/Mayer (AO) data.
largest (>0.10) Wiberg bond orders for each atom

     #   Z sym  total        # sym  WBO       # sym  WBO       # sym  WBO
 ---------------------------------------------------------------------------
     1   6 C    3.921 --    17 H    0.974    16 H    0.972    15 H    0.969
                             3 C    0.951
     2   7 N    2.866 --     6 C    1.592     3 C    1.083
     3   6 C    3.877 --     2 N    1.083     1 C    0.951     8 O    0.880
                            18 H    0.880
     4   7 N    2.892 --     5 C    1.728    25 H    0.922
     5   6 C    3.943 --     4 N    1.728    13 N    1.115     6 C    1.012
     6   6 C    3.882 --     2 N    1.592     7 C    1.101     5 C    1.012
     7   6 C    3.844 --     9 N    1.343     8 O    1.239     6 C    1.101
     8   8 O    2.357 --     7 C    1.239     3 C    0.880
     9   7 N    3.588 --     7 C    1.343    11 C    0.985    10 C    0.966
    10   6 C    3.904 --    19 H    0.973     9 N    0.966    21 H    0.955
                            20 H    0.954
    11   6 C    3.944 --    12 O    1.720    13 N    1.153     9 N    0.985
    12   8 O    2.043 --    11 C    1.720    13 N    0.138
    13   7 N    3.540 --    11 C    1.153     5 C    1.115    14 C    0.970
                            12 O    0.138
    14   6 C    3.879 --    13 N    0.970    24 H    0.960    22 H    0.952
                            23 H    0.946
    15   1 H    0.984 --     1 C    0.969
    16   1 H    0.986 --     1 C    0.972
    17   1 H    0.985 --     1 C    0.974
    18   1 H    0.947 --     3 C    0.880
    19   1 H    0.987 --    10 C    0.973
    20   1 H    0.978 --    10 C    0.954
    21   1 H    0.977 --    10 C    0.955
    22   1 H    0.972 --    14 C    0.952
    23   1 H    0.967 --    14 C    0.946
    24   1 H    0.978 --    14 C    0.960
    25   1 H    0.946 --     4 N    0.922
 ---------------------------------------------------------------------------

molecular dipole:
                 x           y           z       tot (Debye)
 q only:        0.932       0.053      -0.200
   full:        1.173       0.452      -0.357       3.321

           -------------------------------------------------
          | TOTAL ENERGY              -42.171406445615 Eh   |
          | GRADIENT NORM               0.002676857620 Eh/α |
          | HOMO-LUMO GAP               1.686492937523 eV   |
           -------------------------------------------------

 * finished run on 2024/06/05 at 20:00:07.571
