   * xtb version 6.6.1 (8d0f1dd) compiled by 'conda@1efc2f54142f' on 2023-08-01
          program call               : xtb xtbopt.xyz --opt crude --input .xc2 --gfn2

   ID    Z sym.   atoms
    1    6 C      1, 3, 5-7, 10, 11, 14
    2    7 N      2, 4, 9, 13
    3    8 O      8, 12
    4    1 H      15-25
########################################################################
[WARNING] Please study the warnings concerning your input carefully
-1- readin_getIntValue: could not parse ''
########################################################################

          :  Hamiltonian                  GFN2-xTB          :
 * total energy  :   -42.1714780 Eh     change       -0.1918465E-12 Eh
 * total energy  :   -42.1766930 Eh     change       -0.5215003E-02 Eh
 * total energy  :   -42.1798566 Eh     change       -0.3163642E-02 Eh
 * total energy  :   -42.1812645 Eh     change       -0.1407915E-02 Eh
 * total energy  :   -42.1821004 Eh     change       -0.8358315E-03 Eh
 * total energy  :   -42.1824795 Eh     change       -0.3791569E-03 Eh
   *** GEOMETRY OPTIMIZATION CONVERGED AFTER 6 ITERATIONS ***

 final structure:
================
25
 xtb: 6.6.1 (8d0f1dd)
C            3.43090307276143        1.47927452658183        0.55260623608630
N            2.20689739536050       -0.51339673463758       -0.23179393152581
C            2.49981599812932        0.84090942693336       -0.47637366346528
N            0.49164634919976       -3.00934200926277        0.18970914539341
C            0.09171858294554       -1.81104697048583        0.08718638989820
C            0.92348458579334       -0.63247074371888       -0.11966954186506
C            0.29991550153530        0.65295618875372       -0.28507237384078
O            1.21452501435293        1.55288522827186       -0.51355431444382
N           -1.00209018426805        0.82310759251579       -0.20739742764683
C           -1.64158465224403        2.11575807095982       -0.36367029508493
C           -1.86015492799062       -0.30579918965371        0.02024147139616
O           -3.04021326903579       -0.12537394246128        0.09173149943253
N           -1.26094471710304       -1.53894486657498        0.14097146141750
C           -2.13429492034754       -2.69054322312683        0.29903757604158
H            4.37265279865200        0.93768613200567        0.55492282105524
H            3.60236916808209        2.51781675255097        0.27431119215771
H            2.98994599837889        1.43261519789157        1.54813647409606
H            2.95196714752076        0.94136792603483       -1.47758717654915
H           -0.87624884079649        2.88458814810129       -0.43064833355645
H           -2.25604565213445        2.11649397906212       -1.26498813754073
H           -2.29656821374175        2.29989173837193        0.48848399289920
H           -1.80343369674498       -3.27759215515760        1.15533181753662
H           -2.06972392340220       -3.32036440858661       -0.58931051296465
H           -3.15680055205357       -2.34839779057932        0.43926796865977
H            1.48269345125097       -3.20384033217991        0.14929928032059

          :  Hamiltonian                  GFN2-xTB          :
         :: total energy             -42.182479535686 Eh    ::
         :: gradient norm              0.006387512168 Eh/a0 ::
         :: HOMO-LUMO gap              1.620013085165 eV    ::
         :: SCC energy               -42.690437405411 Eh    ::
         :: -> dispersion             -0.021698135830 Eh    ::
         :: repulsion energy           0.507840860254 Eh    ::

    * Orbital Energies and Occupations

         #    Occupation            Energy/Eh            Energy/eV
      -------------------------------------------------------------
         1        2.0000           -0.9474278             -25.7808
       ...           ...                  ...                  ...
        25        1.9998           -0.6728046             -18.3079
        26        1.9997           -0.6680360             -18.1782
        27        1.9991           -0.6503050             -17.6957
        28        1.9986           -0.6432193             -17.5029
        29        1.9969           -0.6305632             -17.1585
        30        1.9954           -0.6246061             -16.9964
        31        1.9949           -0.6228267             -16.9480
        32        1.9937           -0.6195732             -16.8594
        33        1.9848           -0.6055240             -16.4771
        34        1.9825           -0.6031847             -16.4135
        35        1.9697           -0.5944526             -16.1759
        36        1.9121           -0.5770982             -15.7036
        37        1.8088           -0.5639107             -15.3448 (HOMO)
        38        0.3610           -0.5043763             -13.7248 (LUMO)
        39        0.0029           -0.4250444             -11.5660
        40        0.0005           -0.3968219             -10.7981
        41        0.0000           -0.3068079              -8.3487
        42                         -0.2344413              -6.3795
        43                         -0.1931185              -5.2550
        44                         -0.1568056              -4.2669
        45                         -0.1113907              -3.0311
        46                         -0.0995610              -2.7092
        47                         -0.0610546              -1.6614
        48                         -0.0573444              -1.5604
       ...                                ...                  ...
        67                          0.5325677              14.4919
      -------------------------------------------------------------
                  HL-Gap            0.0595344 Eh            1.6200 eV

     #   Z          covCN         q      C6AA      α(0)
     1   6 C        3.751    -0.126    22.977     6.836
     2   7 N        1.876    -0.191    25.959     7.553
     3   6 C        3.929     0.178    17.704     5.980
     4   7 N        1.787    -0.236    27.009     7.697
     5   6 C        2.827     0.162    24.494     8.110
     6   6 C        3.052     0.058    26.653     8.467
     7   6 C        2.956     0.227    23.246     7.908
     8   8 O        1.707    -0.194    17.232     5.605
     9   7 N        2.735    -0.036    21.939     6.957
    10   6 C        3.699    -0.067    21.957     6.702
    11   6 C        2.721     0.317    21.606     7.609
    12   8 O        0.859    -0.321    20.157     6.019
    13   7 N        2.752    -0.038    21.986     6.964
    14   6 C        3.710    -0.077    22.113     6.720
    15   1 H        0.925     0.110     1.694     2.035
    16   1 H        0.925     0.102     1.769     2.080
    17   1 H        0.925     0.088     1.895     2.153
    18   1 H        0.923     0.127     1.558     1.952
    19   1 H        0.925     0.106     1.733     2.059
    20   1 H        0.924     0.117     1.637     2.001
    21   1 H        0.924     0.121     1.603     1.980
    22   1 H        0.925     0.118     1.627     1.995
    23   1 H        0.924     0.114     1.666     2.019
    24   1 H        0.925     0.123     1.590     1.972
    25   1 H        0.860     0.217     1.024     1.585

Wiberg/Mayer (AO) data.
largest (>0.10) Wiberg bond orders for each atom

     #   Z sym  total        # sym  WBO       # sym  WBO       # sym  WBO
 ---------------------------------------------------------------------------
     1   6 C    3.920 --    17 H    0.975    16 H    0.971    15 H    0.966
                             3 C    0.953
     2   7 N    2.881 --     6 C    1.592     3 C    1.090
     3   6 C    3.884 --     2 N    1.090     1 C    0.953    18 H    0.895
                             8 O    0.868
     4   7 N    2.867 --     5 C    1.710    25 H    0.919
     5   6 C    3.947 --     4 N    1.710    13 N    1.125     6 C    1.030
     6   6 C    3.885 --     2 N    1.592     7 C    1.099     5 C    1.030
     7   6 C    3.843 --     9 N    1.344     8 O    1.244     6 C    1.099
     8   8 O    2.353 --     7 C    1.244     3 C    0.868
     9   7 N    3.585 --     7 C    1.344    11 C    0.978    10 C    0.967
    10   6 C    3.905 --    19 H    0.973     9 N    0.967    21 H    0.956
                            20 H    0.954
    11   6 C    3.943 --    12 O    1.731    13 N    1.147     9 N    0.978
    12   8 O    2.057 --    11 C    1.731    13 N    0.137
    13   7 N    3.544 --    11 C    1.147     5 C    1.125    14 C    0.969
                            12 O    0.137
    14   6 C    3.883 --    13 N    0.969    24 H    0.964    22 H    0.953
                            23 H    0.950
    15   1 H    0.984 --     1 C    0.966
    16   1 H    0.985 --     1 C    0.971
    17   1 H    0.988 --     1 C    0.975
    18   1 H    0.955 --     3 C    0.895
    19   1 H    0.987 --    10 C    0.973
    20   1 H    0.979 --    10 C    0.954
    21   1 H    0.978 --    10 C    0.956
    22   1 H    0.972 --    14 C    0.953
    23   1 H    0.970 --    14 C    0.950
    24   1 H    0.980 --    14 C    0.964
    25   1 H    0.943 --     4 N    0.919
 ---------------------------------------------------------------------------

molecular dipole:
                 x           y           z       tot (Debye)
 q only:        0.867       0.034      -0.137
   full:        1.045       0.503      -0.317       3.057

           -------------------------------------------------
          | TOTAL ENERGY              -42.182479535686 Eh   |
          | GRADIENT NORM               0.006387512168 Eh/α |
          | HOMO-LUMO GAP               1.620013085165 eV   |
           -------------------------------------------------

 * finished run on 2024/06/05 at 20:00:07.847
