   * xtb version 6.6.1 (8d0f1dd) compiled by 'conda@1efc2f54142f' on 2023-08-01
          program call               : xtb struc.xyz --opt loose --input .xc1 --gfn2

   ID    Z sym.   atoms
    1    7 N      1, 17
    2    6 C      2-6, 8, 9, 11-16, 18-23, 25, 26, 28-33
    3    8 O      7, 10, 24, 27
    4    1 H      34-72
constraining bond 10 39 to    2.6333300 Å, actual value:    1.9971796 Å

          :  Hamiltonian                  GFN2-xTB          :
 * total energy  :   -99.4763891 Eh     change       -0.4035485E-08 Eh
 * total energy  :   -99.5939341 Eh     change       -0.1175450E+00 Eh
 * total energy  :   -99.7270322 Eh     change       -0.1330980E+00 Eh
 * total energy  :   -98.0925896 Eh     change        0.1634443E+01 Eh
 * total energy  :   -99.7784924 Eh     change       -0.1685903E+01 Eh
 * total energy  :   -99.8087635 Eh     change       -0.3027105E-01 Eh
 * total energy  :   -99.8068633 Eh     change        0.1900142E-02 Eh
 * total energy  :   -99.8175636 Eh     change       -0.1070028E-01 Eh
 * total energy  :   -99.8201487 Eh     change       -0.2585125E-02 Eh
 * total energy  :   -99.8228375 Eh     change       -0.2688771E-02 Eh
 * total energy  :   -99.8486998 Eh     change       -0.2102809E-03 Eh
 * total energy  :   -99.8489634 Eh     change       -0.2636184E-03 Eh
 * total energy  :   -99.8492199 Eh     change       -0.2565223E-03 Eh
 * total energy  :   -99.8491355 Eh     change        0.8447267E-04 Eh
 * total energy  :   -99.8493386 Eh     change       -0.2031965E-03 Eh
 * total energy  :   -99.8494439 Eh     change       -0.1052133E-03 Eh
 * total energy  :   -99.8495753 Eh     change       -0.1314646E-03 Eh
 * total energy  :   -99.8496515 Eh     change       -0.7620461E-04 Eh
 * total energy  :   -99.8496974 Eh     change       -0.4581880E-04 Eh
   *** GEOMETRY OPTIMIZATION CONVERGED AFTER 30 ITERATIONS ***

 final structure:
================
72
 xtb: 6.6.1 (8d0f1dd)
N           -1.96579525266320        2.94975293620027        2.20774302901169
C           -1.87415235699888        2.23435253714794        1.18570711141386
C           -3.01631091729190        1.94428348308359        0.24676672112149
C           -3.41491616635283        0.48242613258440        0.36300886201927
C           -4.35488753496929       -0.04578313130174       -0.52689147879176
C           -4.73261159445710       -1.37869123382868       -0.45934756546888
O           -5.64982554879298       -2.00236149317499       -1.24720606710329
C           -6.35705350262296       -1.23807006994213       -2.20246272999839
C           -4.12540192859292       -2.19179684943517        0.50629921174121
O           -4.49751123251322       -3.59642979009974        0.47904270797650
C           -4.33814783238802       -4.43301859414564        1.66079089215212
C           -3.21768475153840       -1.68687051020449        1.40905345435576
C           -2.86822777082338       -0.34457035240078        1.33655930323610
C           -2.47764464360984        2.22492272989594       -1.18192660163863
C           -1.51218167935122        1.16061216902999       -1.73595893467578
C           -0.18001698375306        1.16350384376276       -1.08710111685912
N            0.48692185698584        0.07458362100621       -0.69285354534759
C            1.86771720556460        0.16917267980265       -0.28654679511369
C            2.82831832095702       -0.27418902348381       -1.40697781041576
C            4.24965307295682       -0.12204167506361       -0.94508926406438
C            4.91630710872483        1.08095075546490       -1.10059774335317
C            6.21508465247611        1.23646695693767       -0.64056141110006
C            6.87061946108959        0.18954162372028       -0.01046457479921
O            8.12780475677302        0.22885472688841        0.47514188816781
C            8.87732959288531        1.41299567066522        0.33388513248914
C            6.19403465771470       -1.04884741812061        0.15477158324779
O            6.90632210133257       -2.01506761249364        0.77333402882110
C            6.32886277963676       -3.28566024970320        0.95101822783737
C            4.89606563987705       -1.18053725929915       -0.31050196651488
C           -0.08598546406010       -1.24638759905960       -0.77205829906242
C           -4.27414490416998        2.82349203508124        0.51747139650869
C           -4.90389464212548        2.49785376538859        1.87003701033721
C           -3.98733748661233        4.31998162797950        0.43015965690354
H           -4.80176196510860        0.59225260307603       -1.26980975905445
H           -6.92090553787518       -0.43310089015720       -1.72483674076498
H           -7.04673993623034       -1.93286268011949       -2.67690463757563
H           -5.68302026058741       -0.82475426234488       -2.95693980831322
H           -4.86562294760071       -4.04392081994294        2.52305407750369
H           -5.22828016114723       -3.64627497528834        0.20605745616049
H           -3.29371925289953       -4.65446219453657        1.82608183096878
H           -2.79601848317403       -2.33260905309245        2.16243966041941
H           -2.17701792310124        0.05104195715286        2.06214933594302
H           -3.32228739240475        2.30072583589119       -1.86641815562483
H           -1.97092240460449        3.19030804723495       -1.17703921408195
H           -1.97741192760160        0.17785171214016       -1.68281173845943
H           -1.36430328724188        1.40054608588925       -2.79752049733510
H           -0.93316233831500        1.76934337450524        0.83594082262330
H            0.36790050437387        2.09300806382472       -1.07101671412925
H            2.02586098174850       -0.45842829591726        0.59525701545985
H            2.09498871113118        1.20154237259024       -0.01409835529861
H            2.65046589945542        0.34691271168922       -2.28651136971804
H            2.62705611751127       -1.31314073873064       -1.67083097876575
H            4.42992717527133        1.90828843740581       -1.59484427218963
H            6.71059521176153        2.18270347637420       -0.78254379202001
H            8.40828656231664        2.24969511227205        0.86096233831297
H            9.01630040273701        1.67609845132897       -0.71912913165362
H            9.84542317516806        1.20119133277511        0.78351750220762
H            7.09076670704035       -3.88655670455788        1.44374090044044
H            5.43961685841044       -3.23796102099458        1.58825881957152
H            6.06869223407312       -3.74670070832991       -0.00709752406031
H            4.37460934727464       -2.11808548414971       -0.19584728575662
H           -0.23478378979519       -1.55395606022781       -1.81005146623008
H           -1.04683143909669       -1.27765250169686       -0.25368737866914
H            0.58548124978274       -1.95532555951043       -0.29435822050124
H           -5.00332507554026        2.57679915067925       -0.26291919203000
H           -4.21202674882747        2.74197753933081        2.66914321077891
H           -5.16794428098033        1.44476048223192        1.94050702874526
H           -5.80811124990865        3.08659861698041        2.00120344720839
H           -3.26150819000343        4.60883770310485        1.18356838367389
H           -3.61937417121903        4.60597612649937       -0.55164133303767
H           -4.90665085403575        4.87001962652083        0.61390250872853
H           -1.11903493703371        3.10002821971201        2.74809375608557

          :  Hamiltonian                  GFN2-xTB          :
         :: total energy             -99.849697350705 Eh    ::
         :: gradient norm              0.003165787281 Eh/a0 ::
         :: HOMO-LUMO gap              1.047968757129 eV    ::
         :: SCC energy              -100.679803003118 Eh    ::
         :: -> dispersion             -0.075664411744 Eh    ::
         :: repulsion energy           1.441000834630 Eh    ::

    * Orbital Energies and Occupations

         #    Occupation            Energy/Eh            Energy/eV
      -------------------------------------------------------------
         1        2.0000           -0.8795482             -23.9337
       ...           ...                  ...                  ...
        78        1.9993           -0.5279097             -14.3652
        79        1.9991           -0.5251968             -14.2913
        80        1.9990           -0.5233469             -14.2410
        81        1.9988           -0.5196125             -14.1394
        82        1.9983           -0.5142081             -13.9923
        83        1.9981           -0.5129251             -13.9574
        84        1.9979           -0.5108091             -13.8998
        85        1.9977           -0.5094844             -13.8638
        86        1.9952           -0.4979446             -13.5498
        87        1.9839           -0.4786764             -13.0254
        88        1.9668           -0.4670857             -12.7100
        89        1.8828           -0.4464165             -12.1476
        90        1.5731           -0.4231029             -11.5132 (HOMO)
        91        0.4891           -0.3845908             -10.4652 (LUMO)
        92        0.0579           -0.3468201              -9.4375
        93        0.0322           -0.3373306              -9.1792
        94        0.0277           -0.3349161              -9.1135
        95        0.0036           -0.3024402              -8.2298
        96        0.0031           -0.2998790              -8.1601
        97        0.0000           -0.2165004              -5.8913
        98        0.0000           -0.1789829              -4.8704
        99        0.0000           -0.1772167              -4.8223
       100                         -0.1262198              -3.4346
       101                         -0.0896340              -2.4391
       ...                                ...                  ...
       171                          0.5873699              15.9831
      -------------------------------------------------------------
                  HL-Gap            0.0385121 Eh            1.0480 eV

     #   Z          covCN         q      C6AA      α(0)
     1   7 N        1.774    -0.279    28.046     7.842
     2   6 C        2.826     0.096    25.867     8.334
     3   6 C        3.907     0.005    20.428     6.424
     4   6 C        2.975     0.015    27.679     8.630
     5   6 C        2.924    -0.075    29.879     8.964
     6   6 C        2.858     0.124    25.282     8.241
     7   8 O        1.705    -0.275    18.555     5.816
     8   6 C        3.643     0.029    20.439     6.499
     9   6 C        2.849     0.064    26.562     8.447
    10   8 O        2.499    -0.116    16.035     5.408
    11   6 C        2.698    -0.136    31.440     9.177
    12   6 C        2.912    -0.049    29.229     8.865
    13   6 C        2.925    -0.052    29.284     8.874
    14   6 C        3.812    -0.065    21.739     6.637
    15   6 C        3.801    -0.066    21.774     6.644
    16   6 C        2.841    -0.006    28.173     8.699
    17   7 N        2.729    -0.002    21.297     6.854
    18   6 C        3.755    -0.014    20.888     6.517
    19   6 C        3.808    -0.070    21.834     6.652
    20   6 C        2.970    -0.003    28.085     8.693
    21   6 C        2.922    -0.051    29.255     8.870
    22   6 C        2.914    -0.069    29.713     8.938
    23   6 C        2.865     0.131    25.125     8.216
    24   8 O        1.706    -0.228    17.782     5.693
    25   6 C        3.646     0.027    20.454     6.500
    26   6 C        2.863     0.131    25.132     8.217
    27   8 O        1.706    -0.231    17.822     5.700
    28   6 C        3.645     0.029    20.418     6.494
    29   6 C        2.920    -0.081    30.016     8.984
    30   6 C        3.699    -0.067    21.947     6.700
    31   6 C        3.852    -0.007    20.669     6.466
    32   6 C        3.756    -0.119    22.831     6.813
    33   6 C        3.755    -0.119    22.829     6.813
    34   1 H        0.926     0.062     2.180     2.309
    35   1 H        0.924     0.056     2.251     2.346
    36   1 H        0.925     0.079     1.991     2.206
    37   1 H        0.924     0.052     2.299     2.371
    38   1 H        0.925     0.022     2.696     2.568
    39   1 H        0.811     0.356     0.573     1.189
    40   1 H        0.926     0.033     2.546     2.495
    41   1 H        0.926     0.074     2.039     2.233
    42   1 H        0.926     0.055     2.264     2.353
    43   1 H        0.925     0.055     2.255     2.348
    44   1 H        0.924     0.055     2.253     2.347
    45   1 H        0.925     0.056     2.251     2.346
    46   1 H        0.923     0.073     2.056     2.242
    47   1 H        0.922     0.005     2.973     2.697
    48   1 H        0.926     0.063     2.161     2.299
    49   1 H        0.924     0.063     2.161     2.299
    50   1 H        0.924     0.066     2.136     2.285
    51   1 H        0.924     0.053     2.284     2.364
    52   1 H        0.924     0.052     2.292     2.367
    53   1 H        0.926     0.042     2.422     2.434
    54   1 H        0.926     0.055     2.254     2.348
    55   1 H        0.924     0.051     2.304     2.374
    56   1 H        0.924     0.053     2.283     2.363
    57   1 H        0.925     0.079     1.985     2.203
    58   1 H        0.925     0.079     1.990     2.206
    59   1 H        0.924     0.046     2.375     2.410
    60   1 H        0.924     0.050     2.325     2.385
    61   1 H        0.926     0.044     2.399     2.422
    62   1 H        0.924     0.070     2.087     2.259
    63   1 H        0.924     0.070     2.088     2.260
    64   1 H        0.925     0.077     2.010     2.217
    65   1 H        0.924     0.032     2.564     2.504
    66   1 H        0.925     0.070     2.081     2.256
    67   1 H        0.925     0.028     2.619     2.531
    68   1 H        0.925     0.050     2.321     2.382
    69   1 H        0.925     0.062     2.177     2.307
    70   1 H        0.925     0.034     2.527     2.486
    71   1 H        0.925     0.053     2.287     2.365
    72   1 H        0.860     0.154     1.374     1.836

Wiberg/Mayer (AO) data.
largest (>0.10) Wiberg bond orders for each atom

     #   Z sym  total        # sym  WBO       # sym  WBO       # sym  WBO
 ---------------------------------------------------------------------------
     1   7 N    3.028 --     2 C    1.949    72 H    0.944
     2   6 C    3.919 --     1 N    1.949     3 C    0.993    47 H    0.906
     3   6 C    3.982 --     2 C    0.993     4 C    0.976    14 C    0.956
                            31 C    0.944
     4   6 C    3.949 --    13 C    1.412     5 C    1.375     3 C    0.976
     5   6 C    3.950 --     6 C    1.382     4 C    1.375    34 H    0.957
     6   6 C    3.916 --     5 C    1.382     9 C    1.297     7 O    1.070
     7   8 O    2.229 --     6 C    1.070     8 C    0.970
     8   6 C    3.930 --    36 H    0.977    37 H    0.977    35 H    0.977
                             7 O    0.970
     9   6 C    3.815 --    12 C    1.429     6 C    1.297    10 O    0.859
    10   8 O    2.616 --     9 C    0.859    39 H    0.854    11 C    0.815
    11   6 C    2.835 --    40 H    0.980    38 H    0.978    10 O    0.815
    12   6 C    3.948 --     9 C    1.429    13 C    1.400    41 H    0.958
    13   6 C    3.964 --     4 C    1.412    12 C    1.400    42 H    0.961
    14   6 C    3.972 --    15 C    0.983    44 H    0.972    43 H    0.970
                             3 C    0.956
    15   6 C    3.990 --    16 C    1.056    14 C    0.983    45 H    0.964
                            46 H    0.933
    16   6 C    3.527 --    17 N    1.359    15 C    1.056    48 H    0.959
    17   7 N    3.434 --    16 C    1.359    30 C    1.001    18 C    0.991
    18   6 C    3.958 --    17 N    0.991    50 H    0.968    19 C    0.967
                            49 H    0.964
    19   6 C    3.976 --    20 C    1.008    51 H    0.972    52 H    0.972
                            18 C    0.967
    20   6 C    3.952 --    21 C    1.416    29 C    1.377    19 C    1.008
    21   6 C    3.957 --    20 C    1.416    22 C    1.413    53 H    0.969
    22   6 C    3.965 --    21 C    1.413    23 C    1.389    54 H    0.964
    23   6 C    3.904 --    22 C    1.389    26 C    1.227    24 O    1.102
    24   8 O    2.254 --    23 C    1.102    25 C    0.978
    25   6 C    3.932 --    24 O    0.978    57 H    0.977    55 H    0.974
                            56 H    0.973
    26   6 C    3.907 --    29 C    1.400    23 C    1.227    27 O    1.096
    27   8 O    2.253 --    26 C    1.096    28 C    0.980
    28   6 C    3.935 --    27 O    0.980    58 H    0.977    59 H    0.974
                            60 H    0.974
    29   6 C    3.963 --    26 C    1.400    20 C    1.377    61 H    0.963
    30   6 C    3.963 --    17 N    1.001    64 H    0.978    62 H    0.968
                            63 H    0.963
    31   6 C    3.980 --    33 C    1.010    32 C    1.009    65 H    0.962
                             3 C    0.944
    32   6 C    3.986 --    31 C    1.009    67 H    0.984    68 H    0.983
                            66 H    0.976
    33   6 C    3.988 --    31 C    1.010    70 H    0.984    71 H    0.981
                            69 H    0.978
    34   1 H    0.995 --     5 C    0.957
    35   1 H    0.996 --     8 C    0.977
    36   1 H    0.993 --     8 C    0.977
    37   1 H    0.997 --     8 C    0.977
    38   1 H    0.990 --    11 C    0.978
    39   1 H    0.872 --    10 O    0.854
    40   1 H    0.991 --    11 C    0.980
    41   1 H    0.993 --    12 C    0.958
    42   1 H    0.997 --    13 C    0.961
    43   1 H    0.996 --    14 C    0.970
    44   1 H    0.996 --    14 C    0.972
    45   1 H    0.996 --    15 C    0.964
    46   1 H    0.969 --    15 C    0.933
    47   1 H    0.993 --     2 C    0.906
    48   1 H    0.995 --    16 C    0.959
    49   1 H    0.991 --    18 C    0.964
    50   1 H    0.995 --    18 C    0.968
    51   1 H    0.996 --    19 C    0.972
    52   1 H    0.996 --    19 C    0.972
    53   1 H    0.998 --    21 C    0.969
    54   1 H    0.995 --    22 C    0.964
    55   1 H    0.993 --    25 C    0.974
    56   1 H    0.993 --    25 C    0.973
    57   1 H    0.993 --    25 C    0.977
    58   1 H    0.993 --    28 C    0.977
    59   1 H    0.995 --    28 C    0.974
    60   1 H    0.994 --    28 C    0.974
    61   1 H    0.997 --    29 C    0.963
    62   1 H    0.985 --    30 C    0.968
    63   1 H    0.988 --    30 C    0.963
    64   1 H    0.994 --    30 C    0.978
    65   1 H    0.996 --    31 C    0.962
    66   1 H    0.993 --    32 C    0.976
    67   1 H    0.999 --    32 C    0.984
    68   1 H    0.996 --    32 C    0.983
    69   1 H    0.995 --    33 C    0.978
    70   1 H    0.998 --    33 C    0.984
    71   1 H    0.995 --    33 C    0.981
    72   1 H    0.973 --     1 N    0.944
 ---------------------------------------------------------------------------

molecular dipole:
                 x           y           z       tot (Debye)
 q only:       -1.338      -0.567      -1.153
   full:       -1.261      -0.377      -1.523       5.117

           -------------------------------------------------
          | TOTAL ENERGY              -99.849697350705 Eh   |
          | GRADIENT NORM               0.003165787281 Eh/α |
          | HOMO-LUMO GAP               1.047968757129 eV   |
           -------------------------------------------------

 * finished run on 2024/04/06 at 11:16:17.471
