   * xtb version 6.6.1 (8d0f1dd) compiled by 'conda@1efc2f54142f' on 2023-08-01
          program call               : xtb xtbopt.xyz --opt crude --input .xc2 --gfn2

   ID    Z sym.   atoms
    1    7 N      1, 17
    2    6 C      2-6, 8, 9, 11-16, 18-23, 25, 26, 28-33
    3    8 O      7, 10, 24, 27
    4    1 H      34-72
########################################################################
[WARNING] Please study the warnings concerning your input carefully
-1- readin_getIntValue: could not parse ''
########################################################################

          :  Hamiltonian                  GFN2-xTB          :
 * total energy  :   -99.2375106 Eh     change       -0.3963407E-10 Eh
 * total energy  :   -99.2854730 Eh     change       -0.4796231E-01 Eh
 * total energy  :   -99.2859214 Eh     change       -0.4484102E-03 Eh
 * total energy  :   -99.2861748 Eh     change       -0.2534624E-03 Eh
   *** GEOMETRY OPTIMIZATION CONVERGED AFTER 4 ITERATIONS ***

 final structure:
================
72
 xtb: 6.6.1 (8d0f1dd)
N           -1.96550447364158        2.95237219303929        2.20779169802399
C           -1.87377142576600        2.23545960293011        1.18658639339405
C           -3.01559121146471        1.94481130413498        0.24731816644080
C           -3.41221796023579        0.48250624067123        0.36580727057116
C           -4.34906594496078       -0.05207698729036       -0.52321158871579
C           -4.71960676576023       -1.38709643520503       -0.45461353609731
O           -5.64016772518417       -2.01451287656428       -1.23920718018397
C           -6.35209885481663       -1.24958888482919       -2.19129084502523
C           -4.10865930126672       -2.19909140518891        0.50766042273162
O           -4.44672044401762       -3.60309937869704        0.46897919584568
C           -4.35811815479544       -4.41811523014228        1.66911402868227
C           -3.20843700593364       -1.68510793052835        1.41599440929142
C           -2.86665242370137       -0.34088326029933        1.34397326514556
C           -2.47774453693928        2.22601358472805       -1.18166113702877
C           -1.51255314847665        1.16207772045382       -1.73775360471659
C           -0.17925971226419        1.16419720566745       -1.09134261763341
N            0.48764717688521        0.07563485652750       -0.69599727598253
C            1.86900733797175        0.17017555650810       -0.29008701558613
C            2.83127498651798       -0.27173485977660       -1.40960389644801
C            4.25227877099024       -0.11954903786324       -0.94568658788589
C            4.91966605612002        1.08307953871081       -1.10048445719678
C            6.21860375377959        1.23777861374031       -0.64033064125182
C            6.87378777753855        0.19043114329417       -0.01077870485687
O            8.13142751832298        0.22878212881268        0.47437466608145
C            8.88152097435771        1.41271099789932        0.33396561760760
C            6.19636195163329       -1.04737573510330        0.15418560376606
O            6.90824047132102       -2.01428768921449        0.77258181214778
C            6.33008297929148       -3.28450693655185        0.95003679291413
C            4.89841306645643       -1.17834822570439       -0.31120695027041
C           -0.08497143216696       -1.24565224634657       -0.77567418748207
C           -4.27398084645407        2.82298590137391        0.51849979132965
C           -4.90275847046973        2.49570770611573        1.87127238256938
C           -3.98912965779717        4.31989930748258        0.43260839074739
H           -4.79783570436996        0.58262530868048       -1.26796029263302
H           -6.91283911649021       -0.44335682786932       -1.71188697774032
H           -7.04432902756907       -1.94341896431062       -2.66336232064001
H           -5.68074351317570       -0.83707166479661       -2.94849156516505
H           -4.89821783056145       -4.00020952336795        2.50832011282873
H           -5.35280905014930       -3.66376678022996        0.10674632720866
H           -3.32397319643679       -4.66226699705245        1.86715276928187
H           -2.78354106303997       -2.32599324306116        2.17174181179825
H           -2.18054720893003        0.06061676918641        2.07149108487007
H           -3.32262812897893        2.30183096083029       -1.86611817989245
H           -1.97187233293023        3.19193660782968       -1.17661120071380
H           -1.97818942677934        0.17953984552566       -1.68407648091561
H           -1.36725489714532        1.40174369978266       -2.79982224276116
H           -0.93296612135786        1.76889344805532        0.83933390551482
H            0.36565780498764        2.09511021747598       -1.06952635488804
H            2.02662145227362       -0.45828658100940        0.59115535347601
H            2.09611782223234        1.20231271605493       -0.01664502938086
H            2.65547364451247        0.35019201508162       -2.28891606949932
H            2.63070999560432       -1.31048841142044       -1.67483601111348
H            4.43417178589675        1.91119514865446       -1.59432080328347
H            6.71474918985322        2.18375345999741       -0.78200218721977
H            8.41270467705417        2.24948321206870        0.86110559148127
H            9.02135069132923        1.67617069018223       -0.71884349157948
H            9.84925782402754        1.20021132658611        0.78408481218482
H            7.09187082281126       -3.88571264298171        1.44253573977117
H            5.44093144901300       -3.23654093299018        1.58740750616180
H            6.06956056497892       -3.74529097568401       -0.00811881298994
H            4.37672666337503       -2.11580851920767       -0.19674453778826
H           -0.23135870179613       -1.55442638630705       -1.81364964213458
H           -1.04712388015278       -1.27647137139053       -0.25971514864925
H            0.58519261389774       -1.95415733672667       -0.29553506628946
H           -5.00329381594151        2.57622885379984       -0.26180610323792
H           -4.21126030474097        2.74171593897278        2.66985786923053
H           -5.16366813825689        1.44213490735144        1.94162461083364
H           -5.80826387138798        3.08195646149751        2.00296386204655
H           -3.26112782890811        4.60861161283460        1.18370377587212
H           -3.62526968546389        4.60787818450796       -0.54993694376337
H           -4.90828405101379        4.86838709130143        0.62099793640816
H           -1.11848783433364        3.10128172185819        2.74814755497734

          :  Hamiltonian                  GFN2-xTB          :
         :: total energy             -99.286174826888 Eh    ::
         :: gradient norm              0.003409807682 Eh/a0 ::
         :: HOMO-LUMO gap              1.029006137060 eV    ::
         :: SCC energy              -100.657625922572 Eh    ::
         :: -> dispersion             -0.075679617506 Eh    ::
         :: repulsion energy           1.370153536117 Eh    ::

    * Orbital Energies and Occupations

         #    Occupation            Energy/Eh            Energy/eV
      -------------------------------------------------------------
         1        2.0000           -0.8703577             -23.6836
       ...           ...                  ...                  ...
        78        1.9993           -0.5273781             -14.3507
        79        1.9992           -0.5246659             -14.2769
        80        1.9991           -0.5226850             -14.2230
        81        1.9988           -0.5189594             -14.1216
        82        1.9983           -0.5137943             -13.9811
        83        1.9982           -0.5124596             -13.9447
        84        1.9979           -0.5101500             -13.8819
        85        1.9978           -0.5090803             -13.8528
        86        1.9955           -0.4979751             -13.5506
        87        1.9842           -0.4779770             -13.0064
        88        1.9675           -0.4663805             -12.6909
        89        1.8853           -0.4457616             -12.1298
        90        1.5616           -0.4215481             -11.4709 (HOMO)
        91        0.4928           -0.3837328             -10.4419 (LUMO)
        92        0.0597           -0.3463073              -9.4235
        93        0.0334           -0.3369164              -9.1680
        94        0.0282           -0.3341746              -9.0934
        95        0.0037           -0.3017461              -8.2109
        96        0.0031           -0.2991718              -8.1409
        97        0.0000           -0.2165564              -5.8928
        98        0.0000           -0.1860700              -5.0632
        99        0.0000           -0.1765103              -4.8031
       100                         -0.1258611              -3.4249
       101                         -0.0928977              -2.5279
       ...                                ...                  ...
       171                          0.5880680              16.0021
      -------------------------------------------------------------
                  HL-Gap            0.0378153 Eh            1.0290 eV

     #   Z          covCN         q      C6AA      α(0)
     1   7 N        1.774    -0.280    28.066     7.845
     2   6 C        2.826     0.096    25.867     8.334
     3   6 C        3.907     0.006    20.428     6.424
     4   6 C        2.974     0.014    27.688     8.631
     5   6 C        2.924    -0.075    29.870     8.963
     6   6 C        2.858     0.121    25.336     8.250
     7   8 O        1.705    -0.278    18.610     5.825
     8   6 C        3.642     0.029    20.438     6.500
     9   6 C        2.849     0.068    26.470     8.432
    10   8 O        2.494    -0.115    16.024     5.406
    11   6 C        2.699    -0.131    31.315     9.159
    12   6 C        2.912    -0.049    29.213     8.863
    13   6 C        2.925    -0.052    29.284     8.874
    14   6 C        3.811    -0.065    21.738     6.636
    15   6 C        3.801    -0.066    21.771     6.643
    16   6 C        2.841    -0.007    28.181     8.700
    17   7 N        2.729    -0.002    21.306     6.855
    18   6 C        3.755    -0.014    20.886     6.516
    19   6 C        3.808    -0.070    21.833     6.651
    20   6 C        2.970    -0.003    28.089     8.693
    21   6 C        2.922    -0.051    29.257     8.870
    22   6 C        2.914    -0.069    29.715     8.939
    23   6 C        2.865     0.131    25.128     8.217
    24   8 O        1.706    -0.228    17.789     5.695
    25   6 C        3.646     0.027    20.452     6.499
    26   6 C        2.863     0.131    25.135     8.218
    27   8 O        1.706    -0.231    17.829     5.701
    28   6 C        3.645     0.029    20.415     6.494
    29   6 C        2.920    -0.081    30.017     8.984
    30   6 C        3.699    -0.066    21.938     6.699
    31   6 C        3.852    -0.007    20.668     6.466
    32   6 C        3.756    -0.119    22.831     6.813
    33   6 C        3.755    -0.119    22.828     6.813
    34   1 H        0.926     0.061     2.186     2.312
    35   1 H        0.924     0.056     2.246     2.343
    36   1 H        0.925     0.078     1.996     2.209
    37   1 H        0.924     0.053     2.288     2.365
    38   1 H        0.925     0.020     2.729     2.583
    39   1 H        0.803     0.363     0.559     1.175
    40   1 H        0.926     0.033     2.542     2.493
    41   1 H        0.926     0.073     2.052     2.240
    42   1 H        0.926     0.054     2.266     2.354
    43   1 H        0.925     0.055     2.259     2.351
    44   1 H        0.924     0.055     2.255     2.348
    45   1 H        0.925     0.055     2.254     2.348
    46   1 H        0.923     0.072     2.060     2.245
    47   1 H        0.922     0.005     2.980     2.700
    48   1 H        0.926     0.063     2.164     2.300
    49   1 H        0.924     0.063     2.163     2.300
    50   1 H        0.924     0.065     2.137     2.286
    51   1 H        0.924     0.053     2.286     2.364
    52   1 H        0.924     0.052     2.294     2.369
    53   1 H        0.926     0.042     2.424     2.435
    54   1 H        0.926     0.055     2.256     2.349
    55   1 H        0.924     0.051     2.306     2.375
    56   1 H        0.924     0.053     2.285     2.364
    57   1 H        0.925     0.079     1.987     2.204
    58   1 H        0.925     0.079     1.992     2.207
    59   1 H        0.924     0.045     2.378     2.411
    60   1 H        0.924     0.049     2.328     2.386
    61   1 H        0.926     0.044     2.402     2.424
    62   1 H        0.924     0.070     2.090     2.261
    63   1 H        0.924     0.069     2.093     2.262
    64   1 H        0.925     0.077     2.012     2.218
    65   1 H        0.924     0.031     2.569     2.507
    66   1 H        0.925     0.070     2.082     2.256
    67   1 H        0.925     0.028     2.621     2.532
    68   1 H        0.925     0.050     2.324     2.384
    69   1 H        0.925     0.062     2.176     2.307
    70   1 H        0.925     0.034     2.528     2.487
    71   1 H        0.925     0.052     2.289     2.366
    72   1 H        0.860     0.154     1.377     1.838

Wiberg/Mayer (AO) data.
largest (>0.10) Wiberg bond orders for each atom

     #   Z sym  total        # sym  WBO       # sym  WBO       # sym  WBO
 ---------------------------------------------------------------------------
     1   7 N    3.027 --     2 C    1.948    72 H    0.944
     2   6 C    3.919 --     1 N    1.948     3 C    0.993    47 H    0.907
     3   6 C    3.982 --     2 C    0.993     4 C    0.976    14 C    0.957
                            31 C    0.944
     4   6 C    3.948 --    13 C    1.410     5 C    1.376     3 C    0.976
     5   6 C    3.949 --     6 C    1.383     4 C    1.376    34 H    0.957
     6   6 C    3.914 --     5 C    1.383     9 C    1.299     7 O    1.064
     7   8 O    2.228 --     6 C    1.064     8 C    0.968
     8   6 C    3.929 --    36 H    0.977    37 H    0.977    35 H    0.977
                             7 O    0.968
     9   6 C    3.820 --    12 C    1.423     6 C    1.299    10 O    0.873
    10   8 O    2.613 --     9 C    0.873    39 H    0.832    11 C    0.820
    11   6 C    2.833 --    38 H    0.978    40 H    0.977    10 O    0.820
    12   6 C    3.947 --     9 C    1.423    13 C    1.402    41 H    0.959
    13   6 C    3.964 --     4 C    1.410    12 C    1.402    42 H    0.961
    14   6 C    3.972 --    15 C    0.983    44 H    0.972    43 H    0.970
                             3 C    0.957
    15   6 C    3.990 --    16 C    1.056    14 C    0.983    45 H    0.964
                            46 H    0.933
    16   6 C    3.524 --    17 N    1.358    15 C    1.056    48 H    0.959
    17   7 N    3.432 --    16 C    1.358    30 C    1.001    18 C    0.991
    18   6 C    3.958 --    17 N    0.991    50 H    0.968    19 C    0.967
                            49 H    0.964
    19   6 C    3.976 --    20 C    1.008    51 H    0.972    52 H    0.972
                            18 C    0.967
    20   6 C    3.953 --    21 C    1.416    29 C    1.377    19 C    1.008
    21   6 C    3.958 --    20 C    1.416    22 C    1.413    53 H    0.969
    22   6 C    3.965 --    21 C    1.413    23 C    1.389    54 H    0.964
    23   6 C    3.904 --    22 C    1.389    26 C    1.227    24 O    1.102
    24   8 O    2.254 --    23 C    1.102    25 C    0.978
    25   6 C    3.932 --    24 O    0.978    57 H    0.977    55 H    0.974
                            56 H    0.974
    26   6 C    3.907 --    29 C    1.400    23 C    1.227    27 O    1.095
    27   8 O    2.253 --    26 C    1.095    28 C    0.981
    28   6 C    3.936 --    27 O    0.981    58 H    0.977    59 H    0.974
                            60 H    0.974
    29   6 C    3.964 --    26 C    1.400    20 C    1.377    61 H    0.963
    30   6 C    3.963 --    17 N    1.001    64 H    0.978    62 H    0.968
                            63 H    0.963
    31   6 C    3.980 --    33 C    1.010    32 C    1.009    65 H    0.962
                             3 C    0.944
    32   6 C    3.986 --    31 C    1.009    67 H    0.984    68 H    0.983
                            66 H    0.976
    33   6 C    3.988 --    31 C    1.010    70 H    0.984    71 H    0.981
                            69 H    0.978
    34   1 H    0.995 --     5 C    0.957
    35   1 H    0.996 --     8 C    0.977
    36   1 H    0.993 --     8 C    0.977
    37   1 H    0.997 --     8 C    0.977
    38   1 H    0.990 --    11 C    0.978
    39   1 H    0.866 --    10 O    0.832
    40   1 H    0.990 --    11 C    0.977
    41   1 H    0.993 --    12 C    0.959
    42   1 H    0.997 --    13 C    0.961
    43   1 H    0.996 --    14 C    0.970
    44   1 H    0.996 --    14 C    0.972
    45   1 H    0.996 --    15 C    0.964
    46   1 H    0.969 --    15 C    0.933
    47   1 H    0.993 --     2 C    0.907
    48   1 H    0.995 --    16 C    0.959
    49   1 H    0.991 --    18 C    0.964
    50   1 H    0.995 --    18 C    0.968
    51   1 H    0.996 --    19 C    0.972
    52   1 H    0.996 --    19 C    0.972
    53   1 H    0.998 --    21 C    0.969
    54   1 H    0.995 --    22 C    0.964
    55   1 H    0.993 --    25 C    0.974
    56   1 H    0.993 --    25 C    0.974
    57   1 H    0.993 --    25 C    0.977
    58   1 H    0.993 --    28 C    0.977
    59   1 H    0.995 --    28 C    0.974
    60   1 H    0.994 --    28 C    0.974
    61   1 H    0.997 --    29 C    0.963
    62   1 H    0.985 --    30 C    0.968
    63   1 H    0.988 --    30 C    0.963
    64   1 H    0.994 --    30 C    0.978
    65   1 H    0.996 --    31 C    0.962
    66   1 H    0.993 --    32 C    0.976
    67   1 H    0.999 --    32 C    0.984
    68   1 H    0.996 --    32 C    0.983
    69   1 H    0.995 --    33 C    0.978
    70   1 H    0.998 --    33 C    0.984
    71   1 H    0.995 --    33 C    0.981
    72   1 H    0.973 --     1 N    0.944
 ---------------------------------------------------------------------------

molecular dipole:
                 x           y           z       tot (Debye)
 q only:       -1.522      -0.664      -1.204
   full:       -1.413      -0.473      -1.556       5.476

           -------------------------------------------------
          | TOTAL ENERGY              -99.286174826888 Eh   |
          | GRADIENT NORM               0.003409807682 Eh/α |
          | HOMO-LUMO GAP               1.029006137060 eV   |
           -------------------------------------------------

 * finished run on 2024/04/06 at 11:16:18.437
