   * xtb version 6.6.1 (8d0f1dd) compiled by 'conda@1efc2f54142f' on 2023-08-01
          program call               : xtb xtbopt.xyz --opt crude --input .xc2 --gfn2

   ID    Z sym.   atoms
    1    6 C      1, 3, 5-7, 10, 11, 14
    2    7 N      2, 4, 9, 13
    3    8 O      8, 12
    4    1 H      15-25
########################################################################
[WARNING] Please study the warnings concerning your input carefully
-1- readin_getIntValue: could not parse ''
########################################################################

          :  Hamiltonian                  GFN2-xTB          :
 * total energy  :   -42.1035554 Eh     change       -0.1200817E-10 Eh
 * total energy  :   -42.1044391 Eh     change       -0.8836933E-03 Eh
 * total energy  :   -42.1056057 Eh     change       -0.1166649E-02 Eh
 * total energy  :   -42.1061138 Eh     change       -0.5081279E-03 Eh
 * total energy  :   -42.1066338 Eh     change       -0.5199261E-03 Eh
 * total energy  :   -42.1073893 Eh     change       -0.7555353E-03 Eh
 * total energy  :   -42.1083519 Eh     change       -0.9625794E-03 Eh
 * total energy  :   -42.1093583 Eh     change       -0.1006383E-02 Eh
 * total energy  :   -42.1104364 Eh     change       -0.1078100E-02 Eh
 * total energy  :   -42.1116903 Eh     change       -0.1253983E-02 Eh
 * total energy  :   -42.1171485 Eh     change       -0.1714896E-02 Eh
 * total energy  :   -42.1187583 Eh     change       -0.1609779E-02 Eh
 * total energy  :   -42.1199164 Eh     change       -0.1158059E-02 Eh
 * total energy  :   -42.1189044 Eh     change        0.1011974E-02 Eh
 * total energy  :   -42.1215308 Eh     change       -0.2626416E-02 Eh
 * total energy  :   -42.1217576 Eh     change       -0.2267660E-03 Eh
 * total energy  :   -42.1225998 Eh     change       -0.8422247E-03 Eh
 * total energy  :   -42.1230997 Eh     change       -0.4999249E-03 Eh
 * total energy  :   -42.1235288 Eh     change       -0.4290551E-03 Eh
   *** GEOMETRY OPTIMIZATION CONVERGED AFTER 22 ITERATIONS ***

 final structure:
================
25
 xtb: 6.6.1 (8d0f1dd)
C            3.06528827303920        1.13181720664208        0.34830650408921
N            2.27542176874869       -0.04652129166806        0.10068498029861
C            2.86048541930878       -1.26955557348801       -0.07449226916359
N            2.27018807943614       -2.36785692191626       -0.22610533301970
C            0.20539043164195       -1.19693006656454        0.02915968533167
C            0.89807980837899       -0.03813776714660        0.09336297227476
C            0.09306728629597        1.21364650219944        0.10131306344090
O            0.56072079434578        2.31130224779194        0.26605254752241
N           -1.24999955206264        1.00927811427932       -0.16129533337277
C           -2.09154257570061        2.18859818971448       -0.31941097351948
C           -1.91508989392371       -0.19557461426542       -0.21615204686365
O           -3.09606632899618       -0.31499289510476       -0.36985323359051
N           -1.09929445323045       -1.34405814633826       -0.04790373718198
C           -1.77749220620532       -2.61345058492753        0.11862052526674
H            2.96309174177584        1.44863145131385        1.39138659192555
H            4.11282447054454        0.92390081482358        0.14146513084436
H            2.72952737915760        1.96007285765380       -0.27765464359867
H            3.94575471129960       -1.29114694517723       -0.08164752114847
H           -1.45798815892712        3.04408869675881       -0.54292533660156
H           -2.80069210791495        2.00997790921001       -1.12698307734307
H           -2.65131022448845        2.38148534489820        0.59696665179442
H           -1.05755364161033       -3.38194060595423        0.38668416168812
H           -2.29585200555894       -2.88738927750533       -0.80176360971880
H           -2.52778857661065       -2.51272962038643        0.90404359931582
H            1.20126107535874       -2.34427648324173       -0.20068768076741

          :  Hamiltonian                  GFN2-xTB          :
         :: total energy             -42.123528797930 Eh    ::
         :: gradient norm              0.005259966000 Eh/a0 ::
         :: HOMO-LUMO gap              0.880732433702 eV    ::
         :: SCC energy               -42.648239617787 Eh    ::
         :: -> dispersion             -0.022196757189 Eh    ::
         :: repulsion energy           0.524589844405 Eh    ::

    * Orbital Energies and Occupations

         #    Occupation            Energy/Eh            Energy/eV
      -------------------------------------------------------------
         1        2.0000           -0.9027854             -24.5660
       ...           ...                  ...                  ...
        25        1.9997           -0.6677881             -18.1714
        26        1.9992           -0.6539924             -17.7960
        27        1.9990           -0.6501951             -17.6927
        28        1.9989           -0.6476370             -17.6231
        29        1.9985           -0.6430369             -17.4979
        30        1.9982           -0.6403281             -17.4242
        31        1.9947           -0.6232291             -16.9589
        32        1.9934           -0.6198855             -16.8679
        33        1.9845           -0.6062446             -16.4968
        34        1.9690           -0.5951844             -16.1958
        35        1.9600           -0.5910581             -16.0835
        36        1.9493           -0.5872408             -15.9796
        37        1.5423           -0.5486772             -14.9303 (HOMO)
        38        0.6076           -0.5163109             -14.0495 (LUMO)
        39        0.0047           -0.4335485             -11.7975
        40        0.0013           -0.4134275             -11.2499
        41        0.0002           -0.3841155             -10.4523
        42        0.0000           -0.3105975              -8.4518
        43                         -0.2132992              -5.8042
        44                         -0.1647306              -4.4825
        45                         -0.1540423              -4.1917
        46                         -0.0832995              -2.2667
        47                         -0.0585340              -1.5928
        48                         -0.0450734              -1.2265
       ...                                ...                  ...
        67                          0.5362978              14.5934
      -------------------------------------------------------------
                  HL-Gap            0.0323663 Eh            0.8807 eV

     #   Z          covCN         q      C6AA      α(0)
     1   6 C        3.695    -0.081    22.223     6.744
     2   7 N        2.743     0.031    20.713     6.759
     3   6 C        2.797     0.118    25.397     8.256
     4   7 N        1.778    -0.220    26.601     7.638
     5   6 C        2.153    -0.002    30.770     8.968
     6   6 C        2.930     0.021    27.546     8.607
     7   6 C        2.774     0.277    22.310     7.736
     8   8 O        0.858    -0.323    20.196     6.025
     9   7 N        2.740    -0.068    22.558     7.054
    10   6 C        3.710    -0.063    21.847     6.680
    11   6 C        2.735     0.318    21.595     7.608
    12   8 O        0.859    -0.319    20.127     6.015
    13   7 N        2.740     0.005    21.175     6.834
    14   6 C        3.700    -0.070    22.005     6.709
    15   1 H        0.924     0.113     1.670     2.021
    16   1 H        0.925     0.100     1.785     2.089
    17   1 H        0.924     0.126     1.566     1.957
    18   1 H        0.925     0.136     1.491     1.910
    19   1 H        0.925     0.116     1.644     2.005
    20   1 H        0.925     0.113     1.674     2.023
    21   1 H        0.924     0.109     1.708     2.044
    22   1 H        0.925     0.103     1.760     2.074
    23   1 H        0.924     0.119     1.618     1.989
    24   1 H        0.924     0.118     1.632     1.998
    25   1 H        1.047     0.223     0.983     1.549

Wiberg/Mayer (AO) data.
largest (>0.10) Wiberg bond orders for each atom

     #   Z sym  total        # sym  WBO       # sym  WBO       # sym  WBO
 ---------------------------------------------------------------------------
     1   6 C    3.901 --     2 N    0.997    16 H    0.970    15 H    0.944
                            17 H    0.943
     2   7 N    3.481 --     3 C    1.169     6 C    1.144     1 C    0.997
     3   6 C    3.939 --     4 N    1.794     2 N    1.169    18 H    0.905
     4   7 N    2.823 --     3 C    1.794    25 H    0.689     5 C    0.143
     5   6 C    3.441 --     6 C    1.489    13 N    1.333    25 H    0.231
                             4 N    0.143
     6   6 C    3.837 --     5 C    1.489     2 N    1.144     7 C    0.975
     7   6 C    3.915 --     8 O    1.703     9 N    1.129     6 C    0.975
     8   8 O    2.040 --     7 C    1.703     9 N    0.135
     9   7 N    3.550 --     7 C    1.129    11 C    1.127    10 C    0.963
                             8 O    0.135    12 O    0.130
    10   6 C    3.884 --    19 H    0.965     9 N    0.963    20 H    0.960
                            21 H    0.952
    11   6 C    3.929 --    12 O    1.716     9 N    1.127    13 N    0.994
    12   8 O    2.033 --    11 C    1.716     9 N    0.130
    13   7 N    3.531 --     5 C    1.333    11 C    0.994    14 C    0.972
    14   6 C    3.895 --    22 H    0.974    13 N    0.972    24 H    0.953
                            23 H    0.951
    15   1 H    0.962 --     1 C    0.944
    16   1 H    0.986 --     1 C    0.970
    17   1 H    0.966 --     1 C    0.943
    18   1 H    0.951 --     3 C    0.905
    19   1 H    0.982 --    10 C    0.965
    20   1 H    0.979 --    10 C    0.960
    21   1 H    0.974 --    10 C    0.952
    22   1 H    0.987 --    14 C    0.974
    23   1 H    0.970 --    14 C    0.951
    24   1 H    0.973 --    14 C    0.953
    25   1 H    0.948 --     4 N    0.689     5 C    0.231
 ---------------------------------------------------------------------------

molecular dipole:
                 x           y           z       tot (Debye)
 q only:        1.280      -0.880       0.071
   full:        1.331      -0.718       0.121       3.856

           -------------------------------------------------
          | TOTAL ENERGY              -42.123528797930 Eh   |
          | GRADIENT NORM               0.005259966000 Eh/α |
          | HOMO-LUMO GAP               0.880732433702 eV   |
           -------------------------------------------------

 * finished run on 2024/06/05 at 19:57:56.686
