   * xtb version 6.6.1 (8d0f1dd) compiled by 'conda@1efc2f54142f' on 2023-08-01
          program call               : xtb xtbopt.xyz --opt crude --input .xc2 --gfn2

   ID    Z sym.   atoms
    1    6 C      1, 3, 5-7, 10, 11, 14
    2    7 N      2, 4, 9, 13
    3    8 O      8, 12
    4    1 H      15-25

          :  Hamiltonian                  GFN2-xTB          :
 * total energy  :   -42.1550456 Eh     change       -0.2145839E-11 Eh
   *** GEOMETRY OPTIMIZATION CONVERGED AFTER 1 ITERATIONS ***

 final structure:
================
25
 xtb: 6.6.1 (8d0f1dd)
C            3.05086606242842        1.13884792146839        0.02240383281373
N            2.24017272982936       -0.04747609189259       -0.00408630164312
C            2.66222523014878       -1.31105138998253       -0.02004367851995
N            1.59781076397758       -2.14974693572732       -0.01992254793086
C            0.45949786979668       -1.39021819388911       -0.00276484333175
C            0.86831633790363       -0.05906928621928        0.00719380029841
C           -0.13222376936859        1.01519460110494        0.00574607809907
O            0.15760472926548        2.20282852852391       -0.00561352686481
N           -1.38862540713310        0.54472568598117        0.01178219039072
C           -2.61187912730632        3.86917598314243       -0.00454637357702
C           -1.82795484688168       -0.70478340094646        0.00281027551729
O           -2.98425007712341       -1.04001661562734       -0.00609218250065
N           -0.82024609414380       -1.77292359316082        0.00037586628265
C           -1.24580959049970       -3.14943323933349        0.00382907265010
H            3.49225624854683        1.27589063760503        1.01213964774581
H            3.85208720786888        1.06914554290300       -0.71280893369096
H            2.41626150258434        1.99863999261359       -0.19720852830056
H            3.68717015887472       -1.62383952221311       -0.03342989284796
H           -1.61387162070975        3.45412079197682       -0.01565518222255
H           -3.11730725349135        4.09317281655740       -0.92510335553626
H           -3.11459379051791        4.04293982179177        0.92835963214317
H           -0.88696491684183       -3.66569159887465        0.89649490787048
H           -0.89692552769911       -3.66854877440213       -0.89091232141639
H           -2.33725279229591       -3.14584979850269        0.00931762357380
H            1.65406748688128       -3.15779534129285       -0.03109364111036

          :  Hamiltonian                  GFN2-xTB          :
         :: total energy             -42.155045617858 Eh    ::
         :: gradient norm              0.004080679254 Eh/a0 ::
         :: HOMO-LUMO gap              1.540355691906 eV    ::
         :: SCC energy               -42.679747810290 Eh    ::
         :: -> dispersion             -0.021097470190 Eh    ::
         :: repulsion energy           0.524669054626 Eh    ::

    * Orbital Energies and Occupations

         #    Occupation            Energy/Eh            Energy/eV
      -------------------------------------------------------------
         1        2.0000           -0.9081571             -24.7122
       ...           ...                  ...                  ...
        25        1.9980           -0.6580786             -17.9072
        26        1.9974           -0.6520872             -17.7442
        27        1.9946           -0.6344876             -17.2653
        28        1.9908           -0.6217801             -16.9195
        29        1.9895           -0.6186391             -16.8340
        30        1.9884           -0.6163373             -16.7714
        31        1.9808           -0.6042032             -16.4412
        32        1.9807           -0.6040593             -16.4373
        33        1.9365           -0.5752585             -15.6536
        34        1.8749           -0.5583937             -15.1947
        35        1.8681           -0.5570515             -15.1581
        36        1.8166           -0.5485627             -14.9272
        37        1.7151           -0.5367366             -14.6053 (HOMO)
        38        0.7142           -0.4801295             -13.0650 (LUMO)
        39        0.1242           -0.4296115             -11.6903
        40        0.0269           -0.3920800             -10.6690
        41        0.0079           -0.3626826              -9.8691
        42        0.0001           -0.2669229              -7.2633
        43        0.0000           -0.1968087              -5.3554
        44        0.0000           -0.1783917              -4.8543
        45        0.0000           -0.1419575              -3.8629
        46                         -0.0827752              -2.2524
        47                         -0.0590746              -1.6075
        48                         -0.0393040              -1.0695
       ...                                ...                  ...
        67                          0.5534357              15.0598
      -------------------------------------------------------------
                  HL-Gap            0.0566070 Eh            1.5404 eV

     #   Z          covCN         q      C6AA      α(0)
     1   6 C        3.691    -0.090    22.412     6.774
     2   7 N        2.827     0.079    19.866     6.620
     3   6 C        3.045     0.050    26.835     8.496
     4   7 N        2.790    -0.066    22.517     7.048
     5   6 C        3.026     0.121    25.312     8.253
     6   6 C        3.117    -0.015    28.205     8.699
     7   6 C        2.763     0.293    22.026     7.686
     8   8 O        0.858    -0.358    20.858     6.123
     9   7 N        1.843    -0.239    27.098     7.715
    10   6 C        2.778    -0.082    30.036     8.976
    11   6 C        2.708     0.337    21.271     7.549
    12   8 O        0.860    -0.317    20.087     6.009
    13   7 N        2.735    -0.064    22.484     7.042
    14   6 C        3.692    -0.067    21.973     6.707
    15   1 H        0.924     0.111     1.685     2.030
    16   1 H        0.925     0.106     1.729     2.056
    17   1 H        0.924     0.137     1.482     1.904
    18   1 H        0.926     0.123     1.590     1.972
    19   1 H        0.926     0.150     1.388     1.843
    20   1 H        0.926     0.128     1.550     1.947
    21   1 H        0.926     0.128     1.551     1.947
    22   1 H        0.924     0.087     1.911     2.162
    23   1 H        0.924     0.087     1.911     2.162
    24   1 H        0.924     0.132     1.522     1.929
    25   1 H        0.860     0.228     0.974     1.546

Wiberg/Mayer (AO) data.
largest (>0.10) Wiberg bond orders for each atom

     #   Z sym  total        # sym  WBO       # sym  WBO       # sym  WBO
 ---------------------------------------------------------------------------
     1   6 C    3.902 --     2 N    0.989    16 H    0.961    17 H    0.955
                            15 H    0.950
     2   7 N    3.653 --     3 C    1.364     6 C    1.168     1 C    0.989
     3   6 C    3.785 --     2 N    1.364     4 N    1.265    18 H    0.953
     4   7 N    3.556 --     3 C    1.265     5 C    1.174    25 H    0.920
     5   6 C    3.922 --     6 C    1.322    13 N    1.257     4 N    1.174
     6   6 C    3.781 --     5 C    1.322     2 N    1.168     7 C    1.018
     7   6 C    3.922 --     8 O    1.591     9 N    1.234     6 C    1.018
     8   8 O    1.866 --     7 C    1.591     9 N    0.115
     9   7 N    2.826 --    11 C    1.277     7 C    1.234     8 O    0.115
                            12 O    0.105
    10   6 C    2.893 --    21 H    0.970    20 H    0.970    19 H    0.947
    11   6 C    3.933 --    12 O    1.663     9 N    1.277    13 N    0.916
    12   8 O    1.938 --    11 C    1.663     9 N    0.105
    13   7 N    3.433 --     5 C    1.257    14 C    0.989    11 C    0.916
    14   6 C    3.901 --    13 N    0.989    22 H    0.958    23 H    0.958
                            24 H    0.954
    15   1 H    0.978 --     1 C    0.950
    16   1 H    0.982 --     1 C    0.961
    17   1 H    0.977 --     1 C    0.955
    18   1 H    0.983 --     3 C    0.953
    19   1 H    0.963 --    10 C    0.947
    20   1 H    0.971 --    10 C    0.970
    21   1 H    0.971 --    10 C    0.970
    22   1 H    0.975 --    14 C    0.958
    23   1 H    0.975 --    14 C    0.958
    24   1 H    0.975 --    14 C    0.954
    25   1 H    0.947 --     4 N    0.920
 ---------------------------------------------------------------------------

molecular dipole:
                 x           y           z       tot (Debye)
 q only:        2.546      -1.131      -0.000
   full:        3.011      -1.762       0.005       8.869

           -------------------------------------------------
          | TOTAL ENERGY              -42.155045617858 Eh   |
          | GRADIENT NORM               0.004080679254 Eh/α |
          | HOMO-LUMO GAP               1.540355691906 eV   |
           -------------------------------------------------

 * finished run on 2024/06/05 at 19:58:53.144
