   * xtb version 6.6.1 (8d0f1dd) compiled by 'conda@1efc2f54142f' on 2023-08-01
          program call               : xtb struc.xyz --opt loose --input .xc1 --gfn2

   ID    Z sym.   atoms
    1    6 C      1, 3, 5-7, 10, 11, 14
    2    7 N      2, 4, 9, 13
    3    8 O      8, 12
    4    1 H      15-25
constraining bond 11 22 to    5.1400000 Å, actual value:    3.1884051 Å

          :  Hamiltonian                  GFN2-xTB          :
 * total energy  :   -35.4472620 Eh     change       -0.6650680E-10 Eh
 * total energy  :   -38.5893199 Eh     change       -0.3142058E+01 Eh
 * total energy  :   -40.6978011 Eh     change       -0.2108481E+01 Eh
 * total energy  :   -41.6935720 Eh     change       -0.9957709E+00 Eh
 * total energy  :   -41.9533425 Eh     change       -0.2597706E+00 Eh
 * total energy  :   -41.9772773 Eh     change       -0.2393476E-01 Eh
 * total energy  :   -41.9885553 Eh     change       -0.1127800E-01 Eh
 * total energy  :   -42.0133330 Eh     change       -0.2477771E-01 Eh
 * total energy  :   -42.0250704 Eh     change       -0.1173736E-01 Eh
 * total energy  :   -42.0329158 Eh     change       -0.7845456E-02 Eh
 * total energy  :   -42.1581957 Eh     change       -0.7711970E-04 Eh
 * total energy  :   -42.1582501 Eh     change       -0.5442745E-04 Eh
 * total energy  :   -42.1582991 Eh     change       -0.4904008E-04 Eh
 * total energy  :   -42.1583604 Eh     change       -0.6128637E-04 Eh
 * total energy  :   -42.1584160 Eh     change       -0.5558090E-04 Eh
 * total energy  :   -42.1584701 Eh     change       -0.5411443E-04 Eh
 * total energy  :   -42.1585030 Eh     change       -0.3294186E-04 Eh
 * total energy  :   -42.1585385 Eh     change       -0.3541160E-04 Eh
 * total energy  :   -42.1585727 Eh     change       -0.3427453E-04 Eh
   *** GEOMETRY OPTIMIZATION CONVERGED AFTER 82 ITERATIONS ***

 final structure:
================
25
 xtb: 6.6.1 (8d0f1dd)
C            3.08273682142464        1.13874319788232       -0.26828043025602
N            2.13739336944647        0.07147797943510       -0.09342135137393
C            2.42906007164373       -1.19095848790983        0.13543603913182
N            1.31249041908860       -1.92100042982728        0.24912790081495
C            0.18396409570959       -1.09223059052417        0.08939493010371
C            0.74797008384602        0.21249117218446       -0.15069247549747
C            0.13927917406009        1.44274474459066       -0.37799146482538
O            0.56853702922653        2.55264807761180       -0.51609003375719
N           -1.42432226821296        1.30457888468916       -0.45938424174774
C           -2.13151475459456        1.73883645836204        0.73512511641007
C           -1.90708788645972        0.97877510542063       -1.55353956967439
O           -2.20271838576745        0.63525488754837       -2.60502841445012
N           -1.04641962117231       -1.40094124110217        0.16380617584925
C           -1.51499061602688       -2.72716340012299        0.42683937116469
H            2.97816284273084        1.86937875397132        0.53458494412584
H            4.09143516738047        0.73387762085702       -0.26521895914035
H            2.89708687967826        1.65411988117519       -1.21088872306143
H            3.42673102022318       -1.58138666124941        0.21565383412511
H           -1.76981207891096        2.72814035348600        1.01517612586255
H           -3.20222545006401        1.78022894434475        0.54913862058564
H           -1.92773195295553        1.02792157767530        1.53687809765266
H           -0.96597454813365       -3.24011005126914        1.22612791953488
H           -1.45967311820090       -3.33621042250616       -0.47982906142467
H           -2.56174128007866       -2.64718915017816        0.71519609661670
H            1.27979650022557       -2.91378866294012        0.41905117113559

          :  Hamiltonian                  GFN2-xTB          :
         :: total energy             -42.158572735730 Eh    ::
         :: gradient norm              0.003714004200 Eh/a0 ::
         :: HOMO-LUMO gap              2.006818823103 eV    ::
         :: SCC energy               -42.730312379323 Eh    ::
         :: -> dispersion             -0.022145321131 Eh    ::
         :: repulsion energy           0.571493235030 Eh    ::

    * Orbital Energies and Occupations

         #    Occupation            Energy/Eh            Energy/eV
      -------------------------------------------------------------
         1        2.0000           -0.9316922             -25.3526
       ...           ...                  ...                  ...
        25        2.0000           -0.6720954             -18.2886
        26        2.0000           -0.6653195             -18.1043
        27        2.0000           -0.6497840             -17.6815
        28        1.9999           -0.6382148             -17.3667
        29        1.9999           -0.6357918             -17.3008
        30        1.9999           -0.6310769             -17.1725
        31        1.9995           -0.6071895             -16.5225
        32        1.9993           -0.6018359             -16.3768
        33        1.9990           -0.5947791             -16.1848
        34        1.9986           -0.5898916             -16.0518
        35        1.9977           -0.5820312             -15.8379
        36        1.9166           -0.5244118             -14.2700
        37        1.8321           -0.5126183             -13.9491 (HOMO)
        38        0.1876           -0.4388691             -11.9422 (LUMO)
        39        0.0645           -0.4209090             -11.4535
        40        0.0031           -0.3724372             -10.1345
        41        0.0022           -0.3670705              -9.9885
        42        0.0000           -0.2936928              -7.9918
        43        0.0000           -0.2440257              -6.6403
        44                         -0.1721227              -4.6837
        45                         -0.1269301              -3.4539
        46                         -0.0912383              -2.4827
        47                         -0.0766849              -2.0867
        48                         -0.0307140              -0.8358
       ...                                ...                  ...
        67                          1.0285553              27.9884
      -------------------------------------------------------------
                  HL-Gap            0.0737492 Eh            2.0068 eV

     #   Z          covCN         q      C6AA      α(0)
     1   6 C        3.693    -0.085    22.303     6.757
     2   7 N        2.813     0.066    20.087     6.657
     3   6 C        2.979     0.074    26.337     8.418
     4   7 N        2.781    -0.097    23.127     7.143
     5   6 C        2.945     0.142    24.898     8.184
     6   6 C        3.060    -0.043    28.996     8.831
     7   6 C        2.749     0.257    22.682     7.798
     8   8 O        0.857    -0.321    20.160     6.020
     9   7 N        2.713    -0.020    21.648     6.910
    10   6 C        3.695    -0.066    21.948     6.702
    11   6 C        1.794     0.330    23.853     7.893
    12   8 O        0.856    -0.109    16.651     5.471
    13   7 N        1.824    -0.263    27.671     7.794
    14   6 C        3.702    -0.032    21.310     6.601
    15   1 H        0.924     0.112     1.676     2.024
    16   1 H        0.925     0.096     1.818     2.109
    17   1 H        0.924     0.113     1.674     2.023
    18   1 H        0.926     0.110     1.698     2.038
    19   1 H        0.925     0.117     1.640     2.002
    20   1 H        0.925     0.103     1.755     2.071
    21   1 H        0.924     0.108     1.712     2.046
    22   1 H        0.924     0.046     2.375     2.410
    23   1 H        0.924     0.067     2.122     2.278
    24   1 H        0.925     0.079     1.989     2.205
    25   1 H        0.860     0.215     1.033     1.592

Wiberg/Mayer (AO) data.
largest (>0.10) Wiberg bond orders for each atom

     #   Z sym  total        # sym  WBO       # sym  WBO       # sym  WBO
 ---------------------------------------------------------------------------
     1   6 C    3.929 --     2 N    0.993    16 H    0.975    17 H    0.959
                            15 H    0.957
     2   7 N    3.669 --     3 C    1.418     6 C    1.090     1 C    0.993
                             4 N    0.107
     3   6 C    3.879 --     2 N    1.418     4 N    1.309    18 H    0.951
     4   7 N    3.537 --     3 C    1.309     5 C    1.049    25 H    0.925
                             2 N    0.107
     5   6 C    3.945 --    13 N    1.626     6 C    1.141     4 N    1.049
     6   6 C    3.835 --     7 C    1.278     5 C    1.141     2 N    1.090
                             8 O    0.115
     7   6 C    3.866 --     8 O    1.743     6 C    1.278     9 N    0.696
     8   8 O    2.116 --     7 C    1.743     6 C    0.115
     9   7 N    3.580 --    11 C    1.607    10 C    0.934     7 C    0.696
                            12 O    0.245
    10   6 C    3.894 --    20 H    0.974    21 H    0.965    19 H    0.964
                             9 N    0.934
    11   6 C    3.800 --    12 O    2.080     9 N    1.607
    12   8 O    2.423 --    11 C    2.080     9 N    0.245
    13   7 N    2.924 --     5 C    1.626    14 C    1.034
    14   6 C    3.952 --    13 N    1.034    24 H    0.970    22 H    0.960
                            23 H    0.950
    15   1 H    0.985 --     1 C    0.957
    16   1 H    0.990 --     1 C    0.975
    17   1 H    0.985 --     1 C    0.959
    18   1 H    0.986 --     3 C    0.951
    19   1 H    0.986 --    10 C    0.964
    20   1 H    0.988 --    10 C    0.974
    21   1 H    0.988 --    10 C    0.965
    22   1 H    0.981 --    14 C    0.960
    23   1 H    0.976 --    14 C    0.950
    24   1 H    0.984 --    14 C    0.970
    25   1 H    0.953 --     4 N    0.925
 ---------------------------------------------------------------------------

molecular dipole:
                 x           y           z       tot (Debye)
 q only:        0.953      -0.640       0.379
   full:        1.226      -1.214       0.452       4.533

           -------------------------------------------------
          | TOTAL ENERGY              -42.158572735730 Eh   |
          | GRADIENT NORM               0.003714004200 Eh/α |
          | HOMO-LUMO GAP               2.006818823103 eV   |
           -------------------------------------------------

 * finished run on 2024/06/05 at 19:58:01.961
