   * xtb version 6.6.1 (8d0f1dd) compiled by 'conda@1efc2f54142f' on 2023-08-01
          program call               : xtb xtbopt.xyz --opt crude --input .xc2 --gfn2

   ID    Z sym.   atoms
    1    6 C      1, 3, 5-7, 10, 11, 14
    2    7 N      2, 4, 9, 13
    3    8 O      8, 12
    4    1 H      15-25
########################################################################
[WARNING] Please study the warnings concerning your input carefully
-1- readin_getIntValue: could not parse ''
########################################################################

          :  Hamiltonian                  GFN2-xTB          :
 * total energy  :   -42.0794739 Eh     change       -0.1182343E-10 Eh
   *** GEOMETRY OPTIMIZATION CONVERGED AFTER 1 ITERATIONS ***

 final structure:
================
25
 xtb: 6.6.1 (8d0f1dd)
C            3.07182311094239        0.99213958537313        0.75758669776906
N            2.44738452520562        0.21929117043762       -0.29385512025572
C            3.07018561577123       -0.16037755642833       -1.31618204216690
N            1.24079986390481       -2.28198455668337        0.20092895857413
C            0.47146151765813       -1.26817568924165        0.05170475739054
C            1.03089071275011        0.02387113850512       -0.18179981159828
C            0.22032891690183        1.20832745482387       -0.30811274010130
O            0.68329679059772        2.32223542517901       -0.47951574175969
N           -1.14762053988016        0.99495772572865       -0.21912967527757
C           -2.03461513882338        2.13273559442611       -0.35349583785815
C           -1.75076718173440       -0.23038155771080       -0.00466632306983
O           -2.94922359657852       -0.33319168267716        0.05650693564092
N           -0.91417842296435       -1.32816727032148        0.14172797729260
C           -1.54943369002471       -2.60492974014767        0.40657754932135
H            2.83608975554159        0.54817606936681        1.72642403978456
H            4.14998920458417        1.00806544202503        0.60185395978372
H            2.68175802720112        2.01409998100203        0.72736229524780
H            2.70097817598645       -0.72118612220235       -2.15948930718986
H           -1.43282772465033        3.03974097280267       -0.36720468693028
H           -2.60904627051106        2.05395112142377       -1.27968254858369
H           -2.74256658151058        2.14681014971151        0.47686555291467
H           -1.28070488644018       -2.96915126908893        1.40068094738393
H           -1.26197218619906       -3.34028668906692       -0.34682112408256
H           -2.62827894365471       -2.45684756649942        0.36658254778943
H            0.85668046003120       -3.19148358913657        0.42632435787953

          :  Hamiltonian                  GFN2-xTB          :
         :: total energy             -42.079473911582 Eh    ::
         :: gradient norm              0.007189910212 Eh/a0 ::
         :: HOMO-LUMO gap              0.523901796350 eV    ::
         :: SCC energy               -42.595166193971 Eh    ::
         :: -> dispersion             -0.022565757823 Eh    ::
         :: repulsion energy           0.515490989489 Eh    ::

    * Orbital Energies and Occupations

         #    Occupation            Energy/Eh            Energy/eV
      -------------------------------------------------------------
         1        2.0000           -0.8969315             -24.4067
       ...           ...                  ...                  ...
        25        1.9992           -0.6663310             -18.1318
        26        1.9983           -0.6546026             -17.8126
        27        1.9981           -0.6527405             -17.7620
        28        1.9964           -0.6425978             -17.4860
        29        1.9939           -0.6343010             -17.2602
        30        1.9929           -0.6318122             -17.1925
        31        1.9879           -0.6234374             -16.9646
        32        1.9541           -0.6020510             -16.3826
        33        1.9044           -0.5900371             -16.0557
        34        1.8961           -0.5886540             -16.0181
        35        1.8413           -0.5814776             -15.8228
        36        1.7761           -0.5754519             -15.6588
        37        1.5882           -0.5640377             -15.3482 (HOMO)
        38        1.0669           -0.5447847             -14.8243 (LUMO)
        39        0.0065           -0.4518928             -12.2966
        40        0.0004           -0.4072135             -11.0808
        41        0.0002           -0.3971957             -10.8082
        42        0.0000           -0.3092419              -8.4149
        43                         -0.2193748              -5.9695
        44                         -0.1681837              -4.5765
        45                         -0.1403134              -3.8181
        46                         -0.1022967              -2.7836
        47                         -0.0905715              -2.4646
        48                         -0.0509567              -1.3866
       ...                                ...                  ...
        67                          0.5107245              13.8975
      -------------------------------------------------------------
                  HL-Gap            0.0192530 Eh            0.5239 eV

     #   Z          covCN         q      C6AA      α(0)
     1   6 C        3.713    -0.096    22.477     6.774
     2   7 N        2.731     0.171    18.389     6.369
     3   6 C        1.895    -0.011    31.409     9.051
     4   7 N        1.788    -0.277    28.026     7.841
     5   6 C        2.820     0.167    24.393     8.093
     6   6 C        2.940    -0.023    28.574     8.767
     7   6 C        2.768     0.266    22.506     7.769
     8   8 O        0.859    -0.351    20.718     6.103
     9   7 N        2.743    -0.061    22.426     7.033
    10   6 C        3.706    -0.062    21.839     6.680
    11   6 C        2.718     0.322    21.534     7.596
    12   8 O        0.860    -0.334    20.405     6.056
    13   7 N        2.744    -0.066    22.511     7.047
    14   6 C        3.702    -0.065    21.908     6.693
    15   1 H        0.924     0.114     1.665     2.018
    16   1 H        0.925     0.128     1.554     1.949
    17   1 H        0.924     0.140     1.459     1.889
    18   1 H        0.926     0.146     1.419     1.863
    19   1 H        0.925     0.125     1.575     1.962
    20   1 H        0.924     0.119     1.623     1.992
    21   1 H        0.924     0.120     1.613     1.986
    22   1 H        0.924     0.099     1.793     2.094
    23   1 H        0.924     0.098     1.806     2.102
    24   1 H        0.925     0.127     1.557     1.951
    25   1 H        0.860     0.205     1.081     1.629

Wiberg/Mayer (AO) data.
largest (>0.10) Wiberg bond orders for each atom

     #   Z sym  total        # sym  WBO       # sym  WBO       # sym  WBO
 ---------------------------------------------------------------------------
     1   6 C    3.877 --     2 N    0.963    16 H    0.963    15 H    0.955
                            17 H    0.932
     2   7 N    3.752 --     3 C    1.795     1 C    0.963     6 C    0.960
     3   6 C    2.922 --     2 N    1.795    18 H    0.919
     4   7 N    2.685 --     5 C    1.590    25 H    0.917
     5   6 C    3.957 --     4 N    1.590     6 C    1.180    13 N    1.093
     6   6 C    3.494 --     5 C    1.180     7 C    1.122     2 N    0.960
     7   6 C    3.939 --     8 O    1.622     6 C    1.122     9 N    1.096
     8   8 O    1.885 --     7 C    1.622     9 N    0.114
     9   7 N    3.463 --    11 C    1.102     7 C    1.096    10 C    0.982
                             8 O    0.114    12 O    0.106
    10   6 C    3.858 --     9 N    0.982    19 H    0.958    21 H    0.942
                            20 H    0.934
    11   6 C    3.954 --    12 O    1.671     9 N    1.102    13 N    1.098
    12   8 O    1.971 --    11 C    1.671    13 N    0.113     9 N    0.106
    13   7 N    3.446 --    11 C    1.098     5 C    1.093    14 C    0.983
                            12 O    0.113
    14   6 C    3.891 --    13 N    0.983    24 H    0.956    23 H    0.954
                            22 H    0.951
    15   1 H    0.983 --     1 C    0.955
    16   1 H    0.977 --     1 C    0.963
    17   1 H    0.974 --     1 C    0.932
    18   1 H    0.944 --     3 C    0.919
    19   1 H    0.976 --    10 C    0.958
    20   1 H    0.951 --    10 C    0.934
    21   1 H    0.958 --    10 C    0.942
    22   1 H    0.968 --    14 C    0.951
    23   1 H    0.971 --    14 C    0.954
    24   1 H    0.978 --    14 C    0.956
    25   1 H    0.946 --     4 N    0.917
 ---------------------------------------------------------------------------

molecular dipole:
                 x           y           z       tot (Debye)
 q only:        1.496      -0.689       0.136
   full:        1.166      -1.005       0.076       3.916

           -------------------------------------------------
          | TOTAL ENERGY              -42.079473911582 Eh   |
          | GRADIENT NORM               0.007189910212 Eh/α |
          | HOMO-LUMO GAP               0.523901796350 eV   |
           -------------------------------------------------

 * finished run on 2024/06/05 at 19:57:55.085
