   * xtb version 6.6.1 (8d0f1dd) compiled by 'conda@1efc2f54142f' on 2023-08-01
          program call               : xtb struc.xyz --opt loose --input .xc1 --gfn2

   ID    Z sym.   atoms
    1    7 N      1, 17
    2    6 C      2-6, 8, 9, 11-16, 18-23, 25, 26, 28-33
    3    8 O      7, 10, 24, 27
    4    1 H      34-72
constraining bond 26 53 to    4.7133300 Å, actual value:    3.8619669 Å

          :  Hamiltonian                  GFN2-xTB          :
 * total energy  :   -99.5335497 Eh     change       -0.4035485E-08 Eh
 * total energy  :   -99.6657797 Eh     change       -0.1322300E+00 Eh
 * total energy  :   -99.7751663 Eh     change       -0.1093866E+00 Eh
 * total energy  :   -99.8725211 Eh     change       -0.9735475E-01 Eh
 * total energy  :  -100.0592610 Eh     change       -0.1867400E+00 Eh
 * total energy  :   -99.6847349 Eh     change        0.3745261E+00 Eh
 * total energy  :  -100.2385766 Eh     change       -0.5538417E+00 Eh
 * total energy  :  -100.5031469 Eh     change       -0.2645703E+00 Eh
 * total energy  :  -100.8569763 Eh     change       -0.3538294E+00 Eh
 * total energy  :  -101.3973188 Eh     change       -0.5403425E+00 Eh
 * total energy  :  -101.9281937 Eh     change       -0.1099628E-03 Eh
 * total energy  :  -101.9282944 Eh     change       -0.1007452E-03 Eh
 * total energy  :  -101.9283992 Eh     change       -0.1047940E-03 Eh
 * total energy  :  -101.9285178 Eh     change       -0.1185666E-03 Eh
 * total energy  :  -101.9286404 Eh     change       -0.1226771E-03 Eh
 * total energy  :  -101.9287341 Eh     change       -0.9363460E-04 Eh
 * total energy  :  -101.9288130 Eh     change       -0.7897189E-04 Eh
 * total energy  :  -101.9288930 Eh     change       -0.7994666E-04 Eh
 * total energy  :  -101.9289339 Eh     change       -0.4094013E-04 Eh
   *** GEOMETRY OPTIMIZATION CONVERGED AFTER 68 ITERATIONS ***

 final structure:
================
72
 xtb: 6.6.1 (8d0f1dd)
N           -1.66826653363179        2.82928838661890        2.28687055143700
C           -1.64952803028843        2.11024311772324        1.26597171611496
C           -2.81559243318561        1.91287671974674        0.33708622995504
C           -3.31444874226046        0.48027952310325        0.44930658696228
C           -4.20850719762278       -0.01990996105212       -0.49964430510086
C           -4.69846701954793       -1.31270908589086       -0.42130179946958
O           -5.55665211926895       -1.87546637464263       -1.29755643440047
C           -6.06422895744195       -1.10275261531059       -2.35930687677437
C           -4.28942975710480       -2.15252144548892        0.64977505194075
O           -4.81636682507956       -3.39323082636802        0.64702896130494
C           -4.53485730994060       -4.25961434877677        1.72143564428118
C           -3.40696513211919       -1.64747073575280        1.59135912100991
C           -2.92553439580507       -0.34848561915348        1.49016386501183
C           -2.26795947593305        2.17868485947213       -1.08932947943989
C           -1.36994694218579        1.05952060118812       -1.64204173682289
C           -0.00674311993478        1.03663144806944       -1.06517089311791
N            0.66102067754284       -0.05372640677210       -0.70822845622221
C            2.09695559608560       -0.00665584708965       -0.57505144748374
C            2.78294091262041       -0.29537186898479       -1.93264444048555
C            4.24620070597836       -0.42914408617912       -1.75549764411096
C            5.32140996038746        0.40155499832717       -1.82019976985358
C            5.96287929453751        1.46410330323599       -1.06607825726196
C            6.72485611671739        0.53693264321308       -0.41620136304017
O            7.52530837768945        0.50127343870186        0.63500270461202
C            7.73428620246065        1.73135424385991        1.30945575610292
C            6.34974884893809       -0.63074327749307       -1.33602663264981
O            4.62531864434562       -1.82377136879883        0.16037208766537
C            5.53359975307530       -2.60958576236185        0.90515341050509
C            5.06115992739862       -1.55800687329447       -1.13849360788370
C            0.02860006186043       -1.34908666673975       -0.63753828987259
C           -4.01214637328450        2.86714674657643        0.62814394489663
C           -4.64398963736443        2.57897244212430        1.98780055144895
C           -3.63703548995083        4.34370895545770        0.53844036337911
H           -4.53549405095174        0.61669331797042       -1.30481373610873
H           -6.61501746055421       -0.23061553630523       -1.99443737470185
H           -6.74565397104905       -1.75874215962349       -2.89734779768481
H           -5.26797920501216       -0.77689235704259       -3.03681737407240
H           -4.85906027311685       -3.83288601222495        2.67512977559957
H           -5.10139062808527       -5.16677630816748        1.52066583448811
H           -3.46879261945473       -4.50276767377081        1.77317610668111
H           -3.09137997037116       -2.25621314570220        2.42293283932000
H           -2.25995742300139        0.01785254609420        2.25623819097235
H           -3.10955573121511        2.30786018852155       -1.76885084299159
H           -1.70664022021993        3.11375220354911       -1.08182545728041
H           -1.86930993659998        0.09848158365038       -1.53228395936252
H           -1.25264300813362        1.25212450650369       -2.71716197092844
H           -0.75093086759826        1.56845202096360        0.90941449084702
H            0.55990552317580        1.95626546723586       -1.09252031704505
H            2.43118214770879       -0.75074576848394        0.14919290489586
H            2.40303669547042        0.98152415250432       -0.22675450423880
H            2.56707147907403        0.51669789168518       -2.62942628291176
H            2.37776515833595       -1.22615320916270       -2.33698847312013
H            6.88500889011633       -0.91273237038443       -1.76568686357649
H            5.77107342059499        2.51299368407493       -0.96416660133113
H            6.79882342386357        2.09570639517012        1.74181068685140
H            8.13430105551458        2.48408624340860        0.62603051174514
H            8.45352049383360        1.52766206868719        2.09925133133469
H            6.49360937693076       -2.09760328092681        1.02173511598030
H            5.07814679222238       -2.75890445408709        1.88173742695478
H            5.70068386601454       -3.57968777223573        0.42553717860048
H            5.17458433631728       -2.48883412551567       -1.71667662613243
H           -0.20009527762169       -1.74077547422674       -1.63157731016076
H           -0.89906606687919       -1.28499982452037       -0.06493642069837
H            0.69921668214974       -2.04459378970017       -0.13820884936086
H           -4.76431766610777        2.65998760976718       -0.14215043010120
H           -3.93059887875128        2.78152263659823        2.78007499717419
H           -4.96874685232501        1.54391319252469        2.05962495211338
H           -5.51046974688435        3.21971204336261        2.12891791737368
H           -2.87394276612252        4.58369759665191        1.27249355988089
H           -3.28056489317050        4.61414399190675       -0.45200744598525
H           -4.51496564842224        4.94795833941503        0.75162043842119
H           -0.81246017036528        2.90865684706311        2.82726410852342

          :  Hamiltonian                  GFN2-xTB          :
         :: total energy            -101.928933932025 Eh    ::
         :: gradient norm              0.002754600286 Eh/a0 ::
         :: HOMO-LUMO gap              1.675495527625 eV    ::
         :: SCC energy              -100.638153481064 Eh    ::
         :: -> dispersion             -0.074220472661 Eh    ::
         :: repulsion energy           1.523617276061 Eh    ::

    * Orbital Energies and Occupations

         #    Occupation            Energy/Eh            Energy/eV
      -------------------------------------------------------------
         1        2.0000           -0.8258610             -22.4728
       ...           ...                  ...                  ...
        78        1.9983           -0.5272504             -14.3472
        79        1.9982           -0.5266215             -14.3301
        80        1.9980           -0.5253417             -14.2953
        81        1.9973           -0.5204147             -14.1612
        82        1.9958           -0.5133198             -13.9681
        83        1.9951           -0.5107728             -13.8988
        84        1.9942           -0.5080655             -13.8252
        85        1.9931           -0.5053695             -13.7518
        86        1.9804           -0.4887449             -13.2994
        87        1.9622           -0.4781908             -13.0122
        88        1.9376           -0.4700520             -12.7908
        89        1.8685           -0.4576695             -12.4538
        90        1.8472           -0.4551122             -12.3842 (HOMO)
        91        0.3967           -0.3935389             -10.7087 (LUMO)
        92        0.0238           -0.3456507              -9.4056
        93        0.0140           -0.3371679              -9.1748
        94        0.0034           -0.3146187              -8.5612
        95        0.0028           -0.3115336              -8.4773
        96        0.0010           -0.2951191              -8.0306
        97        0.0000           -0.1888513              -5.1389
        98        0.0000           -0.1598665              -4.3502
        99                         -0.1298547              -3.5335
       100                         -0.0914506              -2.4885
       101                         -0.0685846              -1.8663
       ...                                ...                  ...
       171                          1.4621816              39.7880
      -------------------------------------------------------------
                  HL-Gap            0.0615733 Eh            1.6755 eV

     #   Z          covCN         q      C6AA      α(0)
     1   7 N        1.774    -0.269    27.798     7.807
     2   6 C        2.827     0.102    25.732     8.312
     3   6 C        3.908     0.006    20.413     6.422
     4   6 C        2.974     0.002    27.972     8.675
     5   6 C        2.920    -0.080    30.012     8.984
     6   6 C        2.862     0.129    25.170     8.223
     7   8 O        1.706    -0.230    17.818     5.699
     8   6 C        3.644     0.028    20.443     6.499
     9   6 C        2.864     0.129    25.178     8.225
    10   8 O        1.706    -0.228    17.789     5.695
    11   6 C        3.645     0.027    20.459     6.501
    12   6 C        2.914    -0.074    29.840     8.958
    13   6 C        2.921    -0.053    29.306     8.877
    14   6 C        3.813    -0.065    21.735     6.636
    15   6 C        3.802    -0.069    21.823     6.651
    16   6 C        2.845     0.006    27.883     8.654
    17   7 N        2.729     0.014    21.016     6.809
    18   6 C        3.757    -0.022    21.025     6.537
    19   6 C        3.802    -0.062    21.684     6.630
    20   6 C        3.142    -0.029    28.460     8.730
    21   6 C        3.754    -0.002    20.663     6.482
    22   6 C        3.100    -0.081    29.901     8.961
    23   6 C        3.361     0.160    21.912     7.347
    24   8 O        1.704    -0.216    17.588     5.662
    25   6 C        3.662     0.021    20.490     6.494
    26   6 C        4.259    -0.086    22.051     6.669
    27   8 O        1.701    -0.308    19.126     5.905
    28   6 C        3.655     0.032    20.338     6.475
    29   6 C        4.055     0.118    18.582     6.123
    30   6 C        3.700    -0.071    22.027     6.712
    31   6 C        3.853    -0.007    20.668     6.466
    32   6 C        3.756    -0.119    22.828     6.812
    33   6 C        3.755    -0.118    22.821     6.812
    34   1 H        0.926     0.052     2.298     2.371
    35   1 H        0.924     0.054     2.274     2.358
    36   1 H        0.925     0.081     1.969     2.195
    37   1 H        0.924     0.046     2.367     2.406
    38   1 H        0.924     0.055     2.256     2.349
    39   1 H        0.925     0.081     1.969     2.194
    40   1 H        0.924     0.049     2.333     2.389
    41   1 H        0.926     0.053     2.281     2.362
    42   1 H        0.926     0.041     2.441     2.443
    43   1 H        0.925     0.059     2.207     2.323
    44   1 H        0.924     0.053     2.281     2.362
    45   1 H        0.925     0.066     2.125     2.279
    46   1 H        0.923     0.079     1.986     2.204
    47   1 H        0.922     0.006     2.952     2.687
    48   1 H        0.926     0.068     2.103     2.268
    49   1 H        0.924     0.090     1.884     2.146
    50   1 H        0.924     0.068     2.107     2.270
    51   1 H        0.924     0.059     2.216     2.328
    52   1 H        0.924     0.061     2.188     2.313
    53   1 H        0.930     0.103     1.755     2.071
    54   1 H        0.926     0.054     2.270     2.356
    55   1 H        0.924     0.059     2.214     2.327
    56   1 H        0.924     0.064     2.148     2.292
    57   1 H        0.925     0.085     1.923     2.169
    58   1 H        0.924     0.052     2.293     2.368
    59   1 H        0.925     0.067     2.122     2.278
    60   1 H        0.924     0.042     2.418     2.432
    61   1 H        0.923     0.031     2.570     2.507
    62   1 H        0.924     0.075     2.036     2.231
    63   1 H        0.924     0.079     1.987     2.204
    64   1 H        0.925     0.084     1.935     2.175
    65   1 H        0.924     0.037     2.490     2.468
    66   1 H        0.925     0.069     2.098     2.265
    67   1 H        0.925     0.036     2.506     2.476
    68   1 H        0.925     0.051     2.307     2.375
    69   1 H        0.925     0.060     2.195     2.317
    70   1 H        0.925     0.034     2.526     2.486
    71   1 H        0.925     0.054     2.269     2.356
    72   1 H        0.860     0.156     1.358     1.826

Wiberg/Mayer (AO) data.
largest (>0.10) Wiberg bond orders for each atom

     #   Z sym  total        # sym  WBO       # sym  WBO       # sym  WBO
 ---------------------------------------------------------------------------
     1   7 N    3.038 --     2 C    1.957    72 H    0.942
     2   6 C    3.929 --     1 N    1.957     3 C    0.994    47 H    0.902
     3   6 C    3.975 --     2 C    0.994     4 C    0.969    14 C    0.958
                            31 C    0.942
     4   6 C    3.948 --    13 C    1.414     5 C    1.368     3 C    0.969
     5   6 C    3.962 --     6 C    1.401     4 C    1.368    34 H    0.958
     6   6 C    3.904 --     5 C    1.401     9 C    1.222     7 O    1.098
     7   8 O    2.253 --     6 C    1.098     8 C    0.979
     8   6 C    3.933 --     7 O    0.979    36 H    0.977    37 H    0.974
                            35 H    0.973
     9   6 C    3.901 --    12 C    1.391     6 C    1.222    10 O    1.102
    10   8 O    2.252 --     9 C    1.102    11 C    0.977
    11   6 C    3.931 --    10 O    0.977    39 H    0.977    40 H    0.973
                            38 H    0.973
    12   6 C    3.962 --    13 C    1.405     9 C    1.391    41 H    0.964
    13   6 C    3.954 --     4 C    1.414    12 C    1.405    42 H    0.963
    14   6 C    3.975 --    15 C    0.984    44 H    0.972    43 H    0.969
                             3 C    0.958
    15   6 C    3.985 --    16 C    1.058    14 C    0.984    45 H    0.960
                            46 H    0.925
    16   6 C    3.594 --    17 N    1.404    15 C    1.058    48 H    0.958
    17   7 N    3.484 --    16 C    1.404    30 C    0.999    18 C    0.989
    18   6 C    3.945 --    17 N    0.989    50 H    0.967    49 H    0.962
                            19 C    0.949
    19   6 C    3.974 --    20 C    1.031    51 H    0.969    52 H    0.965
                            18 C    0.949
    20   6 C    3.832 --    21 C    1.626    19 C    1.031    29 C    0.971
    21   6 C    3.848 --    20 C    1.626    22 C    1.111    26 C    0.953
    22   6 C    3.898 --    23 C    1.587    21 C    1.111    54 H    0.966
                            24 O    0.120
    23   6 C    3.884 --    22 C    1.587    24 O    1.154    26 C    0.967
    24   8 O    2.307 --    23 C    1.154    25 C    0.956    22 C    0.120
    25   6 C    3.922 --    57 H    0.978    56 H    0.976    55 H    0.976
                            24 O    0.956
    26   6 C    3.935 --    53 H    0.970    23 C    0.967    21 C    0.953
                            29 C    0.911
    27   8 O    2.090 --    29 C    0.998    28 C    0.976
    28   6 C    3.936 --    59 H    0.978    60 H    0.977    27 O    0.976
                            58 H    0.976
    29   6 C    3.935 --    27 O    0.998    20 C    0.971    61 H    0.945
                            26 C    0.911
    30   6 C    3.957 --    17 N    0.999    64 H    0.976    62 H    0.965
                            63 H    0.965
    31   6 C    3.972 --    33 C    1.009    32 C    1.008    65 H    0.960
                             3 C    0.942
    32   6 C    3.979 --    31 C    1.008    67 H    0.982    68 H    0.981
                            66 H    0.974
    33   6 C    3.983 --    31 C    1.009    70 H    0.983    71 H    0.980
                            69 H    0.977
    34   1 H    0.996 --     5 C    0.958
    35   1 H    0.993 --     8 C    0.973
    36   1 H    0.993 --     8 C    0.977
    37   1 H    0.994 --     8 C    0.974
    38   1 H    0.993 --    11 C    0.973
    39   1 H    0.993 --    11 C    0.977
    40   1 H    0.993 --    11 C    0.973
    41   1 H    0.996 --    12 C    0.964
    42   1 H    0.998 --    13 C    0.963
    43   1 H    0.995 --    14 C    0.969
    44   1 H    0.996 --    14 C    0.972
    45   1 H    0.995 --    15 C    0.960
    46   1 H    0.969 --    15 C    0.925
    47   1 H    0.986 --     2 C    0.902
    48   1 H    0.995 --    16 C    0.958
    49   1 H    0.990 --    18 C    0.962
    50   1 H    0.993 --    18 C    0.967
    51   1 H    0.996 --    19 C    0.969
    52   1 H    0.991 --    19 C    0.965
    53   1 H    0.989 --    26 C    0.970
    54   1 H    0.995 --    22 C    0.966
    55   1 H    0.994 --    25 C    0.976
    56   1 H    0.993 --    25 C    0.976
    57   1 H    0.992 --    25 C    0.978
    58   1 H    0.995 --    28 C    0.976
    59   1 H    0.995 --    28 C    0.978
    60   1 H    0.996 --    28 C    0.977
    61   1 H    0.987 --    29 C    0.945
    62   1 H    0.984 --    30 C    0.965
    63   1 H    0.988 --    30 C    0.965
    64   1 H    0.992 --    30 C    0.976
    65   1 H    0.992 --    31 C    0.960
    66   1 H    0.991 --    32 C    0.974
    67   1 H    0.997 --    32 C    0.982
    68   1 H    0.994 --    32 C    0.981
    69   1 H    0.993 --    33 C    0.977
    70   1 H    0.997 --    33 C    0.983
    71   1 H    0.994 --    33 C    0.980
    72   1 H    0.970 --     1 N    0.942
 ---------------------------------------------------------------------------

molecular dipole:
                 x           y           z       tot (Debye)
 q only:        1.234       0.226      -0.617
   full:        1.767       0.111      -0.739       4.878

           -------------------------------------------------
          | TOTAL ENERGY             -101.928933932025 Eh   |
          | GRADIENT NORM               0.002754600286 Eh/α |
          | HOMO-LUMO GAP               1.675495527625 eV   |
           -------------------------------------------------

 * finished run on 2024/04/06 at 11:17:15.967
