   * xtb version 6.6.1 (8d0f1dd) compiled by 'conda@1efc2f54142f' on 2023-08-01
          program call               : xtb xtbopt.xyz --opt crude --input .xc2 --gfn2

   ID    Z sym.   atoms
    1    7 N      1, 17
    2    6 C      2-6, 8, 9, 11-16, 18-23, 25, 26, 28-33
    3    8 O      7, 10, 24, 27
    4    1 H      34-72
########################################################################
[WARNING] Please study the warnings concerning your input carefully
-1- readin_getIntValue: could not parse ''
########################################################################

          :  Hamiltonian                  GFN2-xTB          :
 * total energy  :   -99.1129511 Eh     change       -0.2259526E-11 Eh
 * total energy  :   -99.2715162 Eh     change       -0.1585651E+00 Eh
 * total energy  :   -99.2735742 Eh     change       -0.2057941E-02 Eh
 * total energy  :   -99.2741956 Eh     change       -0.6214901E-03 Eh
 * total energy  :   -99.2743706 Eh     change       -0.1749795E-03 Eh
   *** GEOMETRY OPTIMIZATION CONVERGED AFTER 5 ITERATIONS ***

 final structure:
================
72
 xtb: 6.6.1 (8d0f1dd)
N           -1.66390106882835        2.83350987939389        2.28052902595557
C           -1.64887181933717        2.10995222501659        1.26284063468633
C           -2.81679309335684        1.91306386965402        0.33618686669567
C           -3.31401982064260        0.47984906807569        0.44790882228875
C           -4.20978420008427       -0.02025198737569       -0.49944967555124
C           -4.69956065974441       -1.31308341310565       -0.42043523933712
O           -5.55931722816759       -1.87563730747686       -1.29524679203812
C           -6.06982100683383       -1.10213602938395       -2.35509950657403
C           -4.28865320373663       -2.15309623056373        0.64978627072805
O           -4.81651516710056       -3.39336121808624        0.64856301317206
C           -4.53209131382430       -4.26002469553082        1.72202547607958
C           -3.40387830345915       -1.64838973809167        1.58942266695214
C           -2.92254914067980       -0.34942241834439        1.48744728974029
C           -2.27305805583738        2.18179467219460       -1.09104465622500
C           -1.37587506913990        1.06414080712396       -1.64734886316439
C           -0.01368347365258        1.03904442620819       -1.06869752901294
N            0.65245007107940       -0.05286483636088       -0.71465813097667
C            2.08757345945315       -0.00705601411087       -0.57905042515555
C            2.77623168597045       -0.30167608764985       -1.93433849798072
C            4.23932777549057       -0.42714715624568       -1.74812607334679
C            5.31283918569842        0.40799104528168       -1.80365519963612
C            5.95866485958716        1.47318863972219       -1.05320565793422
C            6.72299744576198        0.54884275351376       -0.39824459044654
O            7.52776146743369        0.51680740190527        0.64924295561914
C            7.74889327666961        1.74864931231871        1.31792695345074
C            6.31570257913205       -0.61598435156406       -1.28427018307236
O            4.60292001817372       -1.83284958208350        0.17035110486122
C            5.51666284865688       -2.61642711647783        0.91356353066863
C            5.05353845798122       -1.55576093786192       -1.12299016124786
C            0.02025916996902       -1.34849908621590       -0.65022438744063
C           -4.01327995951477        2.86593398567317        0.63100915935065
C           -4.64120041578716        2.57610747251771        1.99198150412160
C           -3.63946104267042        4.34288456722861        0.54113957627930
H           -4.53836239908407        0.61660328407127       -1.30378038764834
H           -6.61912227982642       -0.22997857877841       -1.98804644022623
H           -6.75315671651497       -1.75753369651250       -2.89144659003348
H           -5.27544633447416       -0.77628725026295       -3.03481266803588
H           -4.85421863792583       -3.83369876242111        2.67661086980700
H           -5.09873745748693       -5.16734467814501        1.52236785487158
H           -3.46580800056313       -4.50271347223112        1.77114148099380
H           -3.08658270872068       -2.25727870381361        2.42023477493948
H           -2.25515657347162        0.01644038816300        2.25219499802241
H           -3.11635163910107        2.31171522011738       -1.76825863394315
H           -1.71212322172318        3.11709840989123       -1.08315626465953
H           -1.87572992623940        0.10309717536766       -1.54069743256200
H           -1.25730318213569        1.25999154434952       -2.72167015575083
H           -0.75245833595159        1.56401642531804        0.90724637351784
H            0.55352517116941        1.95839325700110       -1.09242001377121
H            2.42010079994269       -0.74871571361794        0.14873373814739
H            2.39469155689439        0.98212158162989       -0.23434395371099
H            2.55670939520733        0.50411720558234       -2.63691630577221
H            2.37626033923659       -1.23708121365219       -2.33278757882702
H            7.09473324098667       -1.01564563936046       -1.91080285073644
H            5.77191461930184        2.52471747634738       -0.96067163426588
H            6.81724353737713        2.12435328050287        1.74884973954422
H            8.15734486841519        2.49365762362248        0.63146133524030
H            8.46563171345714        1.54112113796063        2.10910629054536
H            6.47280551292265       -2.09762919508435        1.02722118452468
H            5.06455754226578       -2.77281608414909        1.89020647143753
H            5.68824845353450       -3.58232818510731        0.42712036572709
H            5.17550554116055       -2.48321416113775       -1.70235427840525
H           -0.20933219418540       -1.73479453690650       -1.64614989533131
H           -0.90690303707847       -1.28779633626363       -0.07645100391338
H            0.69149726054465       -2.04648337658533       -0.15534598151829
H           -4.76710315424141        2.65861135733876       -0.13756405276434
H           -3.92605437906391        2.77901332996985        2.78256492960673
H           -4.96433365561529        1.54052063614294        2.06385201026594
H           -5.50814105619754        3.21555428922191        2.13576706499049
H           -2.87363111602290        4.58249571347539        1.27236014310956
H           -3.28709539155278        4.61433624518472       -0.45042306970691
H           -4.51692154102671        4.94625141440411        0.75836030089028
H           -0.80768927587676        2.91316019156465        2.82012482649273

          :  Hamiltonian                  GFN2-xTB          :
         :: total energy             -99.274370631351 Eh    ::
         :: gradient norm              0.008712284955 Eh/a0 ::
         :: HOMO-LUMO gap              1.679787290742 eV    ::
         :: SCC energy              -100.609216704302 Eh    ::
         :: -> dispersion             -0.074192518417 Eh    ::
         :: repulsion energy           1.333255668084 Eh    ::

    * Orbital Energies and Occupations

         #    Occupation            Energy/Eh            Energy/eV
      -------------------------------------------------------------
         1        2.0000           -0.8257945             -22.4710
       ...           ...                  ...                  ...
        78        1.9983           -0.5273133             -14.3489
        79        1.9982           -0.5266863             -14.3319
        80        1.9979           -0.5243941             -14.2695
        81        1.9973           -0.5204950             -14.1634
        82        1.9958           -0.5133833             -13.9699
        83        1.9951           -0.5108396             -13.9007
        84        1.9942           -0.5081507             -13.8275
        85        1.9929           -0.5049082             -13.7393
        86        1.9804           -0.4888204             -13.3015
        87        1.9616           -0.4780139             -13.0074
        88        1.9375           -0.4701036             -12.7922
        89        1.8685           -0.4577372             -12.4557
        90        1.8484           -0.4553219             -12.3899 (HOMO)
        91        0.3964           -0.3935909             -10.7102 (LUMO)
        92        0.0237           -0.3457069              -9.4072
        93        0.0140           -0.3372360              -9.1767
        94        0.0034           -0.3146959              -8.5633
        95        0.0028           -0.3116177              -8.4795
        96        0.0010           -0.2955966              -8.0436
        97        0.0000           -0.1889354              -5.1412
        98        0.0000           -0.1534898              -4.1767
        99                         -0.1293382              -3.5195
       100                         -0.0914393              -2.4882
       101                         -0.0653491              -1.7782
       ...                                ...                  ...
       171                          0.6549960              17.8233
      -------------------------------------------------------------
                  HL-Gap            0.0617310 Eh            1.6798 eV

     #   Z          covCN         q      C6AA      α(0)
     1   7 N        1.774    -0.269    27.797     7.807
     2   6 C        2.827     0.102    25.733     8.312
     3   6 C        3.908     0.006    20.413     6.422
     4   6 C        2.974     0.002    27.974     8.676
     5   6 C        2.920    -0.081    30.013     8.984
     6   6 C        2.862     0.129    25.170     8.223
     7   8 O        1.706    -0.230    17.818     5.699
     8   6 C        3.644     0.028    20.444     6.499
     9   6 C        2.864     0.129    25.178     8.225
    10   8 O        1.706    -0.228    17.788     5.694
    11   6 C        3.645     0.027    20.459     6.501
    12   6 C        2.914    -0.074    29.841     8.958
    13   6 C        2.921    -0.053    29.305     8.877
    14   6 C        3.813    -0.065    21.734     6.636
    15   6 C        3.802    -0.069    21.823     6.651
    16   6 C        2.845     0.006    27.881     8.654
    17   7 N        2.729     0.014    21.014     6.808
    18   6 C        3.758    -0.022    21.018     6.536
    19   6 C        3.802    -0.061    21.680     6.629
    20   6 C        3.170    -0.025    28.256     8.684
    21   6 C        3.736    -0.001    20.681     6.490
    22   6 C        3.123    -0.079    29.780     8.937
    23   6 C        3.348     0.165    22.069     7.409
    24   8 O        1.704    -0.215    17.566     5.659
    25   6 C        3.661     0.021    20.498     6.496
    26   6 C        4.313    -0.063    21.619     6.603
    27   8 O        1.701    -0.308    19.139     5.907
    28   6 C        3.656     0.032    20.331     6.472
    29   6 C        4.053     0.120    18.557     6.119
    30   6 C        3.700    -0.071    22.027     6.712
    31   6 C        3.853    -0.007    20.668     6.466
    32   6 C        3.756    -0.119    22.826     6.812
    33   6 C        3.755    -0.118    22.824     6.812
    34   1 H        0.926     0.052     2.299     2.371
    35   1 H        0.924     0.054     2.274     2.358
    36   1 H        0.925     0.081     1.969     2.195
    37   1 H        0.924     0.046     2.366     2.406
    38   1 H        0.924     0.055     2.256     2.349
    39   1 H        0.925     0.081     1.969     2.194
    40   1 H        0.924     0.049     2.333     2.389
    41   1 H        0.926     0.053     2.281     2.362
    42   1 H        0.926     0.041     2.441     2.443
    43   1 H        0.925     0.059     2.207     2.323
    44   1 H        0.924     0.053     2.281     2.362
    45   1 H        0.925     0.067     2.124     2.279
    46   1 H        0.923     0.079     1.986     2.204
    47   1 H        0.922     0.006     2.951     2.686
    48   1 H        0.926     0.068     2.103     2.268
    49   1 H        0.924     0.090     1.882     2.146
    50   1 H        0.924     0.068     2.109     2.271
    51   1 H        0.924     0.059     2.215     2.327
    52   1 H        0.924     0.061     2.184     2.311
    53   1 H        0.926     0.061     2.193     2.316
    54   1 H        0.926     0.055     2.257     2.350
    55   1 H        0.924     0.059     2.208     2.324
    56   1 H        0.924     0.065     2.142     2.289
    57   1 H        0.925     0.086     1.918     2.166
    58   1 H        0.924     0.052     2.293     2.368
    59   1 H        0.925     0.067     2.121     2.278
    60   1 H        0.924     0.042     2.419     2.432
    61   1 H        0.923     0.034     2.533     2.489
    62   1 H        0.924     0.075     2.036     2.231
    63   1 H        0.924     0.079     1.986     2.204
    64   1 H        0.925     0.085     1.933     2.174
    65   1 H        0.924     0.037     2.490     2.468
    66   1 H        0.925     0.069     2.100     2.266
    67   1 H        0.925     0.036     2.507     2.476
    68   1 H        0.925     0.051     2.306     2.375
    69   1 H        0.925     0.061     2.192     2.316
    70   1 H        0.925     0.034     2.526     2.485
    71   1 H        0.925     0.054     2.269     2.355
    72   1 H        0.860     0.156     1.358     1.826

Wiberg/Mayer (AO) data.
largest (>0.10) Wiberg bond orders for each atom

     #   Z sym  total        # sym  WBO       # sym  WBO       # sym  WBO
 ---------------------------------------------------------------------------
     1   7 N    3.038 --     2 C    1.957    72 H    0.942
     2   6 C    3.929 --     1 N    1.957     3 C    0.994    47 H    0.902
     3   6 C    3.976 --     2 C    0.994     4 C    0.970    14 C    0.958
                            31 C    0.942
     4   6 C    3.948 --    13 C    1.414     5 C    1.368     3 C    0.970
     5   6 C    3.962 --     6 C    1.401     4 C    1.368    34 H    0.958
     6   6 C    3.904 --     5 C    1.401     9 C    1.222     7 O    1.098
     7   8 O    2.253 --     6 C    1.098     8 C    0.979
     8   6 C    3.933 --     7 O    0.979    36 H    0.977    37 H    0.974
                            35 H    0.973
     9   6 C    3.901 --    12 C    1.391     6 C    1.222    10 O    1.102
    10   8 O    2.252 --     9 C    1.102    11 C    0.977
    11   6 C    3.931 --    10 O    0.977    39 H    0.977    40 H    0.973
                            38 H    0.973
    12   6 C    3.962 --    13 C    1.405     9 C    1.391    41 H    0.964
    13   6 C    3.954 --     4 C    1.414    12 C    1.405    42 H    0.963
    14   6 C    3.975 --    15 C    0.984    44 H    0.972    43 H    0.969
                             3 C    0.958
    15   6 C    3.985 --    16 C    1.058    14 C    0.984    45 H    0.960
                            46 H    0.925
    16   6 C    3.594 --    17 N    1.404    15 C    1.058    48 H    0.958
    17   7 N    3.484 --    16 C    1.404    30 C    0.999    18 C    0.990
    18   6 C    3.945 --    17 N    0.990    50 H    0.967    49 H    0.962
                            19 C    0.949
    19   6 C    3.974 --    20 C    1.031    51 H    0.969    52 H    0.965
                            18 C    0.949
    20   6 C    3.834 --    21 C    1.628    19 C    1.031    29 C    0.970
    21   6 C    3.848 --    20 C    1.628    22 C    1.110    26 C    0.956
    22   6 C    3.897 --    23 C    1.583    21 C    1.110    54 H    0.967
                            24 O    0.121
    23   6 C    3.884 --    22 C    1.583    24 O    1.156    26 C    0.972
    24   8 O    2.309 --    23 C    1.156    25 C    0.956    22 C    0.121
    25   6 C    3.921 --    57 H    0.978    56 H    0.976    55 H    0.976
                            24 O    0.956
    26   6 C    3.934 --    23 C    0.972    53 H    0.959    21 C    0.956
                            29 C    0.920
    27   8 O    2.086 --    29 C    0.996    28 C    0.976
    28   6 C    3.937 --    59 H    0.979    60 H    0.977    27 O    0.976
                            58 H    0.976
    29   6 C    3.936 --    27 O    0.996    20 C    0.970    61 H    0.945
                            26 C    0.920
    30   6 C    3.957 --    17 N    0.999    64 H    0.976    62 H    0.965
                            63 H    0.964
    31   6 C    3.972 --    33 C    1.009    32 C    1.008    65 H    0.960
                             3 C    0.942
    32   6 C    3.979 --    31 C    1.008    67 H    0.982    68 H    0.981
                            66 H    0.974
    33   6 C    3.983 --    31 C    1.009    70 H    0.983    71 H    0.980
                            69 H    0.977
    34   1 H    0.996 --     5 C    0.958
    35   1 H    0.993 --     8 C    0.973
    36   1 H    0.993 --     8 C    0.977
    37   1 H    0.994 --     8 C    0.974
    38   1 H    0.993 --    11 C    0.973
    39   1 H    0.993 --    11 C    0.977
    40   1 H    0.993 --    11 C    0.973
    41   1 H    0.996 --    12 C    0.964
    42   1 H    0.998 --    13 C    0.963
    43   1 H    0.995 --    14 C    0.969
    44   1 H    0.996 --    14 C    0.972
    45   1 H    0.995 --    15 C    0.960
    46   1 H    0.969 --    15 C    0.925
    47   1 H    0.986 --     2 C    0.902
    48   1 H    0.995 --    16 C    0.958
    49   1 H    0.990 --    18 C    0.962
    50   1 H    0.993 --    18 C    0.967
    51   1 H    0.996 --    19 C    0.969
    52   1 H    0.991 --    19 C    0.965
    53   1 H    0.995 --    26 C    0.959
    54   1 H    0.995 --    22 C    0.967
    55   1 H    0.994 --    25 C    0.976
    56   1 H    0.993 --    25 C    0.976
    57   1 H    0.992 --    25 C    0.978
    58   1 H    0.995 --    28 C    0.976
    59   1 H    0.995 --    28 C    0.979
    60   1 H    0.996 --    28 C    0.977
    61   1 H    0.987 --    29 C    0.945
    62   1 H    0.984 --    30 C    0.965
    63   1 H    0.988 --    30 C    0.964
    64   1 H    0.992 --    30 C    0.976
    65   1 H    0.992 --    31 C    0.960
    66   1 H    0.991 --    32 C    0.974
    67   1 H    0.997 --    32 C    0.982
    68   1 H    0.994 --    32 C    0.981
    69   1 H    0.993 --    33 C    0.977
    70   1 H    0.997 --    33 C    0.983
    71   1 H    0.994 --    33 C    0.980
    72   1 H    0.970 --     1 N    0.942
 ---------------------------------------------------------------------------

molecular dipole:
                 x           y           z       tot (Debye)
 q only:        1.193       0.271      -0.591
   full:        1.751       0.147      -0.735       4.840

           -------------------------------------------------
          | TOTAL ENERGY              -99.274370631351 Eh   |
          | GRADIENT NORM               0.008712284955 Eh/α |
          | HOMO-LUMO GAP               1.679787290742 eV   |
           -------------------------------------------------

 * finished run on 2024/04/06 at 11:17:17.067
