   * xtb version 6.6.1 (8d0f1dd) compiled by 'conda@1efc2f54142f' on 2023-08-01
          program call               : xtb xtbopt.xyz --opt crude --input .xc2 --gfn2

   ID    Z sym.   atoms
    1    6 C      1, 3, 5-7, 10, 11, 14
    2    7 N      2, 4, 9, 13
    3    8 O      8, 12
    4    1 H      15-25

          :  Hamiltonian                  GFN2-xTB          :
 * total energy  :   -42.1106455 Eh     change       -0.5329071E-12 Eh
 * total energy  :   -42.1180810 Eh     change       -0.7435511E-02 Eh
 * total energy  :   -42.1477362 Eh     change       -0.2965522E-01 Eh
 * total energy  :   -42.2219160 Eh     change       -0.7417974E-01 Eh
 * total energy  :   -42.0656492 Eh     change        0.1562668E+00 Eh
 * total energy  :   -42.2413693 Eh     change       -0.1757201E+00 Eh
 * total energy  :   -42.2408970 Eh     change        0.4723079E-03 Eh
 * total energy  :   -42.2446474 Eh     change       -0.3750375E-02 Eh
 * total energy  :   -42.2413280 Eh     change        0.3319365E-02 Eh
 * total energy  :   -42.2464743 Eh     change       -0.5146252E-02 Eh
 * total energy  :   -42.2460083 Eh     change        0.4659682E-03 Eh
 * total energy  :   -42.2468381 Eh     change       -0.8298496E-03 Eh
 * total energy  :   -42.2470494 Eh     change       -0.2112635E-03 Eh
 * total energy  :   -42.2474355 Eh     change       -0.3860750E-03 Eh
   *** GEOMETRY OPTIMIZATION CONVERGED AFTER 14 ITERATIONS ***

 final structure:
================
25
 xtb: 6.6.1 (8d0f1dd)
C            3.20114041498735        1.13758176604442        0.07270203493031
N            2.27585637350294        0.05491939940293       -0.06999498583449
C            2.54744875215460       -1.23972929338615       -0.13463658245271
N            1.39605370977977       -1.95160251222541       -0.13958777800738
C            0.35645258327015       -1.07052461617458       -0.06771538964676
C            0.90938081383666        0.19832753151955       -0.02982402411736
C            0.08237959082323        1.39345345646962       -0.01805225867108
O            0.49063747518836        2.52855760041370       -0.04326153717954
N           -1.27028887206390        1.06291289912398        0.01361389167924
C           -2.22655186383553        2.16357313534962        0.03587062718070
C           -1.84322713370143       -0.19600456633399        0.04133799069331
O           -3.02714092085263       -0.36495096696537        0.10571468259522
N           -0.96369257104794       -1.30364197970442       -0.01804739889438
C           -1.51716594818848       -2.64287143534582        0.03207012964154
H            3.29382971092564        1.40267165910369        1.13100378214610
H            4.18061907799461        0.86581887487669       -0.31522419994389
H            2.82166581885540        2.02352984178956       -0.44534039434153
H            3.52827595884796       -1.66977221266232       -0.18962177266477
H           -1.66849489124335        3.09638452755559        0.02116598519791
H           -2.88140422092928        2.10080952915000       -0.83243961275717
H           -2.83874810798605        2.10157330196639        0.93479831837195
H           -1.12949943344107       -3.18113330450911        0.89748501402548
H           -1.29208938335430       -3.18898756099097       -0.88408204599860
H           -2.59792364458031       -2.54417898054884        0.12934422198469
H            1.33291822516559       -2.95847755232375       -0.19610708002956

          :  Hamiltonian                  GFN2-xTB          :
         :: total energy             -42.247435487426 Eh    ::
         :: gradient norm              0.007407105628 Eh/a0 ::
         :: HOMO-LUMO gap              3.310703753191 eV    ::
         :: SCC energy               -42.775728249005 Eh    ::
         :: -> dispersion             -0.022674909632 Eh    ::
         :: repulsion energy           0.528176142594 Eh    ::

    * Orbital Energies and Occupations

         #    Occupation            Energy/Eh            Energy/eV
      -------------------------------------------------------------
         1        2.0000           -0.9179007             -24.9774
       ...           ...                  ...                  ...
        25        2.0000           -0.6686565             -18.1951
        26        2.0000           -0.6651416             -18.0994
        27        1.9999           -0.6562869             -17.8585
        28        1.9999           -0.6397717             -17.4091
        29        1.9997           -0.6309106             -17.1680
        30        1.9996           -0.6251745             -17.0119
        31        1.9995           -0.6214767             -16.9112
        32        1.9994           -0.6180116             -16.8170
        33        1.9978           -0.5969604             -16.2441
        34        1.9928           -0.5782342             -15.7346
        35        1.9812           -0.5629341             -15.3182
        36        1.9763           -0.5592455             -15.2178
        37        1.9743           -0.5579589             -15.1828 (HOMO)
        38        0.0683           -0.4362928             -11.8721 (LUMO)
        39        0.0101           -0.4056129             -11.0373
        40        0.0013           -0.3729087             -10.1474
        41        0.0000           -0.2890066              -7.8643
        42                         -0.2062853              -5.6133
        43                         -0.1980469              -5.3891
        44                         -0.1449017              -3.9430
        45                         -0.1302844              -3.5452
        46                         -0.0846185              -2.3026
        47                         -0.0486919              -1.3250
        48                         -0.0341100              -0.9282
       ...                                ...                  ...
        67                          0.5592678              15.2185
      -------------------------------------------------------------
                  HL-Gap            0.1216661 Eh            3.3107 eV

     #   Z          covCN         q      C6AA      α(0)
     1   6 C        3.692    -0.092    22.445     6.779
     2   7 N        2.834     0.091    19.664     6.586
     3   6 C        3.059     0.052    26.776     8.486
     4   7 N        2.798    -0.059    22.383     7.027
     5   6 C        3.041     0.116    25.403     8.267
     6   6 C        3.130    -0.026    28.448     8.732
     7   6 C        2.764     0.274    22.377     7.747
     8   8 O        0.858    -0.361    20.924     6.133
     9   7 N        2.746    -0.085    22.887     7.105
    10   6 C        3.710    -0.062    21.839     6.679
    11   6 C        2.728     0.318    21.595     7.608
    12   8 O        0.859    -0.353    20.772     6.111
    13   7 N        2.738    -0.059    22.373     7.025
    14   6 C        3.696    -0.072    22.061     6.719
    15   1 H        0.924     0.116     1.648     2.008
    16   1 H        0.925     0.104     1.749     2.068
    17   1 H        0.924     0.135     1.498     1.914
    18   1 H        0.926     0.127     1.558     1.952
    19   1 H        0.925     0.113     1.668     2.019
    20   1 H        0.925     0.099     1.796     2.096
    21   1 H        0.925     0.100     1.785     2.090
    22   1 H        0.924     0.081     1.965     2.192
    23   1 H        0.925     0.084     1.943     2.180
    24   1 H        0.925     0.129     1.545     1.944
    25   1 H        0.860     0.231     0.959     1.534

Wiberg/Mayer (AO) data.
largest (>0.10) Wiberg bond orders for each atom

     #   Z sym  total        # sym  WBO       # sym  WBO       # sym  WBO
 ---------------------------------------------------------------------------
     1   6 C    3.917 --     2 N    0.990    16 H    0.972    17 H    0.956
                            15 H    0.948
     2   7 N    3.698 --     3 C    1.404     6 C    1.162     1 C    0.990
     3   6 C    3.870 --     2 N    1.404     4 N    1.270    18 H    0.952
     4   7 N    3.591 --     3 C    1.270     5 C    1.189    25 H    0.918
     5   6 C    3.952 --     6 C    1.355    13 N    1.221     4 N    1.189
     6   6 C    3.912 --     5 C    1.355     2 N    1.162     7 C    1.059
     7   6 C    3.952 --     8 O    1.696     9 N    1.107     6 C    1.059
     8   8 O    2.040 --     7 C    1.696     9 N    0.151
     9   7 N    3.556 --    11 C    1.123     7 C    1.107    10 C    0.968
                             8 O    0.151    12 O    0.136
    10   6 C    3.910 --     9 N    0.968    19 H    0.968    20 H    0.964
                            21 H    0.963
    11   6 C    3.957 --    12 O    1.714     9 N    1.123    13 N    1.029
    12   8 O    2.064 --    11 C    1.714     9 N    0.136    13 N    0.122
    13   7 N    3.552 --     5 C    1.221    11 C    1.029    14 C    0.974
                            12 O    0.122
    14   6 C    3.923 --    13 N    0.974    22 H    0.971    23 H    0.970
                            24 H    0.963
    15   1 H    0.984 --     1 C    0.948
    16   1 H    0.988 --     1 C    0.972
    17   1 H    0.981 --     1 C    0.956
    18   1 H    0.983 --     3 C    0.952
    19   1 H    0.985 --    10 C    0.968
    20   1 H    0.984 --    10 C    0.964
    21   1 H    0.984 --    10 C    0.963
    22   1 H    0.990 --    14 C    0.971
    23   1 H    0.989 --    14 C    0.970
    24   1 H    0.983 --    14 C    0.963
    25   1 H    0.946 --     4 N    0.918
 ---------------------------------------------------------------------------

molecular dipole:
                 x           y           z       tot (Debye)
 q only:        2.614      -1.998      -0.074
   full:        2.900      -2.514      -0.096       9.758

           -------------------------------------------------
          | TOTAL ENERGY              -42.247435487426 Eh   |
          | GRADIENT NORM               0.007407105628 Eh/α |
          | HOMO-LUMO GAP               3.310703753191 eV   |
           -------------------------------------------------

 * finished run on 2024/06/05 at 19:58:01.896
