   * xtb version 6.6.1 (8d0f1dd) compiled by 'conda@1efc2f54142f' on 2023-08-01
          program call               : xtb xtbopt.xyz --opt crude --input .xc2 --gfn2

   ID    Z sym.   atoms
    1    7 N      1, 17
    2    6 C      2-6, 8, 9, 11-16, 18-23, 25, 26, 28-33
    3    8 O      7, 10, 24, 27
    4    1 H      34-72

          :  Hamiltonian                  GFN2-xTB          :
 * total energy  :   -99.3066142 Eh     change       -0.1290346E-10 Eh
   *** GEOMETRY OPTIMIZATION CONVERGED AFTER 1 ITERATIONS ***

 final structure:
================
72
 xtb: 6.6.1 (8d0f1dd)
N           -0.28395337524417        0.54914874505987        3.51503510759573
C           -0.61730016086617        0.53819477009619        2.33700308017199
C           -3.30570970817437        1.84319200493831       -0.33990973191820
C           -3.70215029450055        0.54943910524771        0.03104188020380
C           -4.20597069594514       -0.37312486440977       -0.93431411876449
C           -4.53476468654802       -1.66938219679868       -0.61593158317753
O           -5.02966991845821       -2.58486714565772       -1.48148896664769
C           -5.35805475497830       -2.18388348756012       -2.78970421933503
C           -4.35573368793045       -2.14287027141840        0.71670300552797
O           -4.66520895048249       -3.43437346239292        0.92890019035398
C           -4.56551599148517       -3.95979716243268        2.23230626221608
C           -3.89788098772788       -1.24502267088863        1.67743155052278
C           -3.59557288977924        0.05874305535333        1.35564847711354
C           -3.06181808664816        2.17339769484274       -1.78226088804498
C           -1.97231200671649        1.30500222417746       -2.48408119534531
C           -0.64516304584156        1.44942662700319       -1.86193607249949
N           -0.02745998949191        0.51192166397754       -1.15393498914602
C            1.31418496872386        0.72548795572211       -0.66659513612584
C            2.36924912466329        0.15166420521605       -1.63344914521159
C            3.74717578736804        0.28779257966231       -1.04948513316709
C            4.45445861434388        1.47258267469601       -1.16792477539217
C            5.71985306714598        1.60145879843054       -0.61617322406341
C            6.30454699765888        0.54539152497367        0.06768309732641
O            7.52662528455380        0.55663486420698        0.63456850094534
C            8.32342286658876        1.71337015343971        0.52489692362632
C            5.58509401565646       -0.67335603149102        0.19749059930681
O            6.22632132942631       -1.65144714251010        0.87076967784928
C            5.61588701963332       -2.91315082639705        0.99719611322549
C            4.31973419247451       -0.77687937909550       -0.35734753916076
C           -0.56255655230591       -0.82303196530450       -1.02651045926912
C           -3.11987510445402        2.99963354836231        0.60800371676697
C           -4.10455194090744        3.05774349759061        1.78399812012251
C           -1.66606808465122        3.09388296416294        1.09441335423180
H           -4.40593211142357       -0.01808858509480       -1.93047788957871
H           -6.08413218316408       -1.36453073889643       -2.78866827349740
H           -5.80352073429102       -3.05832109719915       -3.26088958823402
H           -4.46849376753368       -1.88465858011025       -3.35585653568748
H           -5.23140793457948       -3.43861807590999        2.92661962026944
H           -4.87123838292586       -5.00113041180280        2.15269160470091
H           -3.53807252935328       -3.91180147821628        2.60690064279846
H           -3.77636919424003       -1.56697095810456        2.69955092466211
H           -3.22887123513864        0.70076504307330        2.13454830272177
H           -3.98246990901968        2.05519783492128       -2.36097473337693
H           -2.76084433555004        3.21769814860017       -1.87111473482088
H           -2.28672243346111        0.26520993030182       -2.50243483086701
H           -1.91263913593822        1.66938148519200       -3.51391383609671
H           -1.01898455631331       -0.32391902423967        1.83313520319127
H           -0.14253280994444        2.39975844194780       -1.94532555307365
H            1.41635499633527        0.24571664879492        0.31053212090399
H            1.48864510702010        1.79502873968866       -0.53794459297538
H            2.30761993023724        0.69186843120046       -2.57977496984414
H            2.15165801495361       -0.90017774272645       -1.82292593480371
H            4.02861255916884        2.30554311098951       -1.70626189696209
H            6.24906409675559        2.53295958129316       -0.73184960688541
H            7.85389148846251        2.57147647170943        1.01575387273935
H            8.53189319374115        1.95890830699906       -0.52068074589954
H            9.25611949027568        1.47397286248505        1.03202162446115
H            6.32861098067962       -3.52928212348689        1.54188328919690
H            4.68219446067157       -2.85346138021672        1.56600704713244
H            5.42124211233762       -3.36444515135822        0.01913178841670
H            3.76927402158956       -1.70066541690600       -0.27026315216606
H           -0.56776947697002       -1.34215322262968       -1.98839353289690
H           -1.58401928843751       -0.79081637238557       -0.64451762396292
H            0.05442277322877       -1.39191490499000       -0.33492616471734
H           -3.30575861411800        3.90394332278608        0.01256706231364
H           -3.72702911452736        2.55740484087001        2.67117286644681
H           -5.05798352315279        2.61062098797378        1.51251381049694
H           -4.28206389732718        4.09765426003636        2.05131121451855
H           -1.34434994834257        2.14901128952988        1.56308805371482
H           -0.99651010233109        3.29451818120717        0.25937578470027
H           -1.56845267752306        3.89690435271107        1.81995446077477
H            0.08381791274733        1.35863046533794        3.99765726436410

          :  Hamiltonian                  GFN2-xTB          :
         :: total energy             -99.306614207356 Eh    ::
         :: gradient norm              0.003591940295 Eh/a0 ::
         :: HOMO-LUMO gap              0.113940887292 eV    ::
         :: SCC energy              -100.697292934953 Eh    ::
         :: -> dispersion             -0.074465312124 Eh    ::
         :: repulsion energy           1.388566570739 Eh    ::

    * Orbital Energies and Occupations

         #    Occupation            Energy/Eh            Energy/eV
      -------------------------------------------------------------
         1        2.0000           -0.8095445             -22.0288
       ...           ...                  ...                  ...
        78        1.9993           -0.5352139             -14.5639
        79        1.9992           -0.5337239             -14.5234
        80        1.9989           -0.5288902             -14.3918
        81        1.9986           -0.5251261             -14.2894
        82        1.9984           -0.5234646             -14.2442
        83        1.9976           -0.5169328             -14.0665
        84        1.9975           -0.5159059             -14.0385
        85        1.9963           -0.5097994             -13.8723
        86        1.9904           -0.4946155             -13.4592
        87        1.9815           -0.4841674             -13.1749
        88        1.9483           -0.4676212             -12.7246
        89        1.8657           -0.4518183             -12.2946
        90        0.9536           -0.4086790             -11.1207 (HOMO)
        91        0.8232           -0.4044918             -11.0068 (LUMO)
        92        0.4103           -0.3887048             -10.5772
        93        0.0354           -0.3465424              -9.4299
        94        0.0036           -0.3101427              -8.4394
        95        0.0031           -0.3079654              -8.3802
        96        0.0027           -0.3056084              -8.3160
        97        0.0010           -0.2899228              -7.8892
        98        0.0000           -0.1828835              -4.9765
        99        0.0000           -0.1825358              -4.9671
       100                         -0.1273310              -3.4649
       101                         -0.0646117              -1.7582
       ...                                ...                  ...
       171                          0.5832780              15.8718
      -------------------------------------------------------------
                  HL-Gap            0.0041873 Eh            0.1139 eV

     #   Z          covCN         q      C6AA      α(0)
     1   7 N        1.771    -0.177    25.609     7.493
     2   6 C        1.837    -0.031    31.990     9.137
     3   6 C        2.951    -0.013    28.331     8.730
     4   6 C        2.960     0.001    28.007     8.680
     5   6 C        2.920    -0.091    30.282     9.024
     6   6 C        2.857     0.127    25.210     8.230
     7   8 O        1.706    -0.241    17.996     5.728
     8   6 C        3.644     0.030    20.401     6.492
     9   6 C        2.864     0.129    25.167     8.223
    10   8 O        1.706    -0.222    17.688     5.678
    11   6 C        3.646     0.026    20.461     6.501
    12   6 C        2.909    -0.072    29.784     8.949
    13   6 C        2.920    -0.052    29.284     8.874
    14   6 C        3.805    -0.065    21.738     6.637
    15   6 C        3.801    -0.068    21.811     6.649
    16   6 C        2.844     0.003    27.941     8.663
    17   7 N        2.729     0.019    20.916     6.792
    18   6 C        3.756    -0.019    20.965     6.528
    19   6 C        3.808    -0.071    21.844     6.653
    20   6 C        2.969    -0.002    28.061     8.689
    21   6 C        2.922    -0.050    29.235     8.867
    22   6 C        2.914    -0.068    29.699     8.936
    23   6 C        2.865     0.132    25.108     8.213
    24   8 O        1.706    -0.225    17.738     5.686
    25   6 C        3.645     0.026    20.473     6.503
    26   6 C        2.863     0.132    25.118     8.215
    27   8 O        1.706    -0.228    17.785     5.694
    28   6 C        3.645     0.028    20.436     6.497
    29   6 C        2.920    -0.080    30.008     8.983
    30   6 C        3.701    -0.070    22.015     6.710
    31   6 C        3.852    -0.014    20.789     6.485
    32   6 C        3.752    -0.111    22.691     6.793
    33   6 C        3.752    -0.111    22.680     6.791
    34   1 H        0.926     0.049     2.338     2.391
    35   1 H        0.924     0.051     2.311     2.377
    36   1 H        0.925     0.079     1.991     2.207
    37   1 H        0.924     0.041     2.436     2.441
    38   1 H        0.924     0.057     2.236     2.338
    39   1 H        0.925     0.081     1.969     2.195
    40   1 H        0.924     0.050     2.315     2.380
    41   1 H        0.926     0.051     2.310     2.377
    42   1 H        0.926     0.055     2.255     2.348
    43   1 H        0.924     0.067     2.121     2.278
    44   1 H        0.924     0.053     2.282     2.362
    45   1 H        0.925     0.064     2.149     2.293
    46   1 H        0.924     0.074     2.045     2.237
    47   1 H        0.926     0.081     1.967     2.193
    48   1 H        0.926     0.066     2.131     2.283
    49   1 H        0.924     0.066     2.128     2.281
    50   1 H        0.924     0.069     2.100     2.266
    51   1 H        0.924     0.056     2.252     2.347
    52   1 H        0.924     0.054     2.269     2.356
    53   1 H        0.926     0.044     2.396     2.421
    54   1 H        0.926     0.057     2.234     2.337
    55   1 H        0.924     0.053     2.288     2.365
    56   1 H        0.924     0.055     2.264     2.353
    57   1 H        0.925     0.081     1.970     2.195
    58   1 H        0.925     0.080     1.975     2.198
    59   1 H        0.924     0.047     2.363     2.404
    60   1 H        0.924     0.051     2.305     2.374
    61   1 H        0.926     0.045     2.381     2.413
    62   1 H        0.924     0.074     2.043     2.235
    63   1 H        0.924     0.081     1.965     2.192
    64   1 H        0.925     0.075     2.029     2.227
    65   1 H        0.923     0.049     2.331     2.388
    66   1 H        0.925     0.043     2.411     2.428
    67   1 H        0.925     0.046     2.368     2.406
    68   1 H        0.925     0.048     2.347     2.396
    69   1 H        0.923     0.055     2.253     2.348
    70   1 H        0.925     0.031     2.568     2.506
    71   1 H        0.925     0.053     2.289     2.366
    72   1 H        0.860     0.196     1.129     1.664

Wiberg/Mayer (AO) data.
largest (>0.10) Wiberg bond orders for each atom

     #   Z sym  total        # sym  WBO       # sym  WBO       # sym  WBO
 ---------------------------------------------------------------------------
     1   7 N    3.086 --     2 C    2.137    72 H    0.914
     2   6 C    3.164 --     1 N    2.137    47 H    0.922
     3   6 C    3.530 --     4 C    1.355    14 C    1.039    31 C    1.020
     4   6 C    3.978 --     3 C    1.355    13 C    1.253     5 C    1.223
     5   6 C    3.873 --     6 C    1.466     4 C    1.223    34 H    0.956
     6   6 C    3.916 --     5 C    1.466     9 C    1.195     7 O    1.085
     7   8 O    2.248 --     6 C    1.085     8 C    0.981
     8   6 C    3.936 --     7 O    0.981    36 H    0.977    37 H    0.974
                            35 H    0.974
     9   6 C    3.798 --    12 C    1.343     6 C    1.195    10 O    1.113
    10   8 O    2.243 --     9 C    1.113    11 C    0.976
    11   6 C    3.931 --    39 H    0.977    10 O    0.976    40 H    0.973
                            38 H    0.973
    12   6 C    3.971 --    13 C    1.483     9 C    1.343    41 H    0.963
    13   6 C    3.836 --    12 C    1.483     4 C    1.253    42 H    0.956
    14   6 C    3.957 --     3 C    1.039    44 H    0.972    43 H    0.943
                            15 C    0.934
    15   6 C    3.972 --    16 C    1.071    45 H    0.963    46 H    0.946
                            14 C    0.934
    16   6 C    3.552 --    17 N    1.406    15 C    1.071    48 H    0.959
    17   7 N    3.467 --    16 C    1.406    30 C    0.999    18 C    0.990
    18   6 C    3.956 --    17 N    0.990    50 H    0.968    19 C    0.966
                            49 H    0.963
    19   6 C    3.975 --    20 C    1.008    52 H    0.972    51 H    0.971
                            18 C    0.966
    20   6 C    3.949 --    21 C    1.412    29 C    1.379    19 C    1.008
    21   6 C    3.954 --    22 C    1.416    20 C    1.412    53 H    0.968
    22   6 C    3.962 --    21 C    1.416    23 C    1.386    54 H    0.963
    23   6 C    3.900 --    22 C    1.386    26 C    1.224    24 O    1.106
    24   8 O    2.254 --    23 C    1.106    25 C    0.977
    25   6 C    3.930 --    57 H    0.977    24 O    0.977    55 H    0.973
                            56 H    0.973
    26   6 C    3.903 --    29 C    1.397    23 C    1.224    27 O    1.099
    27   8 O    2.253 --    26 C    1.099    28 C    0.980
    28   6 C    3.934 --    27 O    0.980    58 H    0.977    59 H    0.974
                            60 H    0.974
    29   6 C    3.961 --    26 C    1.397    20 C    1.379    61 H    0.962
    30   6 C    3.959 --    17 N    0.999    64 H    0.977    62 H    0.965
                            63 H    0.961
    31   6 C    3.984 --     3 C    1.020    32 C    0.997    33 C    0.975
                            65 H    0.950
    32   6 C    3.984 --    31 C    0.997    67 H    0.985    68 H    0.984
                            66 H    0.979
    33   6 C    3.912 --    70 H    0.983    71 H    0.981    31 C    0.975
                            69 H    0.908
    34   1 H    0.996 --     5 C    0.956
    35   1 H    0.995 --     8 C    0.974
    36   1 H    0.993 --     8 C    0.977
    37   1 H    0.996 --     8 C    0.974
    38   1 H    0.991 --    11 C    0.973
    39   1 H    0.993 --    11 C    0.977
    40   1 H    0.992 --    11 C    0.973
    41   1 H    0.996 --    12 C    0.963
    42   1 H    0.996 --    13 C    0.956
    43   1 H    0.974 --    14 C    0.943
    44   1 H    0.997 --    14 C    0.972
    45   1 H    0.995 --    15 C    0.963
    46   1 H    0.978 --    15 C    0.946
    47   1 H    0.952 --     2 C    0.922
    48   1 H    0.995 --    16 C    0.959
    49   1 H    0.991 --    18 C    0.963
    50   1 H    0.994 --    18 C    0.968
    51   1 H    0.995 --    19 C    0.971
    52   1 H    0.996 --    19 C    0.972
    53   1 H    0.997 --    21 C    0.968
    54   1 H    0.995 --    22 C    0.963
    55   1 H    0.992 --    25 C    0.973
    56   1 H    0.992 --    25 C    0.973
    57   1 H    0.993 --    25 C    0.977
    58   1 H    0.993 --    28 C    0.977
    59   1 H    0.994 --    28 C    0.974
    60   1 H    0.994 --    28 C    0.974
    61   1 H    0.997 --    29 C    0.962
    62   1 H    0.984 --    30 C    0.965
    63   1 H    0.987 --    30 C    0.961
    64   1 H    0.994 --    30 C    0.977
    65   1 H    0.985 --    31 C    0.950
    66   1 H    0.997 --    32 C    0.979
    67   1 H    0.997 --    32 C    0.985
    68   1 H    0.996 --    32 C    0.984
    69   1 H    0.996 --    33 C    0.908
    70   1 H    0.998 --    33 C    0.983
    71   1 H    0.993 --    33 C    0.981
    72   1 H    0.936 --     1 N    0.914
 ---------------------------------------------------------------------------

molecular dipole:
                 x           y           z       tot (Debye)
 q only:       -0.024       0.653      -0.514
   full:       -0.186       0.890      -0.634       2.817

           -------------------------------------------------
          | TOTAL ENERGY              -99.306614207356 Eh   |
          | GRADIENT NORM               0.003591940295 Eh/α |
          | HOMO-LUMO GAP               0.113940887292 eV   |
           -------------------------------------------------

 * finished run on 2024/04/06 at 11:11:45.714
