   * xtb version 6.6.1 (8d0f1dd) compiled by 'conda@1efc2f54142f' on 2023-08-01
          program call               : xtb xtbopt.xyz --opt crude --input .xc2 --gfn2

   ID    Z sym.   atoms
    1    6 C      1, 3, 5-7, 10, 11, 14
    2    7 N      2, 4, 9, 13
    3    8 O      8, 12
    4    1 H      15-25
########################################################################
[WARNING] Please study the warnings concerning your input carefully
-1- readin_getIntValue: could not parse ''
########################################################################

          :  Hamiltonian                  GFN2-xTB          :
 * total energy  :   -42.0945894 Eh     change       -0.8085976E-10 Eh
   *** GEOMETRY OPTIMIZATION CONVERGED AFTER 1 ITERATIONS ***

 final structure:
================
25
 xtb: 6.6.1 (8d0f1dd)
C            3.09500551265670        0.95156738910650        0.07678355872132
N            2.09718056778803       -0.06370806923128        0.31584742845106
C            2.37246230750401       -1.23349241181164        0.87088533794136
N            1.25573239124226       -1.95798516524617        0.94028756673012
C            0.22324662618191       -1.21616452106032        0.41341166828158
C            0.75496524216486        0.00296661572025        0.01614729933019
C            0.12205245631155        1.28820511877969       -0.52110088738652
O            0.84129183593561        2.18064161292134       -0.97241741635788
N           -1.18266250103789        1.26796823300519       -0.38716667873798
C           -1.94393704634956        2.43163488852067       -0.70532289184570
C           -1.48043849686953       -2.60021525873235        1.24185909118598
O           -1.66225271543786       -3.33960696994785        2.11589329209656
N           -1.07220166562674       -1.78782685871069        0.35207307631753
C           -1.93615693043091       -1.44021092030353       -0.78508532648225
H            3.62025236853921        1.18212271256480        1.00210401120284
H            3.81155040491221        0.59749631341106       -0.66406353043771
H            2.59848622508356        1.84407731684573       -0.31294030615308
H            3.34089473096473       -1.54768555155389        1.21159646819748
H           -1.31677522882651        3.25468196111744       -1.05541737632164
H           -2.68177054781762        2.18037176511114       -1.47083330596058
H           -2.48685617478418        2.74490959652078        0.19035879162963
H           -1.51182105122370       -1.85195641843897       -1.70102536555085
H           -1.95270372267686       -0.33675070944056       -0.83669485141416
H           -2.93306365861971       -1.83979399584807       -0.62477881730378
H            1.18795058450673       -2.89300813169521        1.32077078176732

          :  Hamiltonian                  GFN2-xTB          :
         :: total energy             -42.094589391532 Eh    ::
         :: gradient norm              0.007708738732 Eh/a0 ::
         :: HOMO-LUMO gap              0.729974006751 eV    ::
         :: SCC energy               -42.631588168054 Eh    ::
         :: -> dispersion             -0.021709333213 Eh    ::
         :: repulsion energy           0.536827323838 Eh    ::

    * Orbital Energies and Occupations

         #    Occupation            Energy/Eh            Energy/eV
      -------------------------------------------------------------
         1        2.0000           -0.9500491             -25.8522
       ...           ...                  ...                  ...
        25        2.0000           -0.6558663             -17.8470
        26        2.0000           -0.6515750             -17.7303
        27        2.0000           -0.6401660             -17.4198
        28        2.0000           -0.6222064             -16.9311
        29        2.0000           -0.6189626             -16.8428
        30        2.0000           -0.6176319             -16.8066
        31        2.0000           -0.6116769             -16.6446
        32        2.0000           -0.5944911             -16.1769
        33        2.0000           -0.5816670             -15.8280
        34        2.0000           -0.5747286             -15.6392
        35        1.9918           -0.5196349             -14.1400
        36        1.8440           -0.4957202             -13.4892
        37        1.7581           -0.4918718             -13.3845 (HOMO)
        38        0.3941           -0.4650458             -12.6545 (LUMO)
        39        0.0106           -0.4347311             -11.8296
        40        0.0015           -0.4192668             -11.4088
        41        0.0000           -0.3767530             -10.2520
        42                         -0.2836141              -7.7175
        43                         -0.2344941              -6.3809
        44                         -0.1966795              -5.3519
        45                         -0.1431439              -3.8951
        46                         -0.0786540              -2.1403
        47                         -0.0644742              -1.7544
        48                         -0.0487798              -1.3274
       ...                                ...                  ...
        67                          0.8850893              24.0845
      -------------------------------------------------------------
                  HL-Gap            0.0268261 Eh            0.7300 eV

     #   Z          covCN         q      C6AA      α(0)
     1   6 C        3.694    -0.104    22.674     6.813
     2   7 N        2.866     0.092    19.645     6.583
     3   6 C        3.034     0.060    26.616     8.462
     4   7 N        2.804    -0.055    22.296     7.013
     5   6 C        3.056     0.086    26.037     8.368
     6   6 C        3.072     0.014    27.625     8.618
     7   6 C        2.766     0.279    22.279     7.730
     8   8 O        0.857    -0.446    22.617     6.376
     9   7 N        1.833    -0.305    28.764     7.948
    10   6 C        3.706    -0.023    21.129     6.571
    11   6 C        1.820     0.284    24.715     8.032
    12   8 O        0.856    -0.125    16.884     5.509
    13   7 N        2.728     0.041    20.523     6.728
    14   6 C        3.705    -0.104    22.651     6.804
    15   1 H        0.925     0.101     1.776     2.084
    16   1 H        0.925     0.107     1.724     2.053
    17   1 H        0.924     0.163     1.305     1.786
    18   1 H        0.926     0.131     1.531     1.935
    19   1 H        0.924     0.073     2.055     2.242
    20   1 H        0.924     0.067     2.119     2.277
    21   1 H        0.924     0.073     2.056     2.242
    22   1 H        0.925     0.104     1.752     2.070
    23   1 H        0.923     0.156     1.354     1.820
    24   1 H        0.925     0.107     1.722     2.052
    25   1 H        0.860     0.225     0.989     1.557

Wiberg/Mayer (AO) data.
largest (>0.10) Wiberg bond orders for each atom

     #   Z sym  total        # sym  WBO       # sym  WBO       # sym  WBO
 ---------------------------------------------------------------------------
     1   6 C    3.892 --     2 N    0.976    15 H    0.962    16 H    0.956
                            17 H    0.933
     2   7 N    3.727 --     3 C    1.399     6 C    1.199     1 C    0.976
     3   6 C    3.931 --     2 N    1.399     4 N    1.333    18 H    0.949
                             5 C    0.106
     4   7 N    3.621 --     3 C    1.333     5 C    1.177    25 H    0.919
     5   6 C    3.876 --     6 C    1.459     4 N    1.177    13 N    0.996
                             3 C    0.106
     6   6 C    3.901 --     5 C    1.459     2 N    1.199     7 C    0.933
     7   6 C    3.938 --     8 O    1.536     9 N    1.400     6 C    0.933
     8   8 O    1.860 --     7 C    1.536     9 N    0.181
     9   7 N    2.810 --     7 C    1.400    10 C    1.051     8 O    0.181
    10   6 C    3.932 --     9 N    1.051    19 H    0.955    20 H    0.947
                            21 H    0.941
    11   6 C    3.590 --    12 O    2.024    13 N    1.460
    12   8 O    2.295 --    11 C    2.024    13 N    0.192
    13   7 N    3.616 --    11 C    1.460     5 C    0.996    14 C    0.910
                            12 O    0.192
    14   6 C    3.840 --    24 H    0.974    22 H    0.967    13 N    0.910
                            23 H    0.900
    15   1 H    0.989 --     1 C    0.962
    16   1 H    0.988 --     1 C    0.956
    17   1 H    0.973 --     1 C    0.933
    18   1 H    0.982 --     3 C    0.949
    19   1 H    0.965 --    10 C    0.955
    20   1 H    0.970 --    10 C    0.947
    21   1 H    0.963 --    10 C    0.941
    22   1 H    0.988 --    14 C    0.967
    23   1 H    0.975 --    14 C    0.900
    24   1 H    0.988 --    14 C    0.974
    25   1 H    0.948 --     4 N    0.919
 ---------------------------------------------------------------------------

molecular dipole:
                 x           y           z       tot (Debye)
 q only:        1.237      -3.218       1.066
   full:        1.383      -3.564       1.252      10.226

           -------------------------------------------------
          | TOTAL ENERGY              -42.094589391532 Eh   |
          | GRADIENT NORM               0.007708738732 Eh/α |
          | HOMO-LUMO GAP               0.729974006751 eV   |
           -------------------------------------------------

 * finished run on 2024/06/05 at 19:58:04.638
