   * xtb version 6.6.1 (8d0f1dd) compiled by 'conda@1efc2f54142f' on 2023-08-01
          program call               : xtb struc.xyz --opt loose --input .xc1 --gfn2

   ID    Z sym.   atoms
    1    7 N      1, 17
    2    6 C      2-6, 8, 9, 11-16, 18-23, 25, 26, 28-33
    3    8 O      7, 10, 24, 27
    4    1 H      34-72
constraining bond 17 42 to    7.6866700 Å, actual value:    3.7856458 Å

          :  Hamiltonian                  GFN2-xTB          :
 * total energy  :  -102.1213519 Eh     change       -0.4035485E-08 Eh
 * total energy  :  -103.1777313 Eh     change       -0.1056379E+01 Eh
 * total energy  :  -104.3516625 Eh     change       -0.1173931E+01 Eh
 * total energy  :  -105.6589873 Eh     change       -0.1307325E+01 Eh
 * total energy  :  -107.1877880 Eh     change       -0.1528801E+01 Eh
 * total energy  :  -101.1059117 Eh     change        0.6081876E+01 Eh
 * total energy  :  -107.5654220 Eh     change       -0.6459510E+01 Eh
 * total energy  :  -107.6420834 Eh     change       -0.7666145E-01 Eh
 * total energy  :  -107.7027487 Eh     change       -0.6066522E-01 Eh
 * total energy  :  -107.7100797 Eh     change       -0.7330998E-02 Eh
 * total energy  :  -107.9127973 Eh     change       -0.3413795E-03 Eh
 * total energy  :  -107.9130282 Eh     change       -0.2309006E-03 Eh
 * total energy  :  -107.9132627 Eh     change       -0.2345453E-03 Eh
 * total energy  :  -107.9134233 Eh     change       -0.1605282E-03 Eh
 * total energy  :  -107.9135726 Eh     change       -0.1493783E-03 Eh
 * total energy  :  -107.9136322 Eh     change       -0.5955119E-04 Eh
 * total energy  :  -107.9136899 Eh     change       -0.5771327E-04 Eh
 * total energy  :  -107.9137410 Eh     change       -0.5108578E-04 Eh
 * total energy  :  -107.9137822 Eh     change       -0.4119116E-04 Eh
   *** GEOMETRY OPTIMIZATION CONVERGED AFTER 62 ITERATIONS ***

 final structure:
================
72
 xtb: 6.6.1 (8d0f1dd)
N           -1.81848408035039        1.86484652119587        1.95477992342898
C           -2.70273473002112        1.41348224520083        1.18955352931907
C           -3.47431727506192        2.08668080773993        0.03899804891906
C           -4.12816139757351        0.72221727259426       -0.14013401897125
C           -5.03285568021331        0.00562349336798       -0.88295966231318
C           -5.22037745011123       -1.32957734295681       -0.50771480545355
O           -6.06322425078981       -2.18174911675949       -1.11493068754803
C           -6.85872674342440       -1.72577757328202       -2.18551632865244
C           -4.50305595420401       -1.90611431665531        0.59024130118110
O           -4.80548650296941       -3.20107987857160        0.82064673616043
C           -4.21199246534748       -3.85557280195831        1.91575303209707
C           -3.58540069202437       -1.16019958527790        1.32490666218722
C           -3.42351740784977        0.15702267253019        0.92995315630129
C           -2.63065644649254        2.57034425273738       -1.14251868201521
C           -1.80267226279574        1.49826007663323       -1.85389419862760
C           -0.53141690003646        1.05341904049761       -1.09320376334913
N           -0.64639406107517       -0.20000622428733       -0.38763520414024
C            2.94413311685708        0.09274044688077        0.01959309414034
C            3.25016733563424       -0.32587633507010       -1.36036633499671
C            4.42026565484004       -0.00343321165839       -0.40656233592654
C            5.14371064107846        1.23168633162706       -0.62959547810576
C            6.48194465653643        1.32838651133808       -0.39252664211221
C            7.22034942863902        0.23379007265078        0.08653093545571
O            8.52618269475951        0.23074555477222        0.34248669916160
C            9.29346014124830        1.39676342603707        0.13051970454584
C            6.54416298345798       -1.01156970250777        0.33653148649202
O            7.34656299741874       -1.98875334540393        0.80203314284870
C            6.79059444900344       -3.25259176729000        1.08427917240409
C            5.20553299132973       -1.11972420658685        0.09986687626345
C           -0.65596650511261       -1.39801103410775       -1.19300367121719
C           -4.43716787751316        3.18834286025004        0.52966518852102
C           -5.37756100373866        2.66248909354824        1.61338800520994
C           -3.66212309761847        4.39325432733188        1.05819999192438
H           -5.57996458443549        0.43903125926023       -1.70408300665131
H           -7.51607922506710       -0.90787147835213       -1.87616308152805
H           -7.46247852089869       -2.58026395052761       -2.48472501902271
H           -6.24431100568089       -1.40172408006989       -3.03138413884376
H           -4.45124859123499       -3.35621070820308        2.86024825017448
H           -4.63403981150009       -4.85864806108534        1.92313479795837
H           -3.12479159970221       -3.92281981329400        1.80267429662715
H           -3.04216184979315       -1.58379687647331        2.15400858914779
H           -0.91797508547209       -0.21993948845995        0.20406475545463
H           -3.31435565575080        3.00714890654766       -1.87498625981847
H           -1.96341572733077        3.35896693383637       -0.79388287342207
H           -2.42335574483042        0.62390358868936       -2.05578109737164
H           -1.49700079551664        1.90963086909364       -2.81659437508219
H           -0.26829790029540        1.81578180220588       -0.35561554364208
H            0.29293311163972        0.96376242433273       -1.80702730652213
H            2.60021924248895       -0.64679815707235        0.72471095530481
H            2.55737901072627        1.08438639787205        0.19201380615130
H            3.09051753503340        0.36987326136302       -2.16883381379441
H            3.13242322700097       -1.36272706283042       -1.63297780868452
H            4.59401697107783        2.08421079912666       -0.99599659063473
H            6.98287626537388        2.26531877946049       -0.57645020847748
H            8.94954558608430        2.22053746730567        0.76196350501510
H            9.27130609116201        1.70329358240681       -0.91886792919592
H           10.31132866306253        1.12943257672976        0.40758469616443
H            7.61881542313783       -3.86250067146632        1.43892330450134
H            6.02734765445115       -3.18720659825209        1.86570432839073
H            6.36123543390203       -3.70971985311586        0.18773917997343
H            4.68429280742659       -2.04584921150395        0.27870196151826
H            0.15513922700998       -1.37049267378959       -1.92211356225540
H           -1.59801386521065       -1.53786802272705       -1.73951069731944
H           -0.51566437299441       -2.25877468240647       -0.54017565215075
H           -5.04579454413004        3.49734649327573       -0.32851412897474
H           -4.81734884261249        2.38016661996055        2.50251802633104
H           -5.93627510539200        1.79603749758997        1.26594774042030
H           -6.08828450973695        3.43752187792106        1.89061309016036
H           -2.89038992994255        4.06339876595542        1.74933349727880
H           -3.19534170223714        4.95290809499492        0.25277786354889
H           -4.33623238990802        5.06255065188649        1.58494610000226
H           -1.45481359940009        1.24208369758442        2.66997431879691

          :  Hamiltonian                  GFN2-xTB          :
         :: total energy            -107.913782188491 Eh    ::
         :: gradient norm              0.003936738406 Eh/a0 ::
         :: HOMO-LUMO gap              1.396354443087 eV    ::
         :: SCC energy              -100.760913826243 Eh    ::
         :: -> dispersion             -0.072015008157 Eh    ::
         :: repulsion energy           1.683412906020 Eh    ::

    * Orbital Energies and Occupations

         #    Occupation            Energy/Eh            Energy/eV
      -------------------------------------------------------------
         1        2.0000           -0.8253600             -22.4592
       ...           ...                  ...                  ...
        78        1.9983           -0.5316895             -14.4680
        79        1.9980           -0.5291628             -14.3993
        80        1.9968           -0.5217107             -14.1965
        81        1.9954           -0.5159954             -14.0409
        82        1.9953           -0.5157961             -14.0355
        83        1.9919           -0.5071825             -13.8011
        84        1.9910           -0.5054146             -13.7530
        85        1.9860           -0.4983876             -13.5618
        86        1.9811           -0.4936025             -13.4316
        87        1.9615           -0.4822027             -13.1214
        88        1.8891           -0.4648567             -12.6494
        89        1.8453           -0.4592157             -12.4959
        90        1.8069           -0.4553748             -12.3914 (HOMO)
        91        0.5361           -0.4040598             -10.9950 (LUMO)
        92        0.0328           -0.3551393              -9.6638
        93        0.0038           -0.3208630              -8.7311
        94        0.0027           -0.3153979              -8.5824
        95        0.0002           -0.2749304              -7.4812
        96        0.0000           -0.2457875              -6.6882
        97        0.0000           -0.1845085              -5.0207
        98                         -0.1381318              -3.7588
        99                         -0.0860404              -2.3413
       100                         -0.0749596              -2.0398
       101                         -0.0667160              -1.8154
       ...                                ...                  ...
       171                          1.5728390              42.7991
      -------------------------------------------------------------
                  HL-Gap            0.0513151 Eh            1.3964 eV

     #   Z          covCN         q      C6AA      α(0)
     1   7 N        1.771    -0.302    28.648     7.926
     2   6 C        3.216     0.128    24.565     8.062
     3   6 C        4.150     0.007    20.374     6.411
     4   6 C        3.328     0.001    25.694     8.048
     5   6 C        2.904    -0.071    29.777     8.947
     6   6 C        2.874     0.136    25.034     8.202
     7   8 O        1.706    -0.217    17.611     5.666
     8   6 C        3.645     0.025    20.488     6.506
     9   6 C        2.874     0.130    25.143     8.220
    10   8 O        1.706    -0.226    17.752     5.689
    11   6 C        3.646     0.028    20.431     6.496
    12   6 C        2.903    -0.067    29.679     8.933
    13   6 C        3.228    -0.035    28.040     8.601
    14   6 C        3.803    -0.065    21.754     6.640
    15   6 C        3.798    -0.070    21.848     6.655
    16   6 C        3.738    -0.009    20.811     6.510
    17   7 N        2.679    -0.236    26.175     7.598
    18   6 C        3.806    -0.057    21.597     6.616
    19   6 C        3.806    -0.056    21.578     6.613
    20   6 C        3.920     0.035    19.924     6.344
    21   6 C        2.909    -0.035    28.875     8.811
    22   6 C        2.903    -0.063    29.575     8.917
    23   6 C        2.863     0.143    24.889     8.178
    24   8 O        1.706    -0.191    17.194     5.598
    25   6 C        3.645     0.018    20.616     6.526
    26   6 C        2.853     0.135    25.042     8.202
    27   8 O        1.706    -0.229    17.800     5.696
    28   6 C        3.646     0.024    20.501     6.507
    29   6 C        2.907    -0.079    29.972     8.977
    30   6 C        3.689    -0.045    21.569     6.647
    31   6 C        3.851    -0.009    20.700     6.471
    32   6 C        3.755    -0.108    22.611     6.780
    33   6 C        3.756    -0.118    22.822     6.811
    34   1 H        0.926     0.057     2.235     2.338
    35   1 H        0.924     0.058     2.224     2.332
    36   1 H        0.925     0.083     1.943     2.180
    37   1 H        0.924     0.055     2.261     2.352
    38   1 H        0.924     0.055     2.265     2.353
    39   1 H        0.925     0.081     1.966     2.193
    40   1 H        0.924     0.048     2.342     2.393
    41   1 H        0.926     0.050     2.318     2.381
    42   1 H        0.864     0.202     1.094     1.638
    43   1 H        0.924     0.051     2.309     2.376
    44   1 H        0.924     0.061     2.186     2.312
    45   1 H        0.924     0.044     2.399     2.422
    46   1 H        0.924     0.048     2.345     2.395
    47   1 H        0.924     0.056     2.249     2.345
    48   1 H        0.924     0.045     2.386     2.416
    49   1 H        0.926     0.066     2.133     2.284
    50   1 H        0.926     0.067     2.117     2.275
    51   1 H        0.926     0.063     2.162     2.300
    52   1 H        0.926     0.064     2.151     2.293
    53   1 H        0.926     0.064     2.152     2.294
    54   1 H        0.926     0.068     2.103     2.268
    55   1 H        0.924     0.065     2.144     2.290
    56   1 H        0.924     0.065     2.145     2.290
    57   1 H        0.925     0.091     1.870     2.138
    58   1 H        0.925     0.085     1.929     2.172
    59   1 H        0.924     0.052     2.292     2.368
    60   1 H        0.924     0.053     2.285     2.364
    61   1 H        0.926     0.061     2.186     2.312
    62   1 H        0.924     0.054     2.277     2.360
    63   1 H        0.923     0.040     2.450     2.448
    64   1 H        0.925     0.048     2.342     2.393
    65   1 H        0.924     0.041     2.430     2.438
    66   1 H        0.925     0.041     2.442     2.444
    67   1 H        0.925     0.034     2.527     2.486
    68   1 H        0.925     0.051     2.308     2.376
    69   1 H        0.925     0.064     2.157     2.297
    70   1 H        0.925     0.043     2.408     2.427
    71   1 H        0.925     0.053     2.287     2.365
    72   1 H        0.860     0.153     1.378     1.839

Wiberg/Mayer (AO) data.
largest (>0.10) Wiberg bond orders for each atom

     #   Z sym  total        # sym  WBO       # sym  WBO       # sym  WBO
 ---------------------------------------------------------------------------
     1   7 N    2.973 --     2 C    1.850    72 H    0.935
     2   6 C    3.923 --     1 N    1.850    13 C    1.029     3 C    0.942
     3   6 C    3.956 --    14 C    0.973     4 C    0.968    31 C    0.949
                             2 C    0.942
     4   6 C    3.928 --     5 C    1.439    13 C    1.295     3 C    0.968
     5   6 C    3.963 --     4 C    1.439     6 C    1.351    34 H    0.960
     6   6 C    3.887 --     5 C    1.351     9 C    1.216     7 O    1.121
     7   8 O    2.264 --     6 C    1.121     8 C    0.974
     8   6 C    3.927 --    36 H    0.977     7 O    0.974    37 H    0.972
                            35 H    0.972
     9   6 C    3.889 --    12 C    1.388     6 C    1.216    10 O    1.102
    10   8 O    2.248 --     9 C    1.102    11 C    0.978
    11   6 C    3.931 --    10 O    0.978    39 H    0.977    40 H    0.973
                            38 H    0.973
    12   6 C    3.952 --     9 C    1.388    13 C    1.371    41 H    0.962
    13   6 C    3.901 --    12 C    1.371     4 C    1.295     2 C    1.029
    14   6 C    3.979 --    15 C    1.008     3 C    0.973    43 H    0.966
                            44 H    0.966
    15   6 C    3.964 --    14 C    1.008    46 H    0.975    16 C    0.973
                            45 H    0.969
    16   6 C    3.968 --    17 N    1.023    15 C    0.973    48 H    0.970
                            47 H    0.968
    17   7 N    3.050 --    30 C    1.029    16 C    1.023    42 H    0.946
    18   6 C    3.864 --    19 C    1.026    49 H    0.975    50 H    0.975
                            20 C    0.831
    19   6 C    3.858 --    18 C    1.026    51 H    0.975    52 H    0.975
                            20 C    0.822
    20   6 C    3.938 --    21 C    1.119    29 C    1.101    18 C    0.831
                            19 C    0.822
    21   6 C    3.787 --    22 C    1.575    20 C    1.119    53 H    0.966
    22   6 C    3.979 --    21 C    1.575    23 C    1.286    54 H    0.960
    23   6 C    3.738 --    22 C    1.286    24 O    1.165    26 C    1.151
    24   8 O    2.282 --    23 C    1.165    25 C    0.967
    25   6 C    3.920 --    57 H    0.976    56 H    0.971    55 H    0.971
                            24 O    0.967
    26   6 C    3.934 --    29 C    1.532    23 C    1.151    27 O    1.101
    27   8 O    2.266 --    26 C    1.101    28 C    0.975    29 C    0.100
    28   6 C    3.930 --    58 H    0.976    27 O    0.975    59 H    0.974
                            60 H    0.974
    29   6 C    3.827 --    26 C    1.532    20 C    1.101    61 H    0.961
                            27 O    0.100
    30   6 C    3.972 --    17 N    1.029    64 H    0.981    62 H    0.978
                            63 H    0.962
    31   6 C    3.973 --    32 C    1.007    33 C    1.006    65 H    0.958
                             3 C    0.949
    32   6 C    3.986 --    31 C    1.007    66 H    0.983    68 H    0.983
                            67 H    0.981
    33   6 C    3.978 --    31 C    1.006    70 H    0.982    71 H    0.980
                            69 H    0.976
    34   1 H    0.994 --     5 C    0.960
    35   1 H    0.992 --     8 C    0.972
    36   1 H    0.992 --     8 C    0.977
    37   1 H    0.992 --     8 C    0.972
    38   1 H    0.992 --    11 C    0.973
    39   1 H    0.993 --    11 C    0.977
    40   1 H    0.993 --    11 C    0.973
    41   1 H    0.995 --    12 C    0.962
    42   1 H    0.959 --    17 N    0.946
    43   1 H    0.992 --    14 C    0.966
    44   1 H    0.993 --    14 C    0.966
    45   1 H    0.997 --    15 C    0.969
    46   1 H    0.995 --    15 C    0.975
    47   1 H    0.993 --    16 C    0.968
    48   1 H    0.990 --    16 C    0.970
    49   1 H    0.993 --    18 C    0.975
    50   1 H    0.993 --    18 C    0.975
    51   1 H    0.994 --    19 C    0.975
    52   1 H    0.994 --    19 C    0.975
    53   1 H    0.996 --    21 C    0.966
    54   1 H    0.994 --    22 C    0.960
    55   1 H    0.990 --    25 C    0.971
    56   1 H    0.990 --    25 C    0.971
    57   1 H    0.991 --    25 C    0.976
    58   1 H    0.992 --    28 C    0.976
    59   1 H    0.995 --    28 C    0.974
    60   1 H    0.995 --    28 C    0.974
    61   1 H    0.995 --    29 C    0.961
    62   1 H    0.990 --    30 C    0.978
    63   1 H    0.976 --    30 C    0.962
    64   1 H    0.995 --    30 C    0.981
    65   1 H    0.990 --    31 C    0.958
    66   1 H    0.996 --    32 C    0.983
    67   1 H    0.997 --    32 C    0.981
    68   1 H    0.995 --    32 C    0.983
    69   1 H    0.991 --    33 C    0.976
    70   1 H    0.995 --    33 C    0.982
    71   1 H    0.993 --    33 C    0.980
    72   1 H    0.968 --     1 N    0.935
 ---------------------------------------------------------------------------

molecular dipole:
                 x           y           z       tot (Debye)
 q only:        2.133      -0.163      -0.580
   full:        1.747      -0.443      -0.564       4.801

           -------------------------------------------------
          | TOTAL ENERGY             -107.913782188491 Eh   |
          | GRADIENT NORM               0.003936738406 Eh/α |
          | HOMO-LUMO GAP               1.396354443087 eV   |
           -------------------------------------------------

 * finished run on 2024/04/06 at 11:16:47.084
