   * xtb version 6.6.1 (8d0f1dd) compiled by 'conda@1efc2f54142f' on 2023-08-01
          program call               : xtb xtbopt.xyz --opt crude --input .xc2 --gfn2

   ID    Z sym.   atoms
    1    7 N      1, 17
    2    6 C      2-6, 8, 9, 11-16, 18-23, 25, 26, 28-33
    3    8 O      7, 10, 24, 27
    4    1 H      34-72

          :  Hamiltonian                  GFN2-xTB          :
 * total energy  :   -99.0761722 Eh     change       -0.3240075E-11 Eh
 * total energy  :   -99.3457144 Eh     change       -0.2695421E+00 Eh
 * total energy  :   -99.3516941 Eh     change       -0.5979767E-02 Eh
 * total energy  :   -99.3525695 Eh     change       -0.8753478E-03 Eh
 * total energy  :   -99.3530012 Eh     change       -0.4317628E-03 Eh
 * total energy  :   -99.3534674 Eh     change       -0.4661236E-03 Eh
 * total energy  :   -99.3538289 Eh     change       -0.3615896E-03 Eh
 * total energy  :   -99.3540948 Eh     change       -0.2658943E-03 Eh
   *** GEOMETRY OPTIMIZATION CONVERGED AFTER 8 ITERATIONS ***

 final structure:
================
72
 xtb: 6.6.1 (8d0f1dd)
N           -1.82836749616770        1.86786109404318        1.97819480796544
C           -2.70133415376940        1.40706537483598        1.20574823876602
C           -3.46528768299479        2.07543981845495        0.04922045523235
C           -4.11867553140166        0.71063356385720       -0.12946714047923
C           -5.02095166601761       -0.00075207041488       -0.88009817521536
C           -5.21235639615433       -1.33730179895642       -0.51001598850469
O           -6.05303751233684       -2.18852535602872       -1.12126132804272
C           -6.85291292459686       -1.72928183409436       -2.18720055894279
C           -4.50025095789415       -1.91432230483322        0.59094333453751
O           -4.80334198092464       -3.20973857818132        0.81636114429998
C           -4.21895551608954       -3.87318346793931        1.91213700865696
C           -3.58657945579650       -1.17135631125307        1.33462231947965
C           -3.41710967603742        0.14653259654045        0.94401575373731
C           -2.61314358958498        2.55200480145000       -1.13021910364521
C           -1.79701214773969        1.46905034105636       -1.83897275799626
C           -0.47680968362713        1.08230427142135       -1.13455394356470
N           -0.45783835931278       -0.17828663574882       -0.43260413177169
C            2.93884079481017        0.09140642422208        0.01475540414979
C            3.24747296253952       -0.32737444349170       -1.36258030343343
C            4.41837403408173       -0.00528098245775       -0.40834203006153
C            5.14022317991690        1.22955368382337       -0.62975892835491
C            6.47772811940019        1.32871980324811       -0.38764600649535
C            7.21575397786774        0.23473279616124        0.09308465928966
O            8.52054378657738        0.23287916081650        0.35218028437271
C            9.28822880462972        1.39856864360810        0.13887056893140
C            6.54026620091578       -1.01149372060111        0.34071437646685
O            7.34235785132595       -1.98815390604093        0.80685793647222
C            6.78758008557485       -3.25369359503465        1.08471020463462
C            5.20195099706562       -1.12053371691758        0.10008269333752
C           -0.67860399520971       -1.35709919233495       -1.23053347422745
C           -4.43303453441309        3.17886397398801        0.52732722657479
C           -5.36034161819375        2.66320916471777        1.62753606783593
C           -3.66514344575813        4.39939975916666        1.02880987712085
H           -5.56084735800299        0.43667870366676       -1.70389138459570
H           -7.51132143467287       -0.91467340143591       -1.87140056886194
H           -7.45564161133106       -2.58398423963307       -2.48807834635652
H           -6.24319026884959       -1.40038387564106       -3.03431180048026
H           -4.46578235492876       -3.38064187782943        2.85747857378943
H           -4.64406775766201       -4.87485712079474        1.90627191792161
H           -3.13141259781990       -3.94157840873048        1.80704832347451
H           -3.05502213921006       -1.60393083713291        2.16691323897576
H           -1.02664082080004       -0.17788012891157        0.39773614608209
H           -3.29250656886917        2.99480390191640       -1.86258851903569
H           -1.93866788096598        3.33331628934651       -0.78111386116371
H           -2.41505735901673        0.58017387492270       -1.97539358802627
H           -1.54942092901301        1.84208259422730       -2.83435487210713
H           -0.21371870051398        1.85797399033182       -0.41161388934712
H            0.31937819458102        1.01701898750376       -1.87936835315524
H            2.59235785871165       -0.64777904401962        0.71847251001233
H            2.55204509899918        1.08259261689316        0.18695648754459
H            3.09135649682817        0.36793790410429       -2.17206997677220
H            3.12944574033404       -1.36403696691169       -1.63521076103389
H            4.59103954933638        2.08131535238961       -0.99885353935173
H            6.97766187168502        2.26657465453430       -0.56942365821437
H            8.94407285602131        2.22339579619533        0.76878150823092
H            9.26661104208159        1.70321328916929       -0.91104851834612
H           10.30597128231794        1.13165830449701        0.41697624136800
H            7.61533992009696       -3.86218628463020        1.44288651698120
H            6.02006877064373       -3.19104170750083        1.86197119189208
H            6.36414261238328       -3.71041546374455        0.18514740855445
H            4.68075341542537       -2.04687629912026        0.27788839488835
H            0.06728352577892       -1.38154251346347       -2.02242306643395
H           -1.67258276479393       -1.39139266605276       -1.69052144640096
H           -0.56722378950256       -2.23940417249185       -0.60400976265427
H           -5.04955404389469        3.46717409887850       -0.33258498486967
H           -4.78826322509206        2.38873661135729        2.51141612154041
H           -5.92436765262181        1.79391434679085        1.29547388556396
H           -6.06687157903358        3.44029509761820        1.90782354712548
H           -2.90963131573694        4.09218773642860        1.74839566304995
H           -3.17985208303033        4.92811106815404        0.21317964369635
H           -4.34836886428483        5.09039114461884        1.51637255643883
H           -1.45923200927816        1.25535080974769        2.69941737161082

          :  Hamiltonian                  GFN2-xTB          :
         :: total energy             -99.354094847715 Eh    ::
         :: gradient norm              0.007043544459 Eh/a0 ::
         :: HOMO-LUMO gap              1.458695557596 eV    ::
         :: SCC energy              -100.721871950755 Eh    ::
         :: -> dispersion             -0.072041970936 Eh    ::
         :: repulsion energy           1.366456881360 Eh    ::

    * Orbital Energies and Occupations

         #    Occupation            Energy/Eh            Energy/eV
      -------------------------------------------------------------
         1        2.0000           -0.8260522             -22.4780
       ...           ...                  ...                  ...
        78        1.9982           -0.5318614             -14.4727
        79        1.9979           -0.5295701             -14.4103
        80        1.9968           -0.5226542             -14.2221
        81        1.9953           -0.5166688             -14.0593
        82        1.9951           -0.5160742             -14.0431
        83        1.9919           -0.5079150             -13.8211
        84        1.9909           -0.5060794             -13.7711
        85        1.9860           -0.4992784             -13.5861
        86        1.9813           -0.4945916             -13.4585
        87        1.9602           -0.4824643             -13.1285
        88        1.8888           -0.4656305             -12.6705
        89        1.8485           -0.4603832             -12.5277
        90        1.8233           -0.4577325             -12.4555 (HOMO)
        91        0.5179           -0.4041264             -10.9968 (LUMO)
        92        0.0340           -0.3565127              -9.7012
        93        0.0038           -0.3214586              -8.7473
        94        0.0028           -0.3165819              -8.6146
        95        0.0002           -0.2762251              -7.5165
        96        0.0000           -0.2462241              -6.7001
        97        0.0000           -0.1860274              -5.0621
        98                         -0.1374173              -3.7393
        99                         -0.0866626              -2.3582
       100                         -0.0753740              -2.0510
       101                         -0.0680083              -1.8506
       ...                                ...                  ...
       171                          0.7247875              19.7225
      -------------------------------------------------------------
                  HL-Gap            0.0536061 Eh            1.4587 eV

     #   Z          covCN         q      C6AA      α(0)
     1   7 N        1.771    -0.301    28.600     7.919
     2   6 C        3.217     0.129    24.554     8.060
     3   6 C        4.149     0.007    20.375     6.411
     4   6 C        3.330    -0.000    25.688     8.044
     5   6 C        2.904    -0.072    29.784     8.948
     6   6 C        2.874     0.136    25.032     8.202
     7   8 O        1.706    -0.217    17.605     5.665
     8   6 C        3.645     0.025    20.488     6.506
     9   6 C        2.873     0.130    25.147     8.221
    10   8 O        1.706    -0.226    17.755     5.689
    11   6 C        3.645     0.028    20.440     6.498
    12   6 C        2.903    -0.067    29.679     8.933
    13   6 C        3.225    -0.036    28.088     8.612
    14   6 C        3.802    -0.066    21.756     6.641
    15   6 C        3.798    -0.070    21.836     6.654
    16   6 C        3.738    -0.004    20.728     6.496
    17   7 N        2.676    -0.214    25.673     7.525
    18   6 C        3.806    -0.056    21.580     6.613
    19   6 C        3.806    -0.055    21.551     6.609
    20   6 C        3.919     0.035    19.925     6.344
    21   6 C        2.910    -0.034    28.849     8.807
    22   6 C        2.903    -0.063    29.579     8.918
    23   6 C        2.863     0.143    24.875     8.175
    24   8 O        1.706    -0.190    17.184     5.597
    25   6 C        3.645     0.017    20.620     6.526
    26   6 C        2.853     0.135    25.040     8.202
    27   8 O        1.706    -0.229    17.791     5.695
    28   6 C        3.646     0.024    20.507     6.508
    29   6 C        2.907    -0.078    29.944     8.973
    30   6 C        3.690    -0.037    21.424     6.624
    31   6 C        3.851    -0.009    20.697     6.471
    32   6 C        3.755    -0.107    22.608     6.780
    33   6 C        3.756    -0.118    22.811     6.810
    34   1 H        0.926     0.057     2.234     2.337
    35   1 H        0.924     0.058     2.222     2.331
    36   1 H        0.925     0.084     1.942     2.179
    37   1 H        0.924     0.055     2.259     2.351
    38   1 H        0.924     0.055     2.259     2.350
    39   1 H        0.925     0.082     1.961     2.190
    40   1 H        0.924     0.049     2.333     2.389
    41   1 H        0.926     0.050     2.316     2.380
    42   1 H        0.860     0.152     1.387     1.845
    43   1 H        0.924     0.051     2.313     2.378
    44   1 H        0.925     0.061     2.185     2.312
    45   1 H        0.924     0.041     2.439     2.442
    46   1 H        0.924     0.047     2.362     2.403
    47   1 H        0.924     0.056     2.252     2.347
    48   1 H        0.924     0.047     2.358     2.401
    49   1 H        0.926     0.069     2.093     2.262
    50   1 H        0.926     0.070     2.087     2.259
    51   1 H        0.926     0.064     2.149     2.293
    52   1 H        0.926     0.066     2.130     2.282
    53   1 H        0.926     0.065     2.142     2.288
    54   1 H        0.926     0.069     2.097     2.265
    55   1 H        0.924     0.065     2.141     2.288
    56   1 H        0.924     0.065     2.142     2.289
    57   1 H        0.925     0.091     1.867     2.137
    58   1 H        0.925     0.085     1.926     2.170
    59   1 H        0.924     0.053     2.286     2.365
    60   1 H        0.924     0.053     2.280     2.361
    61   1 H        0.926     0.062     2.171     2.304
    62   1 H        0.925     0.055     2.258     2.350
    63   1 H        0.924     0.033     2.550     2.497
    64   1 H        0.925     0.048     2.340     2.392
    65   1 H        0.924     0.041     2.433     2.439
    66   1 H        0.925     0.041     2.440     2.443
    67   1 H        0.925     0.034     2.531     2.488
    68   1 H        0.925     0.051     2.305     2.374
    69   1 H        0.925     0.063     2.161     2.299
    70   1 H        0.925     0.043     2.405     2.425
    71   1 H        0.925     0.053     2.289     2.366
    72   1 H        0.860     0.155     1.370     1.834

Wiberg/Mayer (AO) data.
largest (>0.10) Wiberg bond orders for each atom

     #   Z sym  total        # sym  WBO       # sym  WBO       # sym  WBO
 ---------------------------------------------------------------------------
     1   7 N    2.975 --     2 C    1.849    72 H    0.935
     2   6 C    3.923 --     1 N    1.849    13 C    1.026     3 C    0.942
     3   6 C    3.956 --    14 C    0.973     4 C    0.969    31 C    0.949
                             2 C    0.942
     4   6 C    3.928 --     5 C    1.440    13 C    1.293     3 C    0.969
     5   6 C    3.963 --     4 C    1.440     6 C    1.350    34 H    0.960
     6   6 C    3.888 --     5 C    1.350     9 C    1.216     7 O    1.122
     7   8 O    2.265 --     6 C    1.122     8 C    0.974
     8   6 C    3.926 --    36 H    0.977     7 O    0.974    35 H    0.972
                            37 H    0.972
     9   6 C    3.889 --    12 C    1.387     6 C    1.216    10 O    1.103
    10   8 O    2.249 --     9 C    1.103    11 C    0.978
    11   6 C    3.930 --    10 O    0.978    39 H    0.977    40 H    0.973
                            38 H    0.973
    12   6 C    3.951 --     9 C    1.387    13 C    1.370    41 H    0.961
    13   6 C    3.902 --    12 C    1.370     4 C    1.293     2 C    1.026
    14   6 C    3.979 --    15 C    1.008     3 C    0.973    43 H    0.967
                            44 H    0.965
    15   6 C    3.965 --    14 C    1.008    46 H    0.975    16 C    0.974
                            45 H    0.965
    16   6 C    3.968 --    17 N    1.023    15 C    0.974    48 H    0.970
                            47 H    0.968
    17   7 N    3.047 --    30 C    1.031    16 C    1.023    42 H    0.941
    18   6 C    3.863 --    19 C    1.030    50 H    0.974    49 H    0.974
                            20 C    0.826
    19   6 C    3.859 --    18 C    1.030    51 H    0.975    52 H    0.975
                            20 C    0.819
    20   6 C    3.937 --    21 C    1.123    29 C    1.104    18 C    0.826
                            19 C    0.819
    21   6 C    3.792 --    22 C    1.573    20 C    1.123    53 H    0.966
    22   6 C    3.978 --    21 C    1.573    23 C    1.287    54 H    0.960
    23   6 C    3.743 --    22 C    1.287    24 O    1.166    26 C    1.152
    24   8 O    2.284 --    23 C    1.166    25 C    0.967
    25   6 C    3.920 --    57 H    0.976    56 H    0.971    55 H    0.971
                            24 O    0.967
    26   6 C    3.934 --    29 C    1.530    23 C    1.152    27 O    1.102
    27   8 O    2.267 --    26 C    1.102    28 C    0.975    29 C    0.100
    28   6 C    3.929 --    58 H    0.976    27 O    0.975    59 H    0.974
                            60 H    0.974
    29   6 C    3.830 --    26 C    1.530    20 C    1.104    61 H    0.961
                            27 O    0.100
    30   6 C    3.972 --    17 N    1.031    64 H    0.981    62 H    0.978
                            63 H    0.960
    31   6 C    3.973 --    32 C    1.007    33 C    1.006    65 H    0.959
                             3 C    0.949
    32   6 C    3.985 --    31 C    1.007    68 H    0.983    66 H    0.983
                            67 H    0.982
    33   6 C    3.978 --    31 C    1.006    70 H    0.982    71 H    0.979
                            69 H    0.976
    34   1 H    0.994 --     5 C    0.960
    35   1 H    0.992 --     8 C    0.972
    36   1 H    0.992 --     8 C    0.977
    37   1 H    0.992 --     8 C    0.972
    38   1 H    0.992 --    11 C    0.973
    39   1 H    0.993 --    11 C    0.977
    40   1 H    0.993 --    11 C    0.973
    41   1 H    0.995 --    12 C    0.961
    42   1 H    0.974 --    17 N    0.941
    43   1 H    0.992 --    14 C    0.967
    44   1 H    0.993 --    14 C    0.965
    45   1 H    0.997 --    15 C    0.965
    46   1 H    0.994 --    15 C    0.975
    47   1 H    0.994 --    16 C    0.968
    48   1 H    0.992 --    16 C    0.970
    49   1 H    0.993 --    18 C    0.974
    50   1 H    0.993 --    18 C    0.974
    51   1 H    0.994 --    19 C    0.975
    52   1 H    0.993 --    19 C    0.975
    53   1 H    0.995 --    21 C    0.966
    54   1 H    0.994 --    22 C    0.960
    55   1 H    0.990 --    25 C    0.971
    56   1 H    0.990 --    25 C    0.971
    57   1 H    0.991 --    25 C    0.976
    58   1 H    0.992 --    28 C    0.976
    59   1 H    0.995 --    28 C    0.974
    60   1 H    0.995 --    28 C    0.974
    61   1 H    0.995 --    29 C    0.961
    62   1 H    0.993 --    30 C    0.978
    63   1 H    0.978 --    30 C    0.960
    64   1 H    0.995 --    30 C    0.981
    65   1 H    0.990 --    31 C    0.959
    66   1 H    0.996 --    32 C    0.983
    67   1 H    0.997 --    32 C    0.982
    68   1 H    0.995 --    32 C    0.983
    69   1 H    0.991 --    33 C    0.976
    70   1 H    0.995 --    33 C    0.982
    71   1 H    0.993 --    33 C    0.979
    72   1 H    0.968 --     1 N    0.935
 ---------------------------------------------------------------------------

molecular dipole:
                 x           y           z       tot (Debye)
 q only:        2.234      -0.152      -0.554
   full:        1.707      -0.417      -0.570       4.695

           -------------------------------------------------
          | TOTAL ENERGY              -99.354094847715 Eh   |
          | GRADIENT NORM               0.007043544459 Eh/α |
          | HOMO-LUMO GAP               1.458695557596 eV   |
           -------------------------------------------------

 * finished run on 2024/04/06 at 11:16:48.635
