   * xtb version 6.6.1 (8d0f1dd) compiled by 'conda@1efc2f54142f' on 2023-08-01
          program call               : xtb struc.xyz --opt loose --input .xc1 --gfn2

   ID    Z sym.   atoms
    1    7 N      1, 17
    2    6 C      2-6, 8, 9, 11-16, 18-23, 25, 26, 28-33
    3    8 O      7, 10, 24, 27
    4    1 H      34-72
constraining bond 4 34 to    2.7133300 Å, actual value:    2.1431065 Å

          :  Hamiltonian                  GFN2-xTB          :
 * total energy  :   -99.4621884 Eh     change       -0.4035485E-08 Eh
 * total energy  :   -99.5352658 Eh     change       -0.7307746E-01 Eh
 * total energy  :   -99.6187092 Eh     change       -0.8344344E-01 Eh
 * total energy  :   -99.6782446 Eh     change       -0.5953531E-01 Eh
 * total energy  :   -99.6960405 Eh     change       -0.1779599E-01 Eh
 * total energy  :   -99.7230015 Eh     change       -0.2696097E-01 Eh
 * total energy  :   -99.7305013 Eh     change       -0.7499762E-02 Eh
 * total energy  :   -99.7558193 Eh     change       -0.2531801E-01 Eh
 * total energy  :   -99.7661946 Eh     change       -0.1037532E-01 Eh
 * total energy  :   -99.7807175 Eh     change       -0.1452285E-01 Eh
 * total energy  :   -99.8566240 Eh     change       -0.1313365E-03 Eh
 * total energy  :   -99.8567799 Eh     change       -0.1559026E-03 Eh
 * total energy  :   -99.8569475 Eh     change       -0.1676527E-03 Eh
 * total energy  :   -99.8571025 Eh     change       -0.1549744E-03 Eh
 * total energy  :   -99.8572496 Eh     change       -0.1471236E-03 Eh
 * total energy  :   -99.8574078 Eh     change       -0.1581695E-03 Eh
 * total energy  :   -99.8575755 Eh     change       -0.1677345E-03 Eh
 * total energy  :   -99.8577350 Eh     change       -0.1594410E-03 Eh
 * total energy  :   -99.8577812 Eh     change       -0.4622925E-04 Eh
   *** GEOMETRY OPTIMIZATION CONVERGED AFTER 44 ITERATIONS ***

 final structure:
================
72
 xtb: 6.6.1 (8d0f1dd)
N           -2.20595985275091        2.72007215545717        2.47428892018577
C           -2.09099072156019        2.12602628711210        1.37820804761060
C           -3.20751661256513        1.95018870523974        0.39495397472377
C           -4.05526790134082        0.66371655367758        0.81229270912210
C           -4.75078283749144        0.11348118576868       -0.36602543612816
C           -4.83066246945807       -1.20087661093330       -0.67551028608667
O           -5.47757021567655       -1.70461860694138       -1.75303514184290
C           -6.16912533582902       -0.76770392458577       -2.54747331236631
C           -4.20216131046840       -2.18270568247614        0.17451913770645
O           -4.42176419711075       -3.46126248688682       -0.13992860517616
C           -3.97580660988215       -4.48671754303375        0.72173067511800
C           -3.40617994110663       -1.72374996002616        1.24302768676337
C           -3.25924459827992       -0.40050771808055        1.51720538958093
C           -2.61579549276267        1.76070798153075       -1.01733187811540
C           -1.71612685326829        0.53477723205577       -1.20352002967829
C           -0.34046622901090        0.73089452242674       -0.69402061774811
N            0.44378600497292       -0.25592569189751       -0.27209458825857
C            1.84489276118990       -0.02464028733427       -0.01430245800687
C            2.71047928962849       -0.34087471567523       -1.24977550716283
C            4.15888919408793       -0.12610833181964       -0.91584685511132
C            4.76551302205725        1.09884606044239       -1.13624089345818
C            6.08788252356478        1.30920610014877       -0.77665480538317
C            6.82808343682975        0.29765823139050       -0.18176876199258
O            8.10953662075962        0.39461416812490        0.21883369208394
C            8.79009066252188        1.61677865793592        0.05035431719614
C            6.21558671548899       -0.96637764980560        0.04123514388422
O            7.00650626138276       -1.89635617727060        0.61396413631598
C            6.49106103652230       -3.18395371335760        0.85259257346911
C            4.89281600269351       -1.15260194515527       -0.32549553024929
C           -0.03204018045789       -1.61693824972124       -0.20935377689097
C           -4.19252970804114        3.15769943766224        0.35847908903344
C           -4.97009208767556        3.36221092659857        1.65927175061359
C           -3.48355528725496        4.46876282973691        0.01386513976067
H           -4.62157674988993        0.95320033649103        1.36809475467985
H           -6.96789005776392       -0.28675990118209       -1.97660555611302
H           -6.58897482746785       -1.32702508066105       -3.37995083413957
H           -5.48788293304639        0.00457832142953       -2.91838591826884
H           -4.36309220385501       -4.35157495272288        1.73498419517028
H           -4.36861350392882       -5.41115122434741        0.30353141502339
H           -2.88289586697568       -4.53971365763911        0.74968155526233
H           -2.89378780359574       -2.45002770255163        1.85810369615585
H           -2.64789470974140       -0.08331010646056        2.34838416161772
H           -3.45559514893925        1.67443582325612       -1.70760262658641
H           -2.04621257789193        2.65090118229370       -1.28449381655057
H           -2.18722697318971       -0.33857816608933       -0.75673877399139
H           -1.64759678319304        0.34322311238358       -2.28339704928008
H           -1.14941222923455        1.64931343681362        1.03581916038734
H            0.12741855280538        1.69484833666653       -0.82751994302565
H            2.16162518134083       -0.65259604192451        0.82181269477916
H            1.99574480167736        1.01937605121738        0.26808069922473
H            2.40958464769843        0.31396798794368       -2.06868644088081
H            2.54329046962363       -1.37488316691015       -1.55514356390591
H            4.21214968054930        1.90046814484190       -1.60122871315918
H            6.53537731574836        2.27066681901471       -0.96716392323968
H            8.29621150122308        2.42792764793479        0.59400513190384
H            8.87679804331104        1.88454956193782       -1.00697992360871
H            9.78360800081695        1.45718255448776        0.46469825799350
H            7.30744181347940       -3.74781009782654        1.29957255775185
H            5.64782286564463       -3.15600391684427        1.55065037007517
H            6.18149466446679       -3.67151878841995       -0.07718633881799
H            4.41901045682353       -2.10864197222464       -0.16596750146641
H           -0.37232242438278       -1.95964212019411       -1.18845036714840
H           -0.86490623745654       -1.69428722028870        0.49296149090742
H            0.77117748322251       -2.26558001493262        0.12965774013090
H           -4.91297618812081        2.93405482603539       -0.43688535239159
H           -4.28509301861863        3.44495745844044        2.49726381074412
H           -5.67891153765349        2.56109140416709        1.85245225952031
H           -5.54202853251676        4.28361162343402        1.58916886666507
H           -2.72244512891820        4.69409500926103        0.75618126217766
H           -3.02659053975369        4.44840185596660       -0.97133346645569
H           -4.20666016491850        5.27956209117100        0.01752878321339
H           -1.38313883008971        2.77910832823329        3.06590818875969

          :  Hamiltonian                  GFN2-xTB          :
         :: total energy             -99.857781205566 Eh    ::
         :: gradient norm              0.002809139202 Eh/a0 ::
         :: HOMO-LUMO gap              0.735919002888 eV    ::
         :: SCC energy              -100.668098847933 Eh    ::
         :: -> dispersion             -0.075012291693 Eh    ::
         :: repulsion energy           1.432579432729 Eh    ::

    * Orbital Energies and Occupations

         #    Occupation            Energy/Eh            Energy/eV
      -------------------------------------------------------------
         1        2.0000           -0.8246688             -22.4404
       ...           ...                  ...                  ...
        78        1.9988           -0.5322093             -14.4822
        79        1.9986           -0.5304808             -14.4351
        80        1.9984           -0.5280996             -14.3703
        81        1.9980           -0.5243394             -14.2680
        82        1.9972           -0.5191499             -14.1268
        83        1.9968           -0.5168056             -14.0630
        84        1.9959           -0.5129483             -13.9580
        85        1.9949           -0.5096966             -13.8695
        86        1.9795           -0.4874233             -13.2635
        87        1.9496           -0.4729465             -12.8695
        88        1.9364           -0.4691586             -12.7665
        89        1.8517           -0.4550481             -12.3825
        90        1.3438           -0.4264198             -11.6035 (HOMO)
        91        0.5413           -0.3993752             -10.8676 (LUMO)
        92        0.3989           -0.3930630             -10.6958
        93        0.0193           -0.3417761              -9.3002
        94        0.0029           -0.3114913              -8.4761
        95        0.0026           -0.3097644              -8.4291
        96        0.0024           -0.3087364              -8.4011
        97        0.0000           -0.2256331              -6.1398
        98        0.0000           -0.1863643              -5.0712
        99                         -0.1345779              -3.6621
       100                         -0.0728307              -1.9818
       101                         -0.0696916              -1.8964
       ...                                ...                  ...
       171                          0.8493156              23.1111
      -------------------------------------------------------------
                  HL-Gap            0.0270445 Eh            0.7359 eV

     #   Z          covCN         q      C6AA      α(0)
     1   7 N        1.774    -0.275    27.958     7.830
     2   6 C        2.819     0.098    25.825     8.327
     3   6 C        3.897     0.012    20.315     6.407
     4   6 C        3.863    -0.031    21.093     6.531
     5   6 C        1.982    -0.148    35.235     9.586
     6   6 C        2.861     0.130    25.142     8.219
     7   8 O        1.705    -0.243    18.034     5.734
     8   6 C        3.657     0.028    20.395     6.482
     9   6 C        2.861     0.133    25.095     8.211
    10   8 O        1.705    -0.206    17.425     5.636
    11   6 C        3.645     0.024    20.509     6.509
    12   6 C        2.898    -0.072    29.792     8.949
    13   6 C        2.903    -0.049    29.208     8.862
    14   6 C        3.809    -0.071    21.857     6.655
    15   6 C        3.803    -0.069    21.817     6.650
    16   6 C        2.844     0.004    27.935     8.662
    17   7 N        2.729     0.006    21.157     6.832
    18   6 C        3.755    -0.016    20.919     6.521
    19   6 C        3.808    -0.070    21.835     6.652
    20   6 C        2.970    -0.001    28.042     8.686
    21   6 C        2.922    -0.049    29.209     8.863
    22   6 C        2.914    -0.068    29.682     8.934
    23   6 C        2.865     0.133    25.086     8.210
    24   8 O        1.706    -0.223    17.695     5.679
    25   6 C        3.646     0.025    20.484     6.504
    26   6 C        2.863     0.133    25.097     8.212
    27   8 O        1.706    -0.226    17.746     5.688
    28   6 C        3.645     0.028    20.440     6.498
    29   6 C        2.920    -0.080    30.007     8.983
    30   6 C        3.701    -0.069    21.984     6.705
    31   6 C        3.851    -0.014    20.788     6.485
    32   6 C        3.756    -0.125    22.960     6.832
    33   6 C        3.756    -0.114    22.736     6.798
    34   1 H        0.930     0.143     1.441     1.877
    35   1 H        0.924     0.057     2.231     2.336
    36   1 H        0.925     0.075     2.029     2.227
    37   1 H        0.924     0.049     2.335     2.390
    38   1 H        0.924     0.061     2.190     2.314
    39   1 H        0.925     0.086     1.915     2.164
    40   1 H        0.924     0.051     2.311     2.377
    41   1 H        0.926     0.048     2.349     2.397
    42   1 H        0.926     0.045     2.377     2.411
    43   1 H        0.924     0.067     2.121     2.278
    44   1 H        0.925     0.055     2.257     2.349
    45   1 H        0.925     0.070     2.087     2.259
    46   1 H        0.923     0.079     1.988     2.205
    47   1 H        0.922     0.008     2.931     2.677
    48   1 H        0.926     0.070     2.085     2.258
    49   1 H        0.924     0.067     2.115     2.274
    50   1 H        0.924     0.067     2.118     2.276
    51   1 H        0.924     0.054     2.267     2.354
    52   1 H        0.924     0.055     2.264     2.353
    53   1 H        0.926     0.046     2.376     2.410
    54   1 H        0.926     0.059     2.216     2.328
    55   1 H        0.924     0.054     2.276     2.359
    56   1 H        0.924     0.056     2.248     2.345
    57   1 H        0.925     0.082     1.959     2.189
    58   1 H        0.925     0.081     1.965     2.192
    59   1 H        0.924     0.047     2.357     2.401
    60   1 H        0.924     0.052     2.297     2.370
    61   1 H        0.926     0.045     2.380     2.412
    62   1 H        0.924     0.075     2.033     2.229
    63   1 H        0.924     0.075     2.037     2.232
    64   1 H        0.925     0.079     1.985     2.203
    65   1 H        0.924     0.050     2.324     2.384
    66   1 H        0.925     0.076     2.018     2.222
    67   1 H        0.925     0.037     2.491     2.468
    68   1 H        0.925     0.055     2.260     2.351
    69   1 H        0.925     0.046     2.367     2.406
    70   1 H        0.925     0.034     2.524     2.485
    71   1 H        0.925     0.055     2.257     2.349
    72   1 H        0.860     0.155     1.366     1.831

Wiberg/Mayer (AO) data.
largest (>0.10) Wiberg bond orders for each atom

     #   Z sym  total        # sym  WBO       # sym  WBO       # sym  WBO
 ---------------------------------------------------------------------------
     1   7 N    3.025 --     2 C    1.940    72 H    0.943
     2   6 C    3.919 --     1 N    1.940     3 C    1.007    47 H    0.896
     3   6 C    3.933 --     2 C    1.007    14 C    0.982    31 C    0.954
                             4 C    0.867
     4   6 C    3.944 --     5 C    1.056    13 C    1.006    34 H    0.890
                             3 C    0.867
     5   6 C    2.847 --     6 C    1.527     4 C    1.056
     6   6 C    3.877 --     5 C    1.527     9 C    1.132     7 O    1.075
     7   8 O    2.223 --     6 C    1.075     8 C    0.977
     8   6 C    3.926 --    36 H    0.979     7 O    0.977    35 H    0.974
                            37 H    0.973
     9   6 C    3.672 --    12 C    1.264    10 O    1.145     6 C    1.132
    10   8 O    2.268 --     9 C    1.145    11 C    0.969
    11   6 C    3.923 --    39 H    0.976    38 H    0.973    40 H    0.973
                            10 O    0.969
    12   6 C    3.971 --    13 C    1.610     9 C    1.264    41 H    0.955
    13   6 C    3.715 --    12 C    1.610     4 C    1.006    42 H    0.960
    14   6 C    3.976 --    15 C    0.993     3 C    0.982    44 H    0.966
                            43 H    0.964
    15   6 C    3.985 --    16 C    1.059    14 C    0.993    45 H    0.951
                            46 H    0.921
    16   6 C    3.585 --    17 N    1.392    15 C    1.059    48 H    0.956
    17   7 N    3.471 --    16 C    1.392    30 C    0.999    18 C    0.988
    18   6 C    3.955 --    17 N    0.988    50 H    0.968    19 C    0.965
                            49 H    0.965
    19   6 C    3.976 --    20 C    1.008    51 H    0.973    52 H    0.971
                            18 C    0.965
    20   6 C    3.946 --    21 C    1.412    29 C    1.377    19 C    1.008
    21   6 C    3.951 --    22 C    1.415    20 C    1.412    53 H    0.968
    22   6 C    3.960 --    21 C    1.415    23 C    1.385    54 H    0.963
    23   6 C    3.897 --    22 C    1.385    26 C    1.220    24 O    1.109
    24   8 O    2.255 --    23 C    1.109    25 C    0.976
    25   6 C    3.929 --    57 H    0.977    24 O    0.976    55 H    0.973
                            56 H    0.972
    26   6 C    3.900 --    29 C    1.398    23 C    1.220    27 O    1.102
    27   8 O    2.254 --    26 C    1.102    28 C    0.979
    28   6 C    3.933 --    27 O    0.979    58 H    0.977    59 H    0.974
                            60 H    0.973
    29   6 C    3.960 --    26 C    1.398    20 C    1.377    61 H    0.963
    30   6 C    3.960 --    17 N    0.999    64 H    0.978    62 H    0.969
                            63 H    0.961
    31   6 C    3.975 --    32 C    1.009    33 C    1.006    65 H    0.960
                             3 C    0.954
    32   6 C    3.975 --    31 C    1.009    68 H    0.979    67 H    0.978
                            66 H    0.969
    33   6 C    3.987 --    31 C    1.006    69 H    0.983    71 H    0.981
                            70 H    0.981
    34   1 H    0.953 --     4 C    0.890
    35   1 H    0.992 --     8 C    0.974
    36   1 H    0.993 --     8 C    0.979
    37   1 H    0.993 --     8 C    0.973
    38   1 H    0.991 --    11 C    0.973
    39   1 H    0.992 --    11 C    0.976
    40   1 H    0.992 --    11 C    0.973
    41   1 H    0.990 --    12 C    0.955
    42   1 H    0.989 --    13 C    0.960
    43   1 H    0.994 --    14 C    0.964
    44   1 H    0.995 --    14 C    0.966
    45   1 H    0.991 --    15 C    0.951
    46   1 H    0.965 --    15 C    0.921
    47   1 H    0.989 --     2 C    0.896
    48   1 H    0.994 --    16 C    0.956
    49   1 H    0.992 --    18 C    0.965
    50   1 H    0.994 --    18 C    0.968
    51   1 H    0.996 --    19 C    0.973
    52   1 H    0.996 --    19 C    0.971
    53   1 H    0.997 --    21 C    0.968
    54   1 H    0.995 --    22 C    0.963
    55   1 H    0.992 --    25 C    0.973
    56   1 H    0.992 --    25 C    0.972
    57   1 H    0.993 --    25 C    0.977
    58   1 H    0.993 --    28 C    0.977
    59   1 H    0.994 --    28 C    0.974
    60   1 H    0.993 --    28 C    0.973
    61   1 H    0.997 --    29 C    0.963
    62   1 H    0.986 --    30 C    0.969
    63   1 H    0.987 --    30 C    0.961
    64   1 H    0.994 --    30 C    0.978
    65   1 H    0.992 --    31 C    0.960
    66   1 H    0.990 --    32 C    0.969
    67   1 H    0.996 --    32 C    0.978
    68   1 H    0.994 --    32 C    0.979
    69   1 H    0.996 --    33 C    0.983
    70   1 H    0.998 --    33 C    0.981
    71   1 H    0.995 --    33 C    0.981
    72   1 H    0.971 --     1 N    0.943
 ---------------------------------------------------------------------------

molecular dipole:
                 x           y           z       tot (Debye)
 q only:        0.417      -0.370      -0.145
   full:        0.821      -0.693      -0.028       2.733

           -------------------------------------------------
          | TOTAL ENERGY              -99.857781205566 Eh   |
          | GRADIENT NORM               0.002809139202 Eh/α |
          | HOMO-LUMO GAP               0.735919002888 eV   |
           -------------------------------------------------

 * finished run on 2024/04/06 at 11:15:39.911
