   * xtb version 6.6.1 (8d0f1dd) compiled by 'conda@1efc2f54142f' on 2023-08-01
          program call               : xtb xtbopt.xyz --opt crude --input .xc2 --gfn2

   ID    Z sym.   atoms
    1    7 N      1, 17
    2    6 C      2-6, 8, 9, 11-16, 18-23, 25, 26, 28-33
    3    8 O      7, 10, 24, 27
    4    1 H      34-72
########################################################################
[WARNING] Please study the warnings concerning your input carefully
-1- readin_getIntValue: could not parse ''
########################################################################

          :  Hamiltonian                  GFN2-xTB          :
 * total energy  :   -99.2342753 Eh     change       -0.1753619E-10 Eh
 * total energy  :   -99.2950983 Eh     change       -0.6082303E-01 Eh
 * total energy  :   -99.2965628 Eh     change       -0.1464473E-02 Eh
 * total energy  :   -99.2972863 Eh     change       -0.7234484E-03 Eh
 * total energy  :   -99.2973448 Eh     change       -0.5856935E-04 Eh
   *** GEOMETRY OPTIMIZATION CONVERGED AFTER 5 ITERATIONS ***

 final structure:
================
72
 xtb: 6.6.1 (8d0f1dd)
N           -2.21323640197402        2.71840826805234        2.47472961699114
C           -2.09196985908857        2.12722966280300        1.37821200408311
C           -3.20829948178060        1.94560392981859        0.39367060322550
C           -4.01404145132530        0.64146276606985        0.77597560057588
C           -4.75232357034450        0.10946629669908       -0.37122664835973
C           -4.84256096171297       -1.20754984874855       -0.67341016706454
O           -5.50529329527390       -1.71016816676832       -1.74258973000723
C           -6.18415411936679       -0.76669081414246       -2.53860402274200
C           -4.21136396012800       -2.18927027858398        0.17338112706027
O           -4.43357264605466       -3.46733488755257       -0.14222908941986
C           -3.97773086163974       -4.49505990622652        0.71054020979080
C           -3.41284728279086       -1.73406838373722        1.24079836098337
C           -3.25081690347241       -0.40911892177033        1.50661910111917
C           -2.61191908582198        1.76464444526415       -1.02028440540199
C           -1.71364010713825        0.53768930940361       -1.21095948292141
C           -0.33844334017697        0.73137258331156       -0.69937671965242
N            0.44617616496607       -0.25474297030226       -0.27592335838473
C            1.84618112204515       -0.01893938199559       -0.01605434271678
C            2.71673349335517       -0.34479602954882       -1.24567166533055
C            4.16426809485924       -0.12710810044051       -0.90905785539193
C            4.76895583952422        1.09901272002514       -1.12811398846389
C            6.09153133883455        1.31069536435736       -0.76976217264131
C            6.83410493342075        0.29926011272978       -0.17786503863215
O            8.11668149758541        0.39603197638068        0.21915280018482
C            8.79878459518184        1.61660750321728        0.04509510170316
C            6.22300466920141       -0.96539076827983        0.04539871402965
O            7.01596332761528       -1.89515579187831        0.61571064330567
C            6.50263269955894       -3.18395621751248        0.85248723719996
C            4.90003187828592       -1.15282672515847       -0.31972229702296
C           -0.02560165508343       -1.61680319608963       -0.21177107457673
C           -4.19307659008636        3.15429563953708        0.35521369399406
C           -4.97344714375215        3.37197706364627        1.65225919650356
C           -3.47909852536411        4.46334159464325        0.01021811421564
H           -4.75362810952519        1.00279265656099        1.50874287979152
H           -6.97091298856904       -0.26758621044904       -1.96606413445221
H           -6.61979537210529       -1.32255878201830       -3.36558433539978
H           -5.49194501973710       -0.00838956484530       -2.91815936311825
H           -4.35705587279366       -4.36612053692502        1.72807297095165
H           -4.37188047773280       -5.41882513884284        0.29180276530208
H           -2.88440852936103       -4.54533939767532        0.72979663549678
H           -2.91121466899407       -2.46135261567742        1.86342635088757
H           -2.63674618687179       -0.09389142933792        2.33631491904340
H           -3.45166059681495        1.68111786400356       -1.71124280162944
H           -2.04070912215849        2.65425163973816       -1.28505553239434
H           -2.18503626907709       -0.33894144513228       -0.77024390019664
H           -1.64365451934135        0.35158430452590       -2.29204016312594
H           -1.14657447050138        1.65805849041053        1.03602132676794
H            0.12978717543918        1.69503666806566       -0.83321661650374
H            2.16204747486070       -0.63815146339533        0.82709382789419
H            1.99387517718462        1.02806158557151        0.25659049989423
H            2.41867169897677        0.30343873834220       -2.07113411375779
H            2.55117898863990       -1.38123205368259       -1.54353737490399
H            4.21440449330752        1.90077615211170       -1.59144519682633
H            6.53753916728259        2.27305958267258       -0.95943341161466
H            8.31091781806125        2.42921654014837        0.59203465893308
H            8.87839752381802        1.88368021021301       -1.01292428420055
H            9.79488857932192        1.45470077973747        0.45229291226425
H            7.32079046988221       -3.74780605310251        1.29609134824079
H            5.66104574472605       -3.15864746458365        1.55254570588494
H            6.19146049670104       -3.66958269321284       -0.07775550911244
H            4.42759715490450       -2.10953978779155       -0.16001686115340
H           -0.35423557247063       -1.96603314050483       -1.19302152887451
H           -0.86558751600185       -1.69490846713259        0.48206074219906
H            0.77680250919597       -2.26076445083466        0.13835748392706
H           -4.91233703741750        2.93081635849355       -0.44107911520636
H           -4.29203725287026        3.44458900124283        2.49398300037025
H           -5.70011711741847        2.58432728452320        1.84195891484948
H           -5.53245455599031        4.30107639052772        1.57739892571229
H           -2.71885088046674        4.68703156063227        0.75389079481974
H           -3.02061857668687        4.44164831286238       -0.97400329261058
H           -4.19947447051815        5.27673325326746        0.01213638955357
H           -1.39356610393933        2.78369399677962        3.06976925868803

          :  Hamiltonian                  GFN2-xTB          :
         :: total energy             -99.297344840295 Eh    ::
         :: gradient norm              0.001499996581 Eh/a0 ::
         :: HOMO-LUMO gap              0.768475850225 eV    ::
         :: SCC energy              -100.646261155425 Eh    ::
         :: -> dispersion             -0.074914760640 Eh    ::
         :: repulsion energy           1.347674688705 Eh    ::

    * Orbital Energies and Occupations

         #    Occupation            Energy/Eh            Energy/eV
      -------------------------------------------------------------
         1        2.0000           -0.8240789             -22.4243
       ...           ...                  ...                  ...
        78        1.9988           -0.5318160             -14.4714
        79        1.9987           -0.5300196             -14.4226
        80        1.9984           -0.5276402             -14.3578
        81        1.9981           -0.5245294             -14.2732
        82        1.9973           -0.5187319             -14.1154
        83        1.9970           -0.5175136             -14.0823
        84        1.9961           -0.5133840             -13.9699
        85        1.9949           -0.5088477             -13.8465
        86        1.9797           -0.4869701             -13.2511
        87        1.9513           -0.4728398             -12.8666
        88        1.9360           -0.4683936             -12.7456
        89        1.8535           -0.4545938             -12.3701
        90        1.3552           -0.4261699             -11.5967 (HOMO)
        91        0.5220           -0.3979290             -10.8282 (LUMO)
        92        0.4022           -0.3925679             -10.6823
        93        0.0197           -0.3414465              -9.2912
        94        0.0029           -0.3109951              -8.4626
        95        0.0026           -0.3093192              -8.4170
        96        0.0025           -0.3082900              -8.3890
        97        0.0000           -0.2260064              -6.1499
        98        0.0000           -0.1858741              -5.0579
        99                         -0.1341365              -3.6500
       100                         -0.0700209              -1.9054
       101                         -0.0693206              -1.8863
       ...                                ...                  ...
       171                          0.5789916              15.7552
      -------------------------------------------------------------
                  HL-Gap            0.0282410 Eh            0.7685 eV

     #   Z          covCN         q      C6AA      α(0)
     1   7 N        1.774    -0.276    27.984     7.834
     2   6 C        2.820     0.098    25.807     8.324
     3   6 C        3.900     0.012    20.313     6.407
     4   6 C        3.863    -0.013    20.764     6.480
     5   6 C        1.982    -0.147    35.204     9.582
     6   6 C        2.863     0.130    25.142     8.219
     7   8 O        1.705    -0.243    18.027     5.733
     8   6 C        3.658     0.028    20.386     6.480
     9   6 C        2.861     0.133    25.091     8.210
    10   8 O        1.705    -0.206    17.434     5.637
    11   6 C        3.644     0.024    20.504     6.508
    12   6 C        2.899    -0.073    29.808     8.952
    13   6 C        2.904    -0.045    29.122     8.849
    14   6 C        3.810    -0.071    21.848     6.653
    15   6 C        3.803    -0.068    21.801     6.648
    16   6 C        2.845     0.003    27.942     8.663
    17   7 N        2.729     0.006    21.165     6.833
    18   6 C        3.756    -0.016    20.915     6.521
    19   6 C        3.808    -0.070    21.834     6.652
    20   6 C        2.970    -0.001    28.045     8.687
    21   6 C        2.922    -0.049    29.211     8.863
    22   6 C        2.914    -0.068    29.684     8.934
    23   6 C        2.865     0.133    25.087     8.210
    24   8 O        1.706    -0.223    17.700     5.680
    25   6 C        3.645     0.025    20.483     6.504
    26   6 C        2.863     0.132    25.099     8.212
    27   8 O        1.706    -0.226    17.750     5.688
    28   6 C        3.645     0.028    20.439     6.498
    29   6 C        2.920    -0.080    30.007     8.983
    30   6 C        3.700    -0.068    21.973     6.703
    31   6 C        3.851    -0.014    20.792     6.486
    32   6 C        3.756    -0.124    22.938     6.829
    33   6 C        3.757    -0.114    22.738     6.799
    34   1 H        0.923     0.121     1.609     1.984
    35   1 H        0.924     0.057     2.235     2.338
    36   1 H        0.925     0.075     2.031     2.228
    37   1 H        0.924     0.049     2.338     2.391
    38   1 H        0.924     0.060     2.196     2.318
    39   1 H        0.925     0.086     1.917     2.165
    40   1 H        0.924     0.050     2.315     2.380
    41   1 H        0.926     0.048     2.347     2.396
    42   1 H        0.926     0.045     2.382     2.414
    43   1 H        0.924     0.066     2.126     2.280
    44   1 H        0.925     0.055     2.264     2.353
    45   1 H        0.925     0.069     2.092     2.262
    46   1 H        0.923     0.079     1.994     2.208
    47   1 H        0.922     0.007     2.936     2.680
    48   1 H        0.926     0.070     2.090     2.261
    49   1 H        0.924     0.067     2.118     2.276
    50   1 H        0.924     0.067     2.120     2.277
    51   1 H        0.924     0.054     2.268     2.355
    52   1 H        0.924     0.054     2.266     2.354
    53   1 H        0.926     0.045     2.379     2.412
    54   1 H        0.926     0.058     2.219     2.329
    55   1 H        0.924     0.054     2.277     2.360
    56   1 H        0.924     0.056     2.250     2.346
    57   1 H        0.925     0.082     1.960     2.189
    58   1 H        0.925     0.081     1.966     2.193
    59   1 H        0.924     0.047     2.357     2.401
    60   1 H        0.924     0.052     2.299     2.371
    61   1 H        0.926     0.045     2.381     2.413
    62   1 H        0.924     0.074     2.037     2.232
    63   1 H        0.924     0.074     2.040     2.234
    64   1 H        0.925     0.079     1.987     2.204
    65   1 H        0.924     0.050     2.321     2.382
    66   1 H        0.925     0.077     2.013     2.219
    67   1 H        0.925     0.039     2.460     2.453
    68   1 H        0.925     0.057     2.237     2.339
    69   1 H        0.925     0.046     2.366     2.405
    70   1 H        0.925     0.035     2.517     2.481
    71   1 H        0.925     0.055     2.259     2.350
    72   1 H        0.860     0.155     1.365     1.830

Wiberg/Mayer (AO) data.
largest (>0.10) Wiberg bond orders for each atom

     #   Z sym  total        # sym  WBO       # sym  WBO       # sym  WBO
 ---------------------------------------------------------------------------
     1   7 N    3.027 --     2 C    1.943    72 H    0.943
     2   6 C    3.919 --     1 N    1.943     3 C    1.004    47 H    0.898
     3   6 C    3.942 --     2 C    1.004    14 C    0.979    31 C    0.954
                             4 C    0.887
     4   6 C    3.949 --     5 C    1.066    13 C    1.021     3 C    0.887
                            34 H    0.850
     5   6 C    2.850 --     6 C    1.519     4 C    1.066
     6   6 C    3.877 --     5 C    1.519     9 C    1.137     7 O    1.076
     7   8 O    2.224 --     6 C    1.076     8 C    0.978
     8   6 C    3.927 --    36 H    0.979     7 O    0.978    35 H    0.973
                            37 H    0.973
     9   6 C    3.682 --    12 C    1.268    10 O    1.144     6 C    1.137
    10   8 O    2.270 --     9 C    1.144    11 C    0.969
    11   6 C    3.924 --    39 H    0.976    38 H    0.973    40 H    0.973
                            10 O    0.969
    12   6 C    3.971 --    13 C    1.602     9 C    1.268    41 H    0.956
    13   6 C    3.725 --    12 C    1.602     4 C    1.021    42 H    0.960
    14   6 C    3.976 --    15 C    0.993     3 C    0.979    44 H    0.966
                            43 H    0.965
    15   6 C    3.985 --    16 C    1.059    14 C    0.993    45 H    0.951
                            46 H    0.921
    16   6 C    3.582 --    17 N    1.391    15 C    1.059    48 H    0.956
    17   7 N    3.469 --    16 C    1.391    30 C    0.999    18 C    0.988
    18   6 C    3.956 --    17 N    0.988    50 H    0.968    19 C    0.966
                            49 H    0.965
    19   6 C    3.976 --    20 C    1.008    51 H    0.973    52 H    0.971
                            18 C    0.966
    20   6 C    3.946 --    21 C    1.412    29 C    1.377    19 C    1.008
    21   6 C    3.952 --    22 C    1.415    20 C    1.412    53 H    0.968
    22   6 C    3.960 --    21 C    1.415    23 C    1.385    54 H    0.963
    23   6 C    3.897 --    22 C    1.385    26 C    1.221    24 O    1.109
    24   8 O    2.255 --    23 C    1.109    25 C    0.976
    25   6 C    3.929 --    57 H    0.977    24 O    0.976    55 H    0.973
                            56 H    0.973
    26   6 C    3.901 --    29 C    1.398    23 C    1.221    27 O    1.101
    27   8 O    2.254 --    26 C    1.101    28 C    0.979
    28   6 C    3.933 --    27 O    0.979    58 H    0.977    59 H    0.974
                            60 H    0.973
    29   6 C    3.960 --    26 C    1.398    20 C    1.377    61 H    0.963
    30   6 C    3.960 --    17 N    0.999    64 H    0.978    62 H    0.968
                            63 H    0.961
    31   6 C    3.976 --    32 C    1.010    33 C    1.006    65 H    0.960
                             3 C    0.954
    32   6 C    3.974 --    31 C    1.010    68 H    0.977    66 H    0.970
                            67 H    0.967
    33   6 C    3.987 --    31 C    1.006    69 H    0.984    71 H    0.981
                            70 H    0.981
    34   1 H    0.938 --     4 C    0.850
    35   1 H    0.992 --     8 C    0.973
    36   1 H    0.993 --     8 C    0.979
    37   1 H    0.993 --     8 C    0.973
    38   1 H    0.991 --    11 C    0.973
    39   1 H    0.992 --    11 C    0.976
    40   1 H    0.992 --    11 C    0.973
    41   1 H    0.990 --    12 C    0.956
    42   1 H    0.989 --    13 C    0.960
    43   1 H    0.994 --    14 C    0.965
    44   1 H    0.995 --    14 C    0.966
    45   1 H    0.991 --    15 C    0.951
    46   1 H    0.964 --    15 C    0.921
    47   1 H    0.989 --     2 C    0.898
    48   1 H    0.994 --    16 C    0.956
    49   1 H    0.992 --    18 C    0.965
    50   1 H    0.994 --    18 C    0.968
    51   1 H    0.996 --    19 C    0.973
    52   1 H    0.996 --    19 C    0.971
    53   1 H    0.997 --    21 C    0.968
    54   1 H    0.995 --    22 C    0.963
    55   1 H    0.992 --    25 C    0.973
    56   1 H    0.992 --    25 C    0.973
    57   1 H    0.993 --    25 C    0.977
    58   1 H    0.993 --    28 C    0.977
    59   1 H    0.994 --    28 C    0.974
    60   1 H    0.993 --    28 C    0.973
    61   1 H    0.997 --    29 C    0.963
    62   1 H    0.986 --    30 C    0.968
    63   1 H    0.987 --    30 C    0.961
    64   1 H    0.994 --    30 C    0.978
    65   1 H    0.992 --    31 C    0.960
    66   1 H    0.990 --    32 C    0.970
    67   1 H    0.996 --    32 C    0.967
    68   1 H    0.993 --    32 C    0.977
    69   1 H    0.996 --    33 C    0.984
    70   1 H    0.998 --    33 C    0.981
    71   1 H    0.995 --    33 C    0.981
    72   1 H    0.971 --     1 N    0.943
 ---------------------------------------------------------------------------

molecular dipole:
                 x           y           z       tot (Debye)
 q only:        0.353      -0.326      -0.123
   full:        0.757      -0.641       0.007       2.521

           -------------------------------------------------
          | TOTAL ENERGY              -99.297344840295 Eh   |
          | GRADIENT NORM               0.001499996581 Eh/α |
          | HOMO-LUMO GAP               0.768475850225 eV   |
           -------------------------------------------------

 * finished run on 2024/04/06 at 11:15:41.024
