   * xtb version 6.6.1 (8d0f1dd) compiled by 'conda@1efc2f54142f' on 2023-08-01
          program call               : xtb struc.xyz --opt loose --input .xc1 --gfn2

   ID    Z sym.   atoms
    1    6 C      1, 3, 5-7, 10, 11, 14
    2    7 N      2, 4, 9, 13
    3    8 O      8, 12
    4    1 H      15-25
constraining bond 1 5 to    6.0000000 Å, actual value:    3.6144824 Å

          :  Hamiltonian                  GFN2-xTB          :
 * total energy  :   -32.0869416 Eh     change       -0.6650680E-10 Eh
 * total energy  :   -36.1079837 Eh     change       -0.4021042E+01 Eh
 * total energy  :   -38.9570302 Eh     change       -0.2849046E+01 Eh
 * total energy  :   -40.7315403 Eh     change       -0.1774510E+01 Eh
 * total energy  :   -41.4626298 Eh     change       -0.7310895E+00 Eh
 * total energy  :   -41.6181070 Eh     change       -0.1554772E+00 Eh
 * total energy  :   -41.6599384 Eh     change       -0.4183138E-01 Eh
 * total energy  :   -41.7367389 Eh     change       -0.7680056E-01 Eh
 * total energy  :   -41.8002441 Eh     change       -0.6350520E-01 Eh
 * total energy  :   -41.8319798 Eh     change       -0.3173569E-01 Eh
 * total energy  :   -42.1349802 Eh     change       -0.2088113E-03 Eh
 * total energy  :   -42.1351219 Eh     change       -0.1417224E-03 Eh
 * total energy  :   -42.1354249 Eh     change       -0.3029871E-03 Eh
 * total energy  :   -42.1357028 Eh     change       -0.2778980E-03 Eh
 * total energy  :   -42.1359446 Eh     change       -0.2418292E-03 Eh
 * total energy  :   -42.1360760 Eh     change       -0.1313414E-03 Eh
 * total energy  :   -42.1361314 Eh     change       -0.5546711E-04 Eh
 * total energy  :   -42.1361327 Eh     change       -0.1286816E-05 Eh
 * total energy  :   -42.1361802 Eh     change       -0.4752514E-04 Eh
   *** GEOMETRY OPTIMIZATION CONVERGED AFTER 54 ITERATIONS ***

 final structure:
================
25
 xtb: 6.6.1 (8d0f1dd)
C            3.90759610414802        3.07477646137931        0.06318848449753
N            2.20670136861579       -0.79438278920944       -0.03068478581416
C            2.21464200938426       -2.09305889218945       -0.02294825844412
N            0.94891704896391       -2.61819823919288       -0.01398096641441
C            0.09941948164450       -1.56065202724157       -0.01623834177526
C            0.90646385296812       -0.41466432795470       -0.02723472478126
C            0.31608420153091        0.90375408787509       -0.02526962102751
O            0.91455912976273        1.95660292185366       -0.03299095517459
N           -1.07866508027569        0.85069052229947       -0.00931381423773
C           -1.80288767420053        2.11115546882023        0.00399017333990
C           -1.88390681742953       -0.27585727375015       -0.00677702287958
O           -3.08358627658629       -0.19962707239732       -0.00089837390936
N           -1.24349972242005       -1.52634093984978       -0.00922268865224
C           -2.04967953816544       -2.72828605268980       -0.00642753301894
H            4.35684179660943        3.35550967714954        0.99532250859732
H            4.50235334170244        3.07719171815670       -0.83327974516001
H            2.86854979940156        2.79639208250886        0.02504685646385
H            3.10058295278946       -2.69556360859318       -0.02326100041835
H           -1.07780417612048        2.92127704865674        0.00068883448526
H           -2.44944243428201        2.17803784363423       -0.87147268544327
H           -2.43088883125550        2.16782440087297        0.89371774642571
H           -1.83990992212243       -3.32456849235931        0.88257008339269
H           -1.85449772034574       -3.31867660923488       -0.90271984000083
H           -3.09661384716540       -2.42675837721220        0.00304204119791
H            0.70910246695243       -3.59833898973945       -0.00367475334597

          :  Hamiltonian                  GFN2-xTB          :
         :: total energy             -42.136180244442 Eh    ::
         :: gradient norm              0.003107418462 Eh/a0 ::
         :: HOMO-LUMO gap              1.099540632902 eV    ::
         :: SCC energy               -42.661744151100 Eh    ::
         :: -> dispersion             -0.020844514260 Eh    ::
         :: repulsion energy           0.525492849642 Eh    ::

    * Orbital Energies and Occupations

         #    Occupation            Energy/Eh            Energy/eV
      -------------------------------------------------------------
         1        2.0000           -0.8856088             -24.0986
       ...           ...                  ...                  ...
        25        1.9996           -0.6542824             -17.8039
        26        1.9988           -0.6367211             -17.3261
        27        1.9981           -0.6287171             -17.1083
        28        1.9978           -0.6263921             -17.0450
        29        1.9973           -0.6233356             -16.9618
        30        1.9969           -0.6211070             -16.9012
        31        1.9930           -0.6082660             -16.5518
        32        1.9926           -0.6073643             -16.5272
        33        1.9738           -0.5872611             -15.9802
        34        1.9221           -0.5695590             -15.4985
        35        1.9142           -0.5679716             -15.4553
        36        1.8721           -0.5612883             -15.2734
        37        1.7107           -0.5469376             -14.8829 (HOMO)
        38        0.6309           -0.5065302             -13.7834 (LUMO)
        39        0.0021           -0.4101028             -11.1595
        40        0.0006           -0.3909115             -10.6372
        41        0.0001           -0.3613730              -9.8335
        42        0.0000           -0.2803344              -7.6283
        43                         -0.1987921              -5.4094
        44                         -0.1565152              -4.2590
        45                         -0.1312698              -3.5720
        46                         -0.0677442              -1.8434
        47                         -0.0456652              -1.2426
        48                         -0.0298945              -0.8135
       ...                                ...                  ...
        67                          0.5499467              14.9648
      -------------------------------------------------------------
                  HL-Gap            0.0404074 Eh            1.0995 eV

     #   Z          covCN         q      C6AA      α(0)
     1   6 C        2.778    -0.068    29.683     8.924
     2   7 N        1.904    -0.158    25.207     7.444
     3   6 C        3.155     0.105    25.396     8.240
     4   7 N        2.789    -0.080    22.787     7.090
     5   6 C        3.055     0.115    25.417     8.268
     6   6 C        3.204     0.024    26.894     8.448
     7   6 C        2.764     0.276    22.340     7.740
     8   8 O        0.858    -0.343    20.571     6.081
     9   7 N        2.745    -0.075    22.695     7.075
    10   6 C        3.710    -0.061    21.817     6.675
    11   6 C        2.732     0.319    21.581     7.606
    12   8 O        0.860    -0.344    20.601     6.085
    13   7 N        2.737    -0.042    22.060     6.976
    14   6 C        3.697    -0.070    22.021     6.712
    15   1 H        0.926     0.137     1.483     1.904
    16   1 H        0.926     0.137     1.483     1.905
    17   1 H        0.926     0.162     1.313     1.792
    18   1 H        0.926     0.110     1.697     2.037
    19   1 H        0.925     0.116     1.649     2.008
    20   1 H        0.924     0.108     1.714     2.047
    21   1 H        0.924     0.107     1.718     2.050
    22   1 H        0.924     0.091     1.866     2.136
    23   1 H        0.924     0.092     1.863     2.134
    24   1 H        0.925     0.128     1.553     1.949
    25   1 H        0.860     0.216     1.029     1.589

Wiberg/Mayer (AO) data.
largest (>0.10) Wiberg bond orders for each atom

     #   Z sym  total        # sym  WBO       # sym  WBO       # sym  WBO
 ---------------------------------------------------------------------------
     1   6 C    2.921 --    15 H    0.978    16 H    0.978    17 H    0.958
     2   7 N    3.001 --     3 C    1.559     6 C    1.270
     3   6 C    3.848 --     2 N    1.559     4 N    1.212    18 H    0.955
     4   7 N    3.577 --     5 C    1.224     3 C    1.212    25 H    0.924
     5   6 C    3.895 --     6 C    1.275     4 N    1.224    13 N    1.212
     6   6 C    3.834 --     5 C    1.275     2 N    1.270     7 C    1.070
     7   6 C    3.945 --     8 O    1.671     9 N    1.101     6 C    1.070
     8   8 O    1.971 --     7 C    1.671     9 N    0.126
     9   7 N    3.514 --    11 C    1.120     7 C    1.101    10 C    0.976
                             8 O    0.126    12 O    0.123
    10   6 C    3.886 --     9 N    0.976    19 H    0.963    21 H    0.952
                            20 H    0.952
    11   6 C    3.954 --    12 O    1.687     9 N    1.120    13 N    1.054
    12   8 O    1.995 --    11 C    1.687     9 N    0.123    13 N    0.108
    13   7 N    3.496 --     5 C    1.212    11 C    1.054    14 C    0.977
                            12 O    0.108
    14   6 C    3.910 --    13 N    0.977    24 H    0.962    22 H    0.962
                            23 H    0.962
    15   1 H    0.980 --     1 C    0.978
    16   1 H    0.980 --     1 C    0.978
    17   1 H    0.971 --     1 C    0.958
    18   1 H    0.986 --     3 C    0.955
    19   1 H    0.982 --    10 C    0.963
    20   1 H    0.969 --    10 C    0.952
    21   1 H    0.970 --    10 C    0.952
    22   1 H    0.979 --    14 C    0.962
    23   1 H    0.979 --    14 C    0.962
    24   1 H    0.982 --    14 C    0.962
    25   1 H    0.952 --     4 N    0.924
 ---------------------------------------------------------------------------

molecular dipole:
                 x           y           z       tot (Debye)
 q only:        1.864      -0.969       0.045
   full:        1.737      -1.654       0.048       6.097

           -------------------------------------------------
          | TOTAL ENERGY              -42.136180244442 Eh   |
          | GRADIENT NORM               0.003107418462 Eh/α |
          | HOMO-LUMO GAP               1.099540632902 eV   |
           -------------------------------------------------

 * finished run on 2024/06/05 at 19:57:50.364
