   * xtb version 6.6.1 (8d0f1dd) compiled by 'conda@1efc2f54142f' on 2023-08-01
          program call               : xtb xtbopt.xyz --opt crude --input .xc2 --gfn2

   ID    Z sym.   atoms
    1    6 C      1, 3, 5-7, 10, 11, 14
    2    7 N      2, 4, 9, 13
    3    8 O      8, 12
    4    1 H      15-25
########################################################################
[WARNING] Please study the warnings concerning your input carefully
-1- readin_getIntValue: could not parse ''
########################################################################

          :  Hamiltonian                  GFN2-xTB          :
 * total energy  :   -37.6563056 Eh     change       -0.2373213E-11 Eh
 * total energy  :   -42.0668531 Eh     change       -0.4410548E+01 Eh
 * total energy  :   -42.1234492 Eh     change       -0.5659611E-01 Eh
 * total energy  :   -42.1310795 Eh     change       -0.7630284E-02 Eh
 * total energy  :   -42.1331008 Eh     change       -0.2021343E-02 Eh
 * total energy  :   -42.1342126 Eh     change       -0.1111768E-02 Eh
 * total energy  :   -42.1359024 Eh     change       -0.1689755E-02 Eh
 * total energy  :   -42.1377858 Eh     change       -0.1883434E-02 Eh
 * total energy  :   -42.1393915 Eh     change       -0.1605688E-02 Eh
 * total energy  :   -42.1399086 Eh     change       -0.5171621E-03 Eh
 * total energy  :   -42.1401725 Eh     change       -0.2638943E-03 Eh
   *** GEOMETRY OPTIMIZATION CONVERGED AFTER 11 ITERATIONS ***

 final structure:
================
25
 xtb: 6.6.1 (8d0f1dd)
C            4.02628001636816        0.74962077918353        0.18414929626450
N            2.71267633468331        0.21690361095240        0.14809540506689
C            2.46583141723854       -1.01472473563252        0.03407778670064
N            1.19302924809649       -1.50900607449720       -0.01327199346658
C            0.05291876470609       -0.76012784474115        0.05328718748097
C           -0.11467134380059        0.58428453668828        0.25398804151542
C           -1.85687995114832        3.00073162789863       -0.66554323503525
O           -1.40226145546121        3.59955621718144       -1.53811915237164
N           -1.47095658209322        0.82865748166130        0.23790605897176
C           -2.18934940610177        2.08031049574749        0.36873371630453
C           -2.15841706858999       -0.35691283056327        0.01014869157352
O           -3.35597656547514       -0.46509500157208       -0.07311940926071
N           -1.19086671351639       -1.33344610239470       -0.08593714230883
C           -1.50329059417400       -2.72284240586615       -0.29978492672327
H            4.13695939843273        1.33560296243418        1.09757748912534
H            4.80811041739809       -0.01718983610844        0.14646370998885
H            4.14647041417416        1.42905228225917       -0.66157074823319
H            3.23589228855429       -1.79035322858125       -0.03983853142524
H            0.62863438018774        1.34323000303920        0.39149440636614
H           -3.26046142459633        1.80015951507864        0.30788884394713
H           -2.01489693081409        2.54216903740293        1.35369525007837
H           -1.16132889572098       -3.33190211258031        0.53873701371487
H           -1.06060384202183       -3.08367259824247       -1.22958432401721
H           -2.58754999754199       -2.79911458658031       -0.37143098067744
H            1.08113960531438       -2.50765265056726       -0.11687083568942

          :  Hamiltonian                  GFN2-xTB          :
         :: total energy             -42.140172541610 Eh    ::
         :: gradient norm              0.007301545629 Eh/a0 ::
         :: HOMO-LUMO gap              1.328225576287 eV    ::
         :: SCC energy               -42.686218912315 Eh    ::
         :: -> dispersion             -0.020357887348 Eh    ::
         :: repulsion energy           0.545974024165 Eh    ::

    * Orbital Energies and Occupations

         #    Occupation            Energy/Eh            Energy/eV
      -------------------------------------------------------------
         1        2.0000           -0.9442959             -25.6956
       ...           ...                  ...                  ...
        25        2.0000           -0.6563676             -17.8607
        26        2.0000           -0.6536532             -17.7868
        27        1.9999           -0.6489115             -17.6578
        28        1.9999           -0.6391971             -17.3934
        29        1.9999           -0.6379660             -17.3599
        30        1.9996           -0.6165176             -16.7763
        31        1.9996           -0.6158502             -16.7581
        32        1.9991           -0.6048932             -16.4600
        33        1.9973           -0.5867196             -15.9655
        34        1.9919           -0.5695919             -15.4994
        35        1.9701           -0.5486459             -14.9294
        36        1.8383           -0.5208334             -14.1726
        37        1.6684           -0.5079334             -13.8216 (HOMO)
        38        0.3748           -0.4591220             -12.4933 (LUMO)
        39        0.1584           -0.4435038             -12.0684
        40        0.0026           -0.3772538             -10.2656
        41        0.0002           -0.3365975              -9.1593
        42        0.0001           -0.3156227              -8.5885
        43                         -0.1819741              -4.9518
        44                         -0.1618236              -4.4034
        45                         -0.1069687              -2.9108
        46                         -0.0759120              -2.0657
        47                         -0.0609256              -1.6579
        48                         -0.0434400              -1.1821
       ...                                ...                  ...
        67                          0.7836931              21.3254
      -------------------------------------------------------------
                  HL-Gap            0.0488114 Eh            1.3282 eV

     #   Z          covCN         q      C6AA      α(0)
     1   6 C        3.709    -0.042    21.465     6.622
     2   7 N        1.829    -0.192    25.971     7.552
     3   6 C        2.783     0.119    25.373     8.251
     4   7 N        2.694    -0.101    23.225     7.157
     5   6 C        2.976     0.112    25.521     8.287
     6   6 C        2.958    -0.038    28.954     8.826
     7   6 C        1.843     0.250    25.375     8.138
     8   8 O        0.856    -0.055    15.860     5.339
     9   7 N        2.845    -0.054    22.277     7.010
    10   6 C        3.740    -0.015    20.926     6.527
    11   6 C        2.859     0.302    21.888     7.668
    12   8 O        0.857    -0.399    21.652     6.239
    13   7 N        2.829    -0.059    22.384     7.027
    14   6 C        3.689    -0.066    21.958     6.706
    15   1 H        0.924     0.088     1.895     2.152
    16   1 H        0.924     0.059     2.214     2.327
    17   1 H        0.924     0.089     1.892     2.151
    18   1 H        0.924     0.058     2.225     2.333
    19   1 H        0.926     0.108     1.710     2.045
    20   1 H        0.922     0.187     1.166     1.689
    21   1 H        0.923     0.157     1.345     1.814
    22   1 H        0.924     0.081     1.971     2.196
    23   1 H        0.924     0.081     1.973     2.197
    24   1 H        0.925     0.116     1.648     2.008
    25   1 H        0.860     0.214     1.036     1.594

Wiberg/Mayer (AO) data.
largest (>0.10) Wiberg bond orders for each atom

     #   Z sym  total        # sym  WBO       # sym  WBO       # sym  WBO
 ---------------------------------------------------------------------------
     1   6 C    3.940 --     2 N    1.049    16 H    0.955    15 H    0.950
                            17 H    0.948
     2   7 N    2.977 --     3 C    1.747     1 C    1.049
     3   6 C    3.939 --     2 N    1.747     4 N    1.165    18 H    0.923
     4   7 N    3.451 --     3 C    1.165     5 C    1.150    25 H    0.922
     5   6 C    3.894 --     6 C    1.462     4 N    1.150    13 N    1.145
     6   6 C    3.770 --     5 C    1.462     9 N    1.147    19 H    0.956
     7   6 C    3.373 --     8 O    2.171    10 C    1.118
     8   8 O    2.308 --     7 C    2.171
     9   7 N    3.461 --     6 C    1.147    11 C    1.079    10 C    0.964
                            12 O    0.126
    10   6 C    3.945 --     7 C    1.118     9 N    0.964    21 H    0.894
                            20 H    0.878
    11   6 C    3.939 --    12 O    1.635    13 N    1.123     9 N    1.079
    12   8 O    1.958 --    11 C    1.635    13 N    0.133     9 N    0.126
    13   7 N    3.535 --     5 C    1.145    11 C    1.123    14 C    0.988
                            12 O    0.133
    14   6 C    3.934 --    13 N    0.988    23 H    0.969    22 H    0.969
                            24 H    0.968
    15   1 H    0.979 --     1 C    0.950
    16   1 H    0.967 --     1 C    0.955
    17   1 H    0.979 --     1 C    0.948
    18   1 H    0.970 --     3 C    0.923
    19   1 H    0.987 --     6 C    0.956
    20   1 H    0.948 --    10 C    0.878
    21   1 H    0.956 --    10 C    0.894
    22   1 H    0.989 --    14 C    0.969
    23   1 H    0.989 --    14 C    0.969
    24   1 H    0.986 --    14 C    0.968
    25   1 H    0.954 --     4 N    0.922
 ---------------------------------------------------------------------------

molecular dipole:
                 x           y           z       tot (Debye)
 q only:        0.327       0.580       0.294
   full:        0.695       0.229       0.332       2.043

           -------------------------------------------------
          | TOTAL ENERGY              -42.140172541610 Eh   |
          | GRADIENT NORM               0.007301545629 Eh/α |
          | HOMO-LUMO GAP               1.328225576287 eV   |
           -------------------------------------------------

 * finished run on 2024/06/05 at 19:58:05.291
