   * xtb version 6.6.1 (8d0f1dd) compiled by 'conda@1efc2f54142f' on 2023-08-01
          program call               : xtb xtbopt.xyz --opt crude --input .xc2 --gfn2

   ID    Z sym.   atoms
    1    6 C      1, 3, 5-7, 10, 11, 14
    2    7 N      2, 4, 9, 13
    3    8 O      8, 12
    4    1 H      15-25

          :  Hamiltonian                  GFN2-xTB          :
 * total energy  :   -41.9275626 Eh     change       -0.2131628E-13 Eh
   *** GEOMETRY OPTIMIZATION CONVERGED AFTER 1 ITERATIONS ***

 final structure:
================
25
 xtb: 6.6.1 (8d0f1dd)
C            3.70597352177741        2.05746682708972       -0.11595370229501
N            3.58674523107448        0.70037040939599       -0.00054531834125
C            3.40335238278860       -0.43726423034063        0.09334280628039
N            1.72907186509198       -2.87331819734284        0.36431446576926
C            0.99542692892825       -1.89028920397075        0.26262124122821
C            0.43753391817574       -0.77773540932995        0.11614972222683
C            0.07231502496805        0.52530875912046        0.00014522405698
O            0.75738583129872        1.52014460359450       -0.15407305730462
N           -1.41453382842146        0.75964970348685        0.08539540621715
C           -1.89879635201948        2.12217896032266       -0.03167662529530
C           -2.22063247744186       -0.20526786761616        0.30216414669680
O           -3.48769240752949       -0.43827086515767        0.53173349956075
N           -2.39818422920911       -1.50220463970982        0.60403310232040
C           -2.49402899031001       -2.55550857707448       -0.36519770616107
H            4.18373015511178        2.45987892373236        0.78028365613652
H            4.30757148222784        2.29922233869875       -0.99413772536723
H            2.70066629145270        2.47946967816752       -0.22361358077781
H            3.29797293272213       -1.49057305388279        0.18851498281840
H           -1.07190087466669        2.78167545839289        0.23047828353654
H           -2.19693862697296        2.32525405527370       -1.06118303187746
H           -2.74512789589317        2.28170445196574        0.63298639864273
H           -1.51507281566325       -3.03172473670616       -0.38832526378582
H           -2.75984019225820       -2.21068521799938       -1.36659759994616
H           -3.23211787250693       -3.26970738632307       -0.00461283492054
H            1.41755251137146       -3.81153624218615        0.54492512848012

          :  Hamiltonian                  GFN2-xTB          :
         :: total energy             -41.927562590008 Eh    ::
         :: gradient norm              0.004389822584 Eh/a0 ::
         :: HOMO-LUMO gap              2.095863438356 eV    ::
         :: SCC energy               -42.559973004408 Eh    ::
         :: -> dispersion             -0.019620828335 Eh    ::
         :: repulsion energy           0.632315486572 Eh    ::

    * Orbital Energies and Occupations

         #    Occupation            Energy/Eh            Energy/eV
      -------------------------------------------------------------
         1        2.0000           -0.9324730             -25.3739
       ...           ...                  ...                  ...
        25        2.0000           -0.6418826             -17.4665
        26        2.0000           -0.6329067             -17.2223
        27        1.9999           -0.6253493             -17.0166
        28        1.9999           -0.6204804             -16.8841
        29        1.9999           -0.6171308             -16.7930
        30        1.9999           -0.6136464             -16.6982
        31        1.9998           -0.6028987             -16.4057
        32        1.9996           -0.5918713             -16.1056
        33        1.9995           -0.5894187             -16.0389
        34        1.9979           -0.5671847             -15.4339
        35        1.9951           -0.5538650             -15.0714
        36        1.8479           -0.4981519             -13.5554
        37        1.8279           -0.4960163             -13.4973 (HOMO)
        38        0.1515           -0.4189948             -11.4014 (LUMO)
        39        0.0950           -0.4111244             -11.1873
        40        0.0751           -0.4072339             -11.0814
        41        0.0082           -0.3716815             -10.1140
        42        0.0030           -0.3556020              -9.6764
        43        0.0001           -0.2986353              -8.1263
        44        0.0000           -0.2055841              -5.5942
        45                         -0.1861789              -5.0662
        46                         -0.1776288              -4.8335
        47                         -0.1581428              -4.3033
        48                         -0.0594534              -1.6178
       ...                                ...                  ...
        67                          1.2386538              33.7055
      -------------------------------------------------------------
                  HL-Gap            0.0770216 Eh            2.0959 eV

     #   Z          covCN         q      C6AA      α(0)
     1   6 C        3.685    -0.086    22.351     6.769
     2   7 N        1.820     0.149    19.327     6.514
     3   6 C        1.840     0.039    30.156     8.871
     4   7 N        1.773    -0.275    27.943     7.828
     5   6 C        1.892     0.094    28.782     8.665
     6   6 C        1.971    -0.167    35.833     9.667
     7   6 C        2.754     0.271    22.416     7.753
     8   8 O        0.858    -0.429    22.276     6.328
     9   7 N        2.727    -0.038    21.977     6.963
    10   6 C        3.707    -0.059    21.788     6.672
    11   6 C        2.718     0.309    21.748     7.634
    12   8 O        1.723    -0.192    17.200     5.600
    13   7 N        2.686    -0.020    21.639     6.909
    14   6 C        3.689    -0.056    21.780     6.679
    15   1 H        0.924     0.139     1.470     1.896
    16   1 H        0.924     0.139     1.468     1.895
    17   1 H        0.924     0.171     1.258     1.754
    18   1 H        0.927     0.226     0.976     1.545
    19   1 H        0.925     0.121     1.607     1.983
    20   1 H        0.924     0.096     1.821     2.110
    21   1 H        0.925     0.091     1.866     2.136
    22   1 H        0.925     0.104     1.750     2.069
    23   1 H        0.924     0.075     2.031     2.229
    24   1 H        0.925     0.113     1.669     2.020
    25   1 H        0.860     0.184     1.190     1.709

Wiberg/Mayer (AO) data.
largest (>0.10) Wiberg bond orders for each atom

     #   Z sym  total        # sym  WBO       # sym  WBO       # sym  WBO
 ---------------------------------------------------------------------------
     1   6 C    3.917 --     2 N    1.070    16 H    0.925    15 H    0.925
                            17 H    0.903
     2   7 N    3.650 --     3 C    2.544     1 C    1.070
     3   6 C    3.702 --     2 N    2.544    18 H    0.903
     4   7 N    3.059 --     5 C    1.812    25 H    0.913     6 C    0.155
     5   6 C    3.929 --     6 C    1.990     4 N    1.812
     6   6 C    3.687 --     5 C    1.990     7 C    1.327     4 N    0.155
                             8 O    0.106
     7   6 C    3.894 --     8 O    1.611     6 C    1.327     9 N    0.820
     8   8 O    1.966 --     7 C    1.611     6 C    0.106
     9   7 N    3.578 --    11 C    1.503    10 C    0.962     7 C    0.820
    10   6 C    3.920 --    21 H    0.972     9 N    0.962    20 H    0.962
                            19 H    0.962
    11   6 C    3.803 --     9 N    1.503    13 N    1.098    12 O    1.094
    12   8 O    2.138 --    11 C    1.094    13 N    0.843
    13   7 N    3.073 --    11 C    1.098    14 C    1.000    12 O    0.843
    14   6 C    3.934 --    13 N    1.000    23 H    0.973    24 H    0.966
                            22 H    0.944
    15   1 H    0.974 --     1 C    0.925
    16   1 H    0.974 --     1 C    0.925
    17   1 H    0.965 --     1 C    0.903
    18   1 H    0.949 --     3 C    0.903
    19   1 H    0.985 --    10 C    0.962
    20   1 H    0.988 --    10 C    0.962
    21   1 H    0.989 --    10 C    0.972
    22   1 H    0.989 --    14 C    0.944
    23   1 H    0.993 --    14 C    0.973
    24   1 H    0.986 --    14 C    0.966
    25   1 H    0.955 --     4 N    0.913
 ---------------------------------------------------------------------------

molecular dipole:
                 x           y           z       tot (Debye)
 q only:        2.364       0.274      -0.192
   full:        1.802      -0.005      -0.329       4.656

           -------------------------------------------------
          | TOTAL ENERGY              -41.927562590008 Eh   |
          | GRADIENT NORM               0.004389822584 Eh/α |
          | HOMO-LUMO GAP               2.095863438356 eV   |
           -------------------------------------------------

 * finished run on 2024/06/05 at 19:57:53.286
