   * xtb version 6.6.1 (8d0f1dd) compiled by 'conda@1efc2f54142f' on 2023-08-01
          program call               : xtb struc.xyz --opt loose --input .xc1 --gfn2

   ID    Z sym.   atoms
    1    6 C      1, 3, 5-7, 10, 11, 14
    2    7 N      2, 4, 9, 13
    3    8 O      8, 12
    4    1 H      15-25
constraining bond 5 12 to    5.7600000 Å, actual value:    3.4583605 Å

          :  Hamiltonian                  GFN2-xTB          :
 * total energy  :   -32.7889229 Eh     change       -0.6650680E-10 Eh
 * total energy  :   -36.5313018 Eh     change       -0.3742379E+01 Eh
 * total energy  :   -39.1565183 Eh     change       -0.2625217E+01 Eh
 * total energy  :   -40.7160842 Eh     change       -0.1559566E+01 Eh
 * total energy  :   -41.3917313 Eh     change       -0.6756472E+00 Eh
 * total energy  :   -41.5562320 Eh     change       -0.1645007E+00 Eh
 * total energy  :   -41.6025933 Eh     change       -0.4636126E-01 Eh
 * total energy  :   -41.6522700 Eh     change       -0.4967677E-01 Eh
 * total energy  :   -41.6888881 Eh     change       -0.3661808E-01 Eh
 * total energy  :   -41.7453968 Eh     change       -0.5650869E-01 Eh
 * total energy  :   -42.1151322 Eh     change       -0.9308260E-03 Eh
 * total energy  :   -42.1160499 Eh     change       -0.9177094E-03 Eh
 * total energy  :   -42.1166754 Eh     change       -0.6254336E-03 Eh
 * total energy  :   -42.1173421 Eh     change       -0.6667063E-03 Eh
 * total energy  :   -42.1178110 Eh     change       -0.4689593E-03 Eh
 * total energy  :   -42.1179879 Eh     change       -0.1768888E-03 Eh
 * total energy  :   -42.1180237 Eh     change       -0.3574443E-04 Eh
 * total energy  :   -42.1180839 Eh     change       -0.6028576E-04 Eh
 * total energy  :   -42.1180954 Eh     change       -0.1150297E-04 Eh
   *** GEOMETRY OPTIMIZATION CONVERGED AFTER 67 ITERATIONS ***

 final structure:
================
25
 xtb: 6.6.1 (8d0f1dd)
C            3.14930831165298        1.22891945173221       -0.09081069523800
N            2.31678152364157        0.05540017174854       -0.04590335851197
C            2.75686428456652       -1.19906099645897        0.06131888297019
N            1.71157509760098       -2.06603625913448        0.09665203962620
C            0.58529110760595       -1.33071963100454        0.00887464376480
C            0.94066424867333        0.02491641128009       -0.08613634807281
C            0.00320669007259        1.17561625066665       -0.17271882111424
O            0.37002260616271        2.32590942683549       -0.21677632712922
N           -1.37076903785197        0.80518460934895       -0.15957593950391
C           -2.45232136479673        2.00891466396586        0.21348055479835
C           -1.70382569363352       -0.49135789506961       -0.07202660464013
O           -3.39785721135389        2.74766961306907       -0.55780930576694
N           -0.79603882400296       -1.51188482663546       -0.00932958079054
C           -1.32680071158149       -2.86317781363166        0.05818430790618
H            3.62092758034990        1.39278163020625        0.87926616696106
H            3.92694519445943        1.11079711905342       -0.84445523221513
H            2.52917665920481        2.09175047290351       -0.33041656240778
H            3.78627328253130       -1.49168091369099        0.11101463855471
H           -1.74404141720322        2.76789976309932        0.54937717221509
H           -4.15889565086875        2.20155124607960       -0.79433441900996
H           -2.96219190346851        1.51441702325037        1.04224935437320
H           -0.98389209082897       -3.36149121967323        0.96606740191213
H           -1.01304920298959       -3.43956046112559       -0.81347947507931
H           -2.41198167548938       -2.80745828223873        0.07227282907434
H            1.78505971164765       -3.07106101298207        0.16618629522462

          :  Hamiltonian                  GFN2-xTB          :
         :: total energy             -42.118095443134 Eh    ::
         :: gradient norm              0.001400484902 Eh/a0 ::
         :: HOMO-LUMO gap              2.062939140054 eV    ::
         :: SCC energy               -42.596028447782 Eh    ::
         :: -> dispersion             -0.021662727123 Eh    ::
         :: repulsion energy           0.476135106546 Eh    ::

    * Orbital Energies and Occupations

         #    Occupation            Energy/Eh            Energy/eV
      -------------------------------------------------------------
         1        2.0000           -0.9040720             -24.6011
       ...           ...                  ...                  ...
        25        2.0000           -0.6661656             -18.1273
        26        2.0000           -0.6511754             -17.7194
        27        2.0000           -0.6464887             -17.5919
        28        1.9999           -0.6269309             -17.0597
        29        1.9999           -0.6199658             -16.8701
        30        1.9998           -0.6175319             -16.8039
        31        1.9998           -0.6123119             -16.6619
        32        1.9995           -0.6015612             -16.3693
        33        1.9989           -0.5871188             -15.9763
        34        1.9957           -0.5660036             -15.4017
        35        1.9928           -0.5580774             -15.1861
        36        1.9880           -0.5498507             -14.9622
        37        1.8218           -0.5057598             -13.7624 (HOMO)
        38        0.1570           -0.4299482             -11.6995 (LUMO)
        39        0.0375           -0.4062905             -11.0557
        40        0.0094           -0.3841569             -10.4534
        41        0.0001           -0.3180531              -8.6547
        42        0.0000           -0.2901780              -7.8961
        43        0.0000           -0.2055258              -5.5926
        44                         -0.1766360              -4.8065
        45                         -0.1382432              -3.7618
        46                         -0.0925788              -2.5192
        47                         -0.0670821              -1.8254
        48                         -0.0589755              -1.6048
       ...                                ...                  ...
        67                          0.5093023              13.8588
      -------------------------------------------------------------
                  HL-Gap            0.0758116 Eh            2.0629 eV

     #   Z          covCN         q      C6AA      α(0)
     1   6 C        3.691    -0.092    22.456     6.781
     2   7 N        2.828     0.074    19.960     6.635
     3   6 C        3.072     0.045    26.911     8.506
     4   7 N        2.769    -0.050    22.215     7.000
     5   6 C        3.053     0.101    25.718     8.317
     6   6 C        3.094    -0.011    28.185     8.701
     7   6 C        2.763     0.268    22.479     7.764
     8   8 O        0.857    -0.367    21.039     6.150
     9   7 N        2.681    -0.070    22.601     7.061
    10   6 C        3.554     0.116    19.557     6.458
    11   6 C        1.865    -0.068    32.982     9.276
    12   8 O        1.653    -0.362    20.130     6.057
    13   7 N        2.748     0.013    21.028     6.811
    14   6 C        3.705    -0.077    22.122     6.724
    15   1 H        0.924     0.105     1.744     2.065
    16   1 H        0.925     0.101     1.772     2.081
    17   1 H        0.925     0.137     1.483     1.905
    18   1 H        0.926     0.119     1.623     1.992
    19   1 H        0.924     0.124     1.580     1.965
    20   1 H        0.805     0.319     0.667     1.283
    21   1 H        0.924     0.082     1.961     2.190
    22   1 H        0.924     0.077     2.014     2.219
    23   1 H        0.924     0.079     1.993     2.208
    24   1 H        0.925     0.113     1.673     2.022
    25   1 H        0.860     0.227     0.980     1.551

Wiberg/Mayer (AO) data.
largest (>0.10) Wiberg bond orders for each atom

     #   Z sym  total        # sym  WBO       # sym  WBO       # sym  WBO
 ---------------------------------------------------------------------------
     1   6 C    3.917 --     2 N    0.986    16 H    0.964    17 H    0.958
                            15 H    0.957
     2   7 N    3.658 --     3 C    1.374     6 C    1.171     1 C    0.986
     3   6 C    3.817 --     2 N    1.374     4 N    1.254    18 H    0.954
     4   7 N    3.581 --     3 C    1.254     5 C    1.216    25 H    0.920
     5   6 C    3.928 --     6 C    1.364     4 N    1.216    13 N    1.139
     6   6 C    3.909 --     5 C    1.364     2 N    1.171     7 C    1.055
     7   6 C    3.915 --     8 O    1.707     9 N    1.065     6 C    1.055
     8   8 O    2.032 --     7 C    1.707     9 N    0.127
     9   7 N    3.580 --    11 C    1.395     7 C    1.065    10 C    0.827
                             8 O    0.127
    10   6 C    3.903 --    12 O    1.099    21 H    0.966    19 H    0.957
                             9 N    0.827
    11   6 C    2.872 --     9 N    1.395    13 N    1.286
    12   8 O    2.082 --    10 C    1.099    20 H    0.886
    13   7 N    3.606 --    11 C    1.286     5 C    1.139    14 C    0.985
    14   6 C    3.939 --    13 N    0.985    24 H    0.973    22 H    0.972
                            23 H    0.972
    15   1 H    0.985 --     1 C    0.957
    16   1 H    0.986 --     1 C    0.964
    17   1 H    0.981 --     1 C    0.958
    18   1 H    0.985 --     3 C    0.954
    19   1 H    0.984 --    10 C    0.957
    20   1 H    0.898 --    12 O    0.886
    21   1 H    0.990 --    10 C    0.966
    22   1 H    0.991 --    14 C    0.972
    23   1 H    0.991 --    14 C    0.972
    24   1 H    0.987 --    14 C    0.973
    25   1 H    0.948 --     4 N    0.920
 ---------------------------------------------------------------------------

molecular dipole:
                 x           y           z       tot (Debye)
 q only:        1.597      -2.498       0.390
   full:        2.108      -3.122       0.371       9.621

           -------------------------------------------------
          | TOTAL ENERGY              -42.118095443134 Eh   |
          | GRADIENT NORM               0.001400484902 Eh/α |
          | HOMO-LUMO GAP               2.062939140054 eV   |
           -------------------------------------------------

 * finished run on 2024/06/05 at 19:57:55.829
