   * xtb version 6.6.1 (8d0f1dd) compiled by 'conda@1efc2f54142f' on 2023-08-01
          program call               : xtb xtbopt.xyz --opt crude --input .xc2 --gfn2

   ID    Z sym.   atoms
    1    6 C      1, 3, 5-7, 10, 11, 14
    2    7 N      2, 4, 9, 13
    3    8 O      8, 12
    4    1 H      15-25
########################################################################
[WARNING] Please study the warnings concerning your input carefully
-1- readin_getIntValue: could not parse ''
########################################################################

          :  Hamiltonian                  GFN2-xTB          :
 * total energy  :   -42.0444161 Eh     change       -0.2842171E-13 Eh
   *** GEOMETRY OPTIMIZATION CONVERGED AFTER 1 ITERATIONS ***

 final structure:
================
25
 xtb: 6.6.1 (8d0f1dd)
C            2.93003001684518        1.16405503359241       -0.14967465155171
N            2.04549680020092        0.03475592975792       -0.13007869352177
C            2.36854760767314       -1.23313572914675       -0.37034014754822
N            1.28065933153266       -2.00113338098332       -0.28627133008949
C            0.18295034304146       -1.23065816651613        0.05698088006453
C            0.66685477955958        0.11391751577109        0.14145462348650
C            0.06684534494699        1.29536817158711        0.41162014857786
O            0.45707390479231        2.56600982171468        0.64513228869876
N           -0.88810654770213        2.07576969303487        0.99335565892377
C           -1.97238112165400        2.64824261779093        0.24208702785833
C           -1.85740149702742       -1.13425468942165       -1.03598011010669
O           -1.92449525620298       -0.12827425458059       -1.64806058266534
N           -1.12374761210791       -1.69900559965219       -0.10044254066880
C           -1.51597211445984       -2.96642948754436        0.50551543220503
H            2.90894462352559        1.67740840841765        0.81358303087102
H            3.94292343455775        0.82806689748197       -0.35956672592517
H            2.61755332698002        1.87608461904483       -0.91607329094585
H            3.35927052990285       -1.58611299048984       -0.57782002606319
H           -2.25753600399184        3.57762187962512        0.73049716695000
H           -1.72251626195619        2.83932863540787       -0.80406315571821
H           -2.80118796150774        1.94453468334760        0.29464376122130
H           -1.06834725836665       -3.03539385240859        1.49498162040157
H           -1.20197120758831       -3.81809251022681       -0.10114348403413
H           -2.59874014786474       -2.98960714723476        0.60179013671158
H            1.26568446097065       -3.00082755676862       -0.42095541923179

          :  Hamiltonian                  GFN2-xTB          :
         :: total energy             -42.044416067346 Eh    ::
         :: gradient norm              0.007504290564 Eh/a0 ::
         :: HOMO-LUMO gap              0.942755837664 eV    ::
         :: SCC energy               -42.556059307420 Eh    ::
         :: -> dispersion             -0.021735023605 Eh    ::
         :: repulsion energy           0.511439805496 Eh    ::

    * Orbital Energies and Occupations

         #    Occupation            Energy/Eh            Energy/eV
      -------------------------------------------------------------
         1        2.0000           -0.8946000             -24.3433
       ...           ...                  ...                  ...
        25        2.0000           -0.6770761             -18.4242
        26        2.0000           -0.6666538             -18.1406
        27        2.0000           -0.6614065             -17.9978
        28        2.0000           -0.6498714             -17.6839
        29        2.0000           -0.6336759             -17.2432
        30        1.9999           -0.6292802             -17.1236
        31        1.9998           -0.6129195             -16.6784
        32        1.9997           -0.6047181             -16.4552
        33        1.9996           -0.5988158             -16.2946
        34        1.9993           -0.5914635             -16.0945
        35        1.9979           -0.5732221             -15.5982
        36        1.9793           -0.5372000             -14.6180
        37        1.4880           -0.4818690             -13.1123 (HOMO)
        38        0.4916           -0.4472234             -12.1696 (LUMO)
        39        0.0391           -0.4029774             -10.9656
        40        0.0054           -0.3713442             -10.1048
        41        0.0003           -0.3259384              -8.8692
        42        0.0001           -0.3063820              -8.3371
        43        0.0000           -0.2107023              -5.7335
        44                         -0.1894856              -5.1562
        45                         -0.1623091              -4.4167
        46                         -0.1139340              -3.1003
        47                         -0.0702169              -1.9107
        48                         -0.0498126              -1.3555
       ...                                ...                  ...
        67                          0.6405772              17.4310
      -------------------------------------------------------------
                  HL-Gap            0.0346456 Eh            0.9428 eV

     #   Z          covCN         q      C6AA      α(0)
     1   6 C        3.691    -0.082    22.257     6.751
     2   7 N        2.826     0.045    20.454     6.717
     3   6 C        2.974     0.058    26.689     8.474
     4   7 N        2.782    -0.058    22.367     7.024
     5   6 C        3.004     0.051    26.841     8.499
     6   6 C        3.030     0.009    27.792     8.647
     7   6 C        2.759     0.177    24.188     8.054
     8   8 O        1.748    -0.229    17.787     5.695
     9   7 N        2.712    -0.013    21.502     6.887
    10   6 C        3.690    -0.055    21.759     6.676
    11   6 C        1.824     0.216    26.079     8.251
    12   8 O        0.856    -0.222    18.433     5.756
    13   7 N        2.729    -0.011    21.464     6.881
    14   6 C        3.700    -0.077    22.136     6.728
    15   1 H        0.924     0.111     1.686     2.030
    16   1 H        0.925     0.097     1.815     2.107
    17   1 H        0.924     0.107     1.725     2.054
    18   1 H        0.926     0.115     1.654     2.011
    19   1 H        0.925     0.099     1.798     2.097
    20   1 H        0.924     0.074     2.046     2.237
    21   1 H        0.925     0.087     1.910     2.161
    22   1 H        0.925     0.095     1.830     2.115
    23   1 H        0.924     0.082     1.963     2.191
    24   1 H        0.925     0.104     1.747     2.067
    25   1 H        0.860     0.220     1.008     1.573

Wiberg/Mayer (AO) data.
largest (>0.10) Wiberg bond orders for each atom

     #   Z sym  total        # sym  WBO       # sym  WBO       # sym  WBO
 ---------------------------------------------------------------------------
     1   6 C    3.931 --     2 N    0.995    16 H    0.974    17 H    0.959
                            15 H    0.959
     2   7 N    3.585 --     3 C    1.351     6 C    1.066     1 C    0.995
     3   6 C    3.823 --     2 N    1.351     4 N    1.321    18 H    0.952
     4   7 N    3.572 --     3 C    1.321     5 C    1.141    25 H    0.923
     5   6 C    3.662 --     6 C    1.197     4 N    1.141    13 N    1.028
     6   6 C    3.914 --     7 C    1.430     5 C    1.197     2 N    1.066
     7   6 C    3.641 --     6 C    1.430     9 N    1.069     8 O    1.005
     8   8 O    2.025 --     7 C    1.005     9 N    0.884
     9   7 N    3.041 --     7 C    1.069    10 C    1.001     8 O    0.884
    10   6 C    3.939 --     9 N    1.001    20 H    0.970    19 H    0.969
                            21 H    0.958
    11   6 C    3.408 --    12 O    1.920    13 N    1.308
    12   8 O    2.171 --    11 C    1.920    13 N    0.156
    13   7 N    3.519 --    11 C    1.308     5 C    1.028    14 C    0.964
                            12 O    0.156
    14   6 C    3.926 --    22 H    0.976    24 H    0.974    23 H    0.972
                            13 N    0.964
    15   1 H    0.982 --     1 C    0.959
    16   1 H    0.990 --     1 C    0.974
    17   1 H    0.983 --     1 C    0.959
    18   1 H    0.985 --     3 C    0.952
    19   1 H    0.988 --    10 C    0.969
    20   1 H    0.988 --    10 C    0.970
    21   1 H    0.992 --    10 C    0.958
    22   1 H    0.991 --    14 C    0.976
    23   1 H    0.992 --    14 C    0.972
    24   1 H    0.988 --    14 C    0.974
    25   1 H    0.951 --     4 N    0.923
 ---------------------------------------------------------------------------

molecular dipole:
                 x           y           z       tot (Debye)
 q only:        1.321      -2.212       0.081
   full:        1.512      -2.492      -0.255       7.437

           -------------------------------------------------
          | TOTAL ENERGY              -42.044416067346 Eh   |
          | GRADIENT NORM               0.007504290564 Eh/α |
          | HOMO-LUMO GAP               0.942755837664 eV   |
           -------------------------------------------------

 * finished run on 2024/06/05 at 20:00:16.597
