   * xtb version 6.6.1 (8d0f1dd) compiled by 'conda@1efc2f54142f' on 2023-08-01
          program call               : xtb struc.xyz --opt loose --input .xc1 --gfn2

   ID    Z sym.   atoms
    1    7 N      1, 17
    2    6 C      2-6, 8, 9, 11-16, 18-23, 25, 26, 28-33
    3    8 O      7, 10, 24, 27
    4    1 H      34-72
constraining bond 2 70 to    4.7133300 Å, actual value:    3.4225300 Å

          :  Hamiltonian                  GFN2-xTB          :
 * total energy  :   -99.7016300 Eh     change       -0.4035485E-08 Eh
 * total energy  :  -100.0587556 Eh     change       -0.3571256E+00 Eh
 * total energy  :  -100.5192245 Eh     change       -0.4604689E+00 Eh
 * total energy  :  -101.1125134 Eh     change       -0.5932890E+00 Eh
 * total energy  :  -101.7064827 Eh     change       -0.5939693E+00 Eh
 * total energy  :  -101.7493744 Eh     change       -0.4289168E-01 Eh
 * total energy  :  -101.8533469 Eh     change       -0.1039725E+00 Eh
 * total energy  :  -101.8891907 Eh     change       -0.3584384E-01 Eh
 * total energy  :  -101.9162980 Eh     change       -0.2710725E-01 Eh
 * total energy  :  -101.9385499 Eh     change       -0.2225197E-01 Eh
 * total energy  :  -102.0082656 Eh     change       -0.1081092E-03 Eh
 * total energy  :  -102.0083977 Eh     change       -0.1321321E-03 Eh
 * total energy  :  -102.0084705 Eh     change       -0.7276495E-04 Eh
 * total energy  :  -102.0085543 Eh     change       -0.8375789E-04 Eh
 * total energy  :  -102.0086035 Eh     change       -0.4928806E-04 Eh
 * total energy  :  -102.0086726 Eh     change       -0.6901572E-04 Eh
 * total energy  :  -102.0087528 Eh     change       -0.8026583E-04 Eh
 * total energy  :  -102.0087830 Eh     change       -0.3018377E-04 Eh
 * total energy  :  -102.0088139 Eh     change       -0.3093846E-04 Eh
   *** GEOMETRY OPTIMIZATION CONVERGED AFTER 50 ITERATIONS ***

 final structure:
================
72
 xtb: 6.6.1 (8d0f1dd)
N           -2.29296410744966        2.23912147415318        2.55296937327832
C           -2.16660716612006        2.58574812091728        1.33471147741235
C           -3.14771546715215        2.03756001448581        0.30062245247321
C           -3.59374302128058        0.60200358072515        0.45336172291660
C           -4.46368627316990        0.06903197645949       -0.50366531910262
C           -4.87811749554941       -1.25137872919591       -0.45525299527712
O           -5.71395085173693       -1.83926330068351       -1.33406632469959
C           -6.27761015625456       -1.07381263924563       -2.37293286641998
C           -4.40499433234945       -2.09527517208459        0.58857500300149
O           -4.84432321924939       -3.36575505240986        0.55175770914996
C           -4.46176331345435       -4.25658021642785        1.57450875822662
C           -3.55390831236808       -1.55547656646555        1.54167919501328
C           -3.15911993233112       -0.22818694162365        1.47690035621499
C           -2.52595786976884        2.25893143475464       -1.09752674929301
C           -1.54671927184105        1.15857732713871       -1.51501973159415
C           -0.34458302725426        1.04102331592352       -0.57632640046835
N            0.57737402938463        0.01646802808070       -1.00271486475211
C            1.92976585540343        0.12351548828259       -0.50658637401194
C            2.94867959295389       -0.30473641277978       -1.58113192633525
C            4.34853073235362       -0.11440851955503       -1.07711639292218
C            5.01629336980729        1.08755235965479       -1.27160227756775
C            6.29846225913937        1.27791861456887       -0.78389876257207
C            6.94534877942059        0.26771358601350       -0.08297738168077
O            8.18520866853567        0.33894390904630        0.43023841882123
C            8.94183495478926        1.51404298280539        0.24876819624834
C            6.26828616789761       -0.96809333430192        0.12769702575235
O            6.96474301094618       -1.89201818381619        0.81498777238993
C            6.39344059528987       -3.15826368093433        1.04600627631778
C            4.98428297469216       -1.13230844911365       -0.37136059855542
C            0.03178395268787       -1.31912988478258       -0.97827975877702
C           -4.43153987723553        2.98557296968490        0.46899932959120
C           -5.19275641362577        2.62273497214995        1.73805534470368
C           -4.03861821673737        4.39214257038560        0.44385259242786
H           -4.82569454927707        0.69819951349583       -1.30009846612369
H           -6.87044422704679       -0.24136100502651       -1.98156347232828
H           -6.92977562599586       -1.75446630721794       -2.91660779340780
H           -5.50951461645011       -0.69078603771305       -3.05249962137299
H           -4.79329625516405       -3.90525835112805        2.55566224727530
H           -4.95538942847706       -5.19797859031222        1.34132636338129
H           -3.37799440128366       -4.40932285494328        1.58806649136149
H           -3.19174112390619       -2.16569007254958        2.35309169086114
H           -2.52268046209684        0.16433271608419        2.25194674967973
H           -3.31565140399653        2.30440333919210       -1.84850419404750
H           -2.01460512211299        3.22411948021528       -1.11448865032071
H           -2.07798705005184        0.20855369785383       -1.54601194151006
H           -1.18075888227026        1.37506096895135       -2.51983884114690
H           -0.70805725991878        0.83427935915688        0.44499977401193
H            0.18946419342087        1.99338655237708       -0.56607165020970
H            2.07822924254624       -0.48935191842652        0.39598347877219
H            2.13336263692537        1.16300333060336       -0.23934107121072
H            2.78241866060138        0.30238708192199       -2.47104369828163
H            2.78731104698737       -1.35019760558379       -1.84526160572162
H            4.53597976801176        1.88392316360505       -1.81910904977440
H            6.79219271655319        2.21999785983874       -0.95757035064042
H            8.46647941196451        2.37384896574597        0.73062736742474
H            9.09772327331097        1.72968023895413       -0.81203279916019
H            9.90157798597522        1.31994173650505        0.72299609116952
H            7.14253202909020       -3.72054447284360        1.60021358659830
H            5.48095914825649       -3.08297524206904        1.64554263265224
H            6.17364069749852       -3.67521853647990        0.10699627007502
H            4.46513447849463       -2.06641862125210       -0.22373992367243
H           -0.64604278220007       -1.46436136432659       -1.81995201520696
H           -0.52087981459311       -1.51498718646875       -0.04897085043529
H            0.83295006787319       -2.04868883665669       -1.06607563352991
H           -5.05176540048053        2.76717051395675       -0.40840126047548
H           -4.52287296921926        2.61581646530327        2.59514386240632
H           -5.63849866427661        1.63552361939510        1.64951074614062
H           -5.98347090779359        3.34742879381828        1.91382583351377
H           -3.98710147287552        4.96051135105402        1.35156953558431
H           -1.67989822792669        3.08203777591626        1.07258115717188
H           -3.79315799905047        4.88505958133514       -0.47836791148894
H           -1.65151773242427        2.68916477840882        3.20349948467159

          :  Hamiltonian                  GFN2-xTB          :
         :: total energy            -102.008813948347 Eh    ::
         :: gradient norm              0.003041336583 Eh/a0 ::
         :: HOMO-LUMO gap              0.929704904265 eV    ::
         :: SCC energy              -100.741449314287 Eh    ::
         :: -> dispersion             -0.074307844007 Eh    ::
         :: repulsion energy           1.546052048044 Eh    ::

    * Orbital Energies and Occupations

         #    Occupation            Energy/Eh            Energy/eV
      -------------------------------------------------------------
         1        2.0000           -0.8124937             -22.1091
       ...           ...                  ...                  ...
        78        1.9977           -0.5331918             -14.5089
        79        1.9973           -0.5304829             -14.4352
        80        1.9968           -0.5279393             -14.3660
        81        1.9966           -0.5267183             -14.3327
        82        1.9957           -0.5228999             -14.2288
        83        1.9945           -0.5190270             -14.1234
        84        1.9940           -0.5175978             -14.0846
        85        1.9686           -0.4913189             -13.3695
        86        1.9633           -0.4887931             -13.3007
        87        1.9148           -0.4750608             -12.9271
        88        1.8261           -0.4630167             -12.5993
        89        1.7957           -0.4602014             -12.5227
        90        1.7208           -0.4545840             -12.3699 (HOMO)
        91        0.8320           -0.4204180             -11.4402 (LUMO)
        92        0.0155           -0.3489638              -9.4958
        93        0.0021           -0.3168716              -8.6225
        94        0.0016           -0.3124998              -8.5036
        95        0.0016           -0.3124036              -8.5009
        96        0.0014           -0.3104034              -8.4465
        97        0.0000           -0.1913794              -5.2077
        98        0.0000           -0.1879852              -5.1153
        99                         -0.1022527              -2.7824
       100                         -0.0794614              -2.1623
       101                         -0.0650582              -1.7703
       ...                                ...                  ...
       171                          1.4819539              40.3260
      -------------------------------------------------------------
                  HL-Gap            0.0341660 Eh            0.9297 eV

     #   Z          covCN         q      C6AA      α(0)
     1   7 N        1.775    -0.297    28.523     7.909
     2   6 C        2.829     0.072    26.391     8.418
     3   6 C        3.903     0.008    20.383     6.418
     4   6 C        2.968     0.015    27.666     8.628
     5   6 C        2.921    -0.077    29.915     8.969
     6   6 C        2.861     0.132    25.107     8.213
     7   8 O        1.706    -0.224    17.715     5.683
     8   6 C        3.644     0.026    20.472     6.504
     9   6 C        2.864     0.134    25.076     8.208
    10   8 O        1.706    -0.219    17.642     5.671
    11   6 C        3.645     0.024    20.499     6.507
    12   6 C        2.914    -0.068    29.704     8.937
    13   6 C        2.921    -0.045    29.117     8.849
    14   6 C        3.808    -0.069    21.820     6.649
    15   6 C        3.802    -0.070    21.846     6.654
    16   6 C        3.751    -0.000    20.644     6.480
    17   7 N        2.728    -0.109    23.393     7.183
    18   6 C        3.752     0.002    20.606     6.474
    19   6 C        3.808    -0.073    21.882     6.659
    20   6 C        2.968     0.011    27.775     8.645
    21   6 C        2.922    -0.044    29.085     8.844
    22   6 C        2.913    -0.065    29.621     8.925
    23   6 C        2.864     0.135    25.039     8.202
    24   8 O        1.706    -0.215    17.564     5.658
    25   6 C        3.645     0.023    20.518     6.510
    26   6 C        2.862     0.136    25.034     8.201
    27   8 O        1.706    -0.218    17.613     5.666
    28   6 C        3.645     0.025    20.487     6.505
    29   6 C        2.919    -0.076    29.889     8.965
    30   6 C        3.704    -0.049    21.609     6.646
    31   6 C        3.852     0.000    20.539     6.446
    32   6 C        3.757    -0.121    22.874     6.819
    33   6 C        2.840    -0.089    30.221     9.009
    34   1 H        0.926     0.053     2.285     2.364
    35   1 H        0.924     0.054     2.268     2.355
    36   1 H        0.925     0.083     1.946     2.182
    37   1 H        0.924     0.051     2.303     2.373
    38   1 H        0.924     0.059     2.214     2.327
    39   1 H        0.925     0.083     1.944     2.181
    40   1 H        0.924     0.053     2.280     2.361
    41   1 H        0.926     0.058     2.224     2.332
    42   1 H        0.926     0.075     2.027     2.226
    43   1 H        0.924     0.051     2.303     2.373
    44   1 H        0.924     0.043     2.406     2.426
    45   1 H        0.925     0.050     2.321     2.383
    46   1 H        0.924     0.057     2.232     2.336
    47   1 H        0.923     0.031     2.572     2.508
    48   1 H        0.924     0.046     2.370     2.407
    49   1 H        0.923     0.038     2.478     2.462
    50   1 H        0.924     0.048     2.341     2.393
    51   1 H        0.925     0.063     2.159     2.298
    52   1 H        0.924     0.055     2.254     2.348
    53   1 H        0.926     0.054     2.271     2.357
    54   1 H        0.926     0.061     2.185     2.311
    55   1 H        0.924     0.058     2.226     2.333
    56   1 H        0.924     0.059     2.207     2.323
    57   1 H        0.925     0.085     1.932     2.173
    58   1 H        0.925     0.084     1.940     2.178
    59   1 H        0.924     0.053     2.280     2.362
    60   1 H        0.924     0.057     2.239     2.340
    61   1 H        0.926     0.053     2.281     2.362
    62   1 H        0.924     0.059     2.214     2.327
    63   1 H        0.923     0.039     2.466     2.456
    64   1 H        0.925     0.060     2.200     2.319
    65   1 H        0.924     0.068     2.108     2.271
    66   1 H        0.925     0.072     2.060     2.244
    67   1 H        0.925     0.050     2.323     2.384
    68   1 H        0.925     0.058     2.226     2.333
    69   1 H        0.926     0.065     2.146     2.291
    70   1 H        0.931     0.084     1.939     2.177
    71   1 H        0.926     0.057     2.229     2.335
    72   1 H        0.860     0.156     1.363     1.829

Wiberg/Mayer (AO) data.
largest (>0.10) Wiberg bond orders for each atom

     #   Z sym  total        # sym  WBO       # sym  WBO       # sym  WBO
 ---------------------------------------------------------------------------
     1   7 N    2.973 --     2 C    1.905    72 H    0.942
     2   6 C    3.944 --     1 N    1.905     3 C    0.987    70 H    0.970
     3   6 C    3.899 --     4 C    0.995     2 C    0.987    14 C    0.975
                            31 C    0.828
     4   6 C    3.929 --    13 C    1.396     5 C    1.361     3 C    0.995
     5   6 C    3.946 --     6 C    1.401     4 C    1.361    34 H    0.956
     6   6 C    3.887 --     5 C    1.401     9 C    1.209     7 O    1.104
     7   8 O    2.247 --     6 C    1.104     8 C    0.977
     8   6 C    3.929 --     7 O    0.977    36 H    0.976    35 H    0.972
                            37 H    0.972
     9   6 C    3.877 --    12 C    1.380     6 C    1.209    10 O    1.113
    10   8 O    2.249 --     9 C    1.113    11 C    0.976
    11   6 C    3.927 --    39 H    0.977    10 O    0.976    40 H    0.972
                            38 H    0.972
    12   6 C    3.951 --    13 C    1.417     9 C    1.380    41 H    0.962
    13   6 C    3.923 --    12 C    1.417     4 C    1.396    42 H    0.949
    14   6 C    3.987 --    15 C    1.005     3 C    0.975    44 H    0.973
                            43 H    0.969
    15   6 C    3.982 --    14 C    1.005    16 C    0.998    46 H    0.973
                            45 H    0.968
    16   6 C    3.970 --    17 N    1.007    15 C    0.998    48 H    0.969
                            47 H    0.943
    17   7 N    3.098 --    30 C    1.017    18 C    1.007    16 C    1.007
    18   6 C    3.963 --    17 N    1.007    50 H    0.971    19 C    0.969
                            49 H    0.958
    19   6 C    3.975 --    20 C    1.015    18 C    0.969    51 H    0.969
                            52 H    0.967
    20   6 C    3.923 --    21 C    1.388    29 C    1.385    19 C    1.015
    21   6 C    3.925 --    22 C    1.427    20 C    1.388    53 H    0.967
    22   6 C    3.948 --    21 C    1.427    23 C    1.372    54 H    0.962
    23   6 C    3.869 --    22 C    1.372    26 C    1.208    24 O    1.118
    24   8 O    2.246 --    23 C    1.118    25 C    0.975
    25   6 C    3.924 --    57 H    0.976    24 O    0.975    56 H    0.971
                            55 H    0.971
    26   6 C    3.877 --    29 C    1.387    23 C    1.208    27 O    1.112
    27   8 O    2.248 --    26 C    1.112    28 C    0.977
    28   6 C    3.928 --    27 O    0.977    58 H    0.976    59 H    0.972
                            60 H    0.972
    29   6 C    3.949 --    26 C    1.387    20 C    1.385    61 H    0.961
    30   6 C    3.969 --    17 N    1.017    64 H    0.978    62 H    0.972
                            63 H    0.965
    31   6 C    3.970 --    33 C    1.126    32 C    1.007    65 H    0.925
                             3 C    0.828
    32   6 C    3.976 --    31 C    1.007    67 H    0.980    68 H    0.980
                            66 H    0.969
    33   6 C    3.166 --    31 C    1.126    71 H    0.981    69 H    0.980
    34   1 H    0.995 --     5 C    0.956
    35   1 H    0.991 --     8 C    0.972
    36   1 H    0.992 --     8 C    0.976
    37   1 H    0.992 --     8 C    0.972
    38   1 H    0.990 --    11 C    0.972
    39   1 H    0.992 --    11 C    0.977
    40   1 H    0.991 --    11 C    0.972
    41   1 H    0.994 --    12 C    0.962
    42   1 H    0.992 --    13 C    0.949
    43   1 H    0.994 --    14 C    0.969
    44   1 H    0.997 --    14 C    0.973
    45   1 H    0.996 --    15 C    0.968
    46   1 H    0.994 --    15 C    0.973
    47   1 H    0.976 --    16 C    0.943
    48   1 H    0.997 --    16 C    0.969
    49   1 H    0.979 --    18 C    0.958
    50   1 H    0.997 --    18 C    0.971
    51   1 H    0.993 --    19 C    0.969
    52   1 H    0.994 --    19 C    0.967
    53   1 H    0.996 --    21 C    0.967
    54   1 H    0.994 --    22 C    0.962
    55   1 H    0.989 --    25 C    0.971
    56   1 H    0.989 --    25 C    0.971
    57   1 H    0.992 --    25 C    0.976
    58   1 H    0.992 --    28 C    0.976
    59   1 H    0.990 --    28 C    0.972
    60   1 H    0.990 --    28 C    0.972
    61   1 H    0.995 --    29 C    0.961
    62   1 H    0.987 --    30 C    0.972
    63   1 H    0.979 --    30 C    0.965
    64   1 H    0.996 --    30 C    0.978
    65   1 H    0.966 --    31 C    0.925
    66   1 H    0.992 --    32 C    0.969
    67   1 H    0.995 --    32 C    0.980
    68   1 H    0.995 --    32 C    0.980
    69   1 H    0.995 --    33 C    0.980
    70   1 H    0.984 --     2 C    0.970
    71   1 H    0.996 --    33 C    0.981
    72   1 H    0.968 --     1 N    0.942
 ---------------------------------------------------------------------------

molecular dipole:
                 x           y           z       tot (Debye)
 q only:        0.176       0.491      -0.248
   full:        0.342       0.896      -0.196       2.489

           -------------------------------------------------
          | TOTAL ENERGY             -102.008813948347 Eh   |
          | GRADIENT NORM               0.003041336583 Eh/α |
          | HOMO-LUMO GAP               0.929704904265 eV   |
           -------------------------------------------------

 * finished run on 2024/04/06 at 11:15:39.850
