   * xtb version 6.6.1 (8d0f1dd) compiled by 'conda@1efc2f54142f' on 2023-08-01
          program call               : xtb xtbopt.xyz --opt crude --input .xc2 --gfn2

   ID    Z sym.   atoms
    1    7 N      1, 17
    2    6 C      2-6, 8, 9, 11-16, 18-23, 25, 26, 28-33
    3    8 O      7, 10, 24, 27
    4    1 H      34-72
########################################################################
[WARNING] Please study the warnings concerning your input carefully
-1- readin_getIntValue: could not parse ''
########################################################################

          :  Hamiltonian                  GFN2-xTB          :
 * total energy  :   -99.1940460 Eh     change       -0.2037837E-10 Eh
 * total energy  :   -99.3548729 Eh     change       -0.1608269E+00 Eh
 * total energy  :   -99.3567453 Eh     change       -0.1872410E-02 Eh
 * total energy  :   -99.3576964 Eh     change       -0.9511037E-03 Eh
 * total energy  :   -99.3579394 Eh     change       -0.2429977E-03 Eh
   *** GEOMETRY OPTIMIZATION CONVERGED AFTER 5 ITERATIONS ***

 final structure:
================
72
 xtb: 6.6.1 (8d0f1dd)
N           -2.25868926852434        2.22807099614080        2.56764054177335
C           -2.20044143961935        2.56117689083407        1.35833031398793
C           -3.14631617440072        2.03448119971246        0.31078209454936
C           -3.59707597053166        0.59579186293427        0.45808394696854
C           -4.46803691245905        0.06494453889276       -0.50015706311789
C           -4.88388453279555       -1.25540165137583       -0.45544917048735
O           -5.71835286466778       -1.84161739720529       -1.33696333877084
C           -6.27993838556558       -1.07608263574754       -2.37677594479751
C           -4.41408313382740       -2.10231523060618        0.58725300647621
O           -4.85613660449574       -3.37200875261386        0.54900769928961
C           -4.47298361313812       -4.26357601451651        1.57074597348261
C           -3.56157282148862       -1.56567573583141        1.54082008868287
C           -3.16393496180524       -0.23876771348753        1.47900639597871
C           -2.52829806206254        2.25162744248909       -1.08806015316155
C           -1.54710100448044        1.15427910926811       -1.50771422962777
C           -0.34420179606121        1.03647490071092       -0.57127161252564
N            0.57809539323017        0.01006249565636       -0.99831848944524
C            1.93167197448884        0.12114915614308       -0.50511584194943
C            2.94937714128470       -0.30351580919079       -1.58147850768469
C            4.34906173719567       -0.11323824199575       -1.07831154820664
C            5.01621079562567        1.08940803860915       -1.27117536191965
C            6.29861097981455        1.27944360280601       -0.78376927061824
C            6.94608052140815        0.26871318048786       -0.08421343681718
O            8.18625549226594        0.33870096433501        0.42888357896222
C            8.94347557856083        1.51346365443057        0.24915864953781
C            6.26921427873644       -0.96734342298364        0.12516628068732
O            6.96665647937052       -1.89173009595743        0.81039465090670
C            6.39565449753149       -3.15743139986128        1.04441508624478
C            4.98518463542989       -1.13162927963576       -0.37375087760702
C            0.03362850311591       -1.32657732104429       -0.97449463983944
C           -4.43547231627262        2.98180705496981        0.47212314071779
C           -5.21058932837835        2.61759193148650        1.73361976266268
C           -4.04444544815062        4.38863990205868        0.45087108747348
H           -4.82987964597282        0.69517388365024       -1.29594158535423
H           -6.87449584873735       -0.24439545004986       -1.98656672304027
H           -6.93028681365665       -1.75717384759787       -2.92221981503765
H           -5.51069044300364       -0.69220015813603       -3.05451179838025
H           -4.80486577523849       -3.91320861345162        2.55245003861361
H           -4.96563216444390       -5.20549885512382        1.33783333349651
H           -3.38916292993402       -4.41498111203632        1.58384528317577
H           -3.19983095695003       -2.17787361242217        2.35088410428098
H           -2.52349957031386        0.14830647528770        2.25337610573009
H           -3.32055165319778        2.29253345750177       -1.83603919819897
H           -2.02055241389388        3.21747082342122       -1.10726327116008
H           -2.07634218482259        0.20288949392759       -1.54254049816989
H           -1.18335079249985        1.37618739715856       -2.51241981661007
H           -0.70511479961449        0.83333259650481        0.45195486476214
H            0.19167812973100        1.98879782943892       -0.56277837666432
H            2.08336706632839       -0.49001298140941        0.39679212000423
H            2.13122707552821        1.16097164522982       -0.23989263036066
H            2.78096080518108        0.30610191869916       -2.46936590897603
H            2.78772388791339       -1.34778662010290       -1.84889643557885
H            4.53620971280551        1.88687483499867       -1.81721514054962
H            6.79244714140556        2.22169388393961       -0.95663368634708
H            8.46600169798278        2.37407368566940        0.72731885159289
H            9.10449830652610        1.72715703929085       -0.81161941805575
H            9.90133054523933        1.31966660077777        0.72820342230825
H            7.14689252384266       -3.71928603472076        1.59610610360322
H            5.48543597526176       -3.08140237631728        1.64745475924756
H            6.17187975643158       -3.67514906624485        0.10672885344823
H            4.46696483516971       -2.06626429454636       -0.22685818049153
H           -0.65050268752872       -1.46623422548238       -1.81059860259714
H           -0.51329970696537       -1.52549901174029       -0.04266958196731
H            0.83491248564001       -2.05352641934916       -1.07087546638658
H           -5.04756475716117        2.76396550424508       -0.41118711303579
H           -4.55356073198335        2.61865787007722        2.60026567853529
H           -5.65099606827093        1.62853723358791        1.64200539888030
H           -6.00716758405623        3.33893474971960        1.89620756100230
H           -3.99835777564831        4.95666104105152        1.36059126734646
H           -1.52098697214167        3.32825992973909        0.97741258994821
H           -3.78815636323335        4.88015812312476       -0.46851761133571
H           -1.62778907805718        2.69930996427898        3.20716255311122

          :  Hamiltonian                  GFN2-xTB          :
         :: total energy             -99.357939410946 Eh    ::
         :: gradient norm              0.007663132101 Eh/a0 ::
         :: HOMO-LUMO gap              0.929197980225 eV    ::
         :: SCC energy              -100.719296363696 Eh    ::
         :: -> dispersion             -0.074267268426 Eh    ::
         :: repulsion energy           1.360006301056 Eh    ::

    * Orbital Energies and Occupations

         #    Occupation            Energy/Eh            Energy/eV
      -------------------------------------------------------------
         1        2.0000           -0.8126559             -22.1135
       ...           ...                  ...                  ...
        78        1.9977           -0.5330961             -14.5063
        79        1.9973           -0.5305218             -14.4362
        80        1.9969           -0.5281971             -14.3730
        81        1.9966           -0.5268767             -14.3370
        82        1.9957           -0.5232310             -14.2378
        83        1.9944           -0.5190600             -14.1243
        84        1.9940           -0.5177344             -14.0883
        85        1.9688           -0.4915591             -13.3760
        86        1.9631           -0.4888242             -13.3016
        87        1.9270           -0.4777509             -13.0003
        88        1.8256           -0.4630909             -12.6013
        89        1.7957           -0.4603269             -12.5261
        90        1.7185           -0.4545565             -12.3691 (HOMO)
        91        0.8280           -0.4204091             -11.4399 (LUMO)
        92        0.0100           -0.3420193              -9.3068
        93        0.0021           -0.3172274              -8.6322
        94        0.0016           -0.3126686              -8.5081
        95        0.0016           -0.3125201              -8.5041
        96        0.0014           -0.3104438              -8.4476
        97        0.0000           -0.1916710              -5.2156
        98        0.0000           -0.1880239              -5.1164
        99                         -0.1029889              -2.8025
       100                         -0.0806949              -2.1958
       101                         -0.0654385              -1.7807
       ...                                ...                  ...
       171                          0.5732922              15.6001
      -------------------------------------------------------------
                  HL-Gap            0.0341474 Eh            0.9292 eV

     #   Z          covCN         q      C6AA      α(0)
     1   7 N        1.774    -0.284    28.176     7.860
     2   6 C        2.827     0.100    25.785     8.321
     3   6 C        3.902     0.013    20.301     6.405
     4   6 C        2.967     0.015    27.665     8.628
     5   6 C        2.921    -0.077    29.915     8.969
     6   6 C        2.861     0.132    25.108     8.213
     7   8 O        1.706    -0.224    17.718     5.683
     8   6 C        3.644     0.026    20.471     6.504
     9   6 C        2.864     0.134    25.077     8.208
    10   8 O        1.706    -0.219    17.643     5.671
    11   6 C        3.646     0.024    20.496     6.506
    12   6 C        2.914    -0.069    29.708     8.938
    13   6 C        2.921    -0.045    29.120     8.849
    14   6 C        3.808    -0.068    21.790     6.645
    15   6 C        3.801    -0.070    21.834     6.653
    16   6 C        3.750    -0.000    20.643     6.480
    17   7 N        2.727    -0.109    23.386     7.182
    18   6 C        3.751     0.002    20.611     6.474
    19   6 C        3.809    -0.073    21.881     6.659
    20   6 C        2.968     0.011    27.770     8.644
    21   6 C        2.922    -0.044    29.083     8.844
    22   6 C        2.913    -0.065    29.618     8.924
    23   6 C        2.864     0.135    25.040     8.202
    24   8 O        1.706    -0.214    17.563     5.658
    25   6 C        3.645     0.023    20.519     6.510
    26   6 C        2.862     0.136    25.032     8.201
    27   8 O        1.706    -0.217    17.609     5.666
    28   6 C        3.645     0.025    20.488     6.506
    29   6 C        2.919    -0.076    29.888     8.965
    30   6 C        3.703    -0.049    21.614     6.647
    31   6 C        3.853     0.001    20.536     6.445
    32   6 C        3.756    -0.119    22.843     6.815
    33   6 C        2.839    -0.087    30.174     9.002
    34   1 H        0.926     0.053     2.289     2.366
    35   1 H        0.924     0.054     2.270     2.356
    36   1 H        0.925     0.083     1.946     2.182
    37   1 H        0.924     0.051     2.304     2.374
    38   1 H        0.924     0.059     2.216     2.328
    39   1 H        0.925     0.083     1.945     2.181
    40   1 H        0.924     0.053     2.281     2.362
    41   1 H        0.926     0.058     2.224     2.332
    42   1 H        0.926     0.075     2.029     2.228
    43   1 H        0.924     0.052     2.299     2.371
    44   1 H        0.924     0.046     2.373     2.409
    45   1 H        0.925     0.049     2.326     2.385
    46   1 H        0.924     0.058     2.227     2.334
    47   1 H        0.923     0.032     2.564     2.504
    48   1 H        0.924     0.047     2.356     2.401
    49   1 H        0.923     0.038     2.471     2.458
    50   1 H        0.924     0.049     2.332     2.388
    51   1 H        0.925     0.063     2.159     2.298
    52   1 H        0.925     0.055     2.253     2.347
    53   1 H        0.926     0.054     2.269     2.355
    54   1 H        0.926     0.061     2.184     2.311
    55   1 H        0.924     0.058     2.225     2.333
    56   1 H        0.924     0.059     2.207     2.323
    57   1 H        0.925     0.085     1.932     2.173
    58   1 H        0.925     0.084     1.939     2.178
    59   1 H        0.924     0.053     2.279     2.361
    60   1 H        0.924     0.057     2.239     2.340
    61   1 H        0.926     0.053     2.280     2.361
    62   1 H        0.925     0.059     2.210     2.325
    63   1 H        0.923     0.039     2.462     2.454
    64   1 H        0.925     0.060     2.193     2.316
    65   1 H        0.924     0.068     2.103     2.268
    66   1 H        0.925     0.069     2.100     2.266
    67   1 H        0.925     0.050     2.325     2.384
    68   1 H        0.925     0.058     2.224     2.332
    69   1 H        0.926     0.065     2.136     2.285
    70   1 H        0.924     0.020     2.726     2.582
    71   1 H        0.926     0.059     2.211     2.325
    72   1 H        0.860     0.161     1.330     1.806

Wiberg/Mayer (AO) data.
largest (>0.10) Wiberg bond orders for each atom

     #   Z sym  total        # sym  WBO       # sym  WBO       # sym  WBO
 ---------------------------------------------------------------------------
     1   7 N    3.013 --     2 C    1.928    72 H    0.941
     2   6 C    3.941 --     1 N    1.928     3 C    1.001    70 H    0.931
     3   6 C    3.904 --     2 C    1.001     4 C    0.992    14 C    0.974
                            31 C    0.824
     4   6 C    3.930 --    13 C    1.398     5 C    1.361     3 C    0.992
     5   6 C    3.947 --     6 C    1.401     4 C    1.361    34 H    0.956
     6   6 C    3.888 --     5 C    1.401     9 C    1.210     7 O    1.104
     7   8 O    2.247 --     6 C    1.104     8 C    0.978
     8   6 C    3.929 --     7 O    0.978    36 H    0.976    35 H    0.973
                            37 H    0.972
     9   6 C    3.878 --    12 C    1.380     6 C    1.210    10 O    1.113
    10   8 O    2.250 --     9 C    1.113    11 C    0.976
    11   6 C    3.927 --    39 H    0.977    10 O    0.976    40 H    0.972
                            38 H    0.972
    12   6 C    3.952 --    13 C    1.416     9 C    1.380    41 H    0.962
    13   6 C    3.924 --    12 C    1.416     4 C    1.398    42 H    0.950
    14   6 C    3.987 --    15 C    1.005     3 C    0.974    44 H    0.970
                            43 H    0.969
    15   6 C    3.982 --    14 C    1.005    16 C    0.998    46 H    0.972
                            45 H    0.968
    16   6 C    3.970 --    17 N    1.006    15 C    0.998    48 H    0.969
                            47 H    0.944
    17   7 N    3.096 --    30 C    1.017    18 C    1.007    16 C    1.006
    18   6 C    3.963 --    17 N    1.007    50 H    0.970    19 C    0.969
                            49 H    0.958
    19   6 C    3.975 --    20 C    1.015    18 C    0.969    51 H    0.969
                            52 H    0.967
    20   6 C    3.923 --    21 C    1.388    29 C    1.385    19 C    1.015
    21   6 C    3.925 --    22 C    1.427    20 C    1.388    53 H    0.967
    22   6 C    3.948 --    21 C    1.427    23 C    1.372    54 H    0.962
    23   6 C    3.869 --    22 C    1.372    26 C    1.208    24 O    1.117
    24   8 O    2.246 --    23 C    1.117    25 C    0.975
    25   6 C    3.924 --    57 H    0.976    24 O    0.975    56 H    0.971
                            55 H    0.971
    26   6 C    3.877 --    29 C    1.386    23 C    1.208    27 O    1.112
    27   8 O    2.248 --    26 C    1.112    28 C    0.977
    28   6 C    3.927 --    27 O    0.977    58 H    0.976    59 H    0.972
                            60 H    0.972
    29   6 C    3.949 --    26 C    1.386    20 C    1.385    61 H    0.961
    30   6 C    3.968 --    17 N    1.017    64 H    0.978    62 H    0.972
                            63 H    0.965
    31   6 C    3.971 --    33 C    1.127    32 C    1.007    65 H    0.926
                             3 C    0.824
    32   6 C    3.978 --    31 C    1.007    67 H    0.980    68 H    0.980
                            66 H    0.972
    33   6 C    3.168 --    31 C    1.127    71 H    0.980    69 H    0.980
    34   1 H    0.995 --     5 C    0.956
    35   1 H    0.991 --     8 C    0.973
    36   1 H    0.992 --     8 C    0.976
    37   1 H    0.992 --     8 C    0.972
    38   1 H    0.990 --    11 C    0.972
    39   1 H    0.992 --    11 C    0.977
    40   1 H    0.991 --    11 C    0.972
    41   1 H    0.994 --    12 C    0.962
    42   1 H    0.992 --    13 C    0.950
    43   1 H    0.994 --    14 C    0.969
    44   1 H    0.996 --    14 C    0.970
    45   1 H    0.996 --    15 C    0.968
    46   1 H    0.994 --    15 C    0.972
    47   1 H    0.975 --    16 C    0.944
    48   1 H    0.996 --    16 C    0.969
    49   1 H    0.978 --    18 C    0.958
    50   1 H    0.997 --    18 C    0.970
    51   1 H    0.993 --    19 C    0.969
    52   1 H    0.994 --    19 C    0.967
    53   1 H    0.996 --    21 C    0.967
    54   1 H    0.994 --    22 C    0.962
    55   1 H    0.989 --    25 C    0.971
    56   1 H    0.989 --    25 C    0.971
    57   1 H    0.992 --    25 C    0.976
    58   1 H    0.992 --    28 C    0.976
    59   1 H    0.990 --    28 C    0.972
    60   1 H    0.990 --    28 C    0.972
    61   1 H    0.995 --    29 C    0.961
    62   1 H    0.987 --    30 C    0.972
    63   1 H    0.978 --    30 C    0.965
    64   1 H    0.996 --    30 C    0.978
    65   1 H    0.967 --    31 C    0.926
    66   1 H    0.993 --    32 C    0.972
    67   1 H    0.995 --    32 C    0.980
    68   1 H    0.995 --    32 C    0.980
    69   1 H    0.995 --    33 C    0.980
    70   1 H    0.981 --     2 C    0.931
    71   1 H    0.996 --    33 C    0.980
    72   1 H    0.967 --     1 N    0.941
 ---------------------------------------------------------------------------

molecular dipole:
                 x           y           z       tot (Debye)
 q only:        0.134       0.429      -0.240
   full:        0.297       0.855      -0.189       2.351

           -------------------------------------------------
          | TOTAL ENERGY              -99.357939410946 Eh   |
          | GRADIENT NORM               0.007663132101 Eh/α |
          | HOMO-LUMO GAP               0.929197980225 eV   |
           -------------------------------------------------

 * finished run on 2024/04/06 at 11:15:40.979
