   * xtb version 6.6.1 (8d0f1dd) compiled by 'conda@1efc2f54142f' on 2023-08-01
          program call               : xtb xtbopt.xyz --opt crude --input .xc2 --gfn2

   ID    Z sym.   atoms
    1    7 N      1, 17
    2    6 C      2-6, 8, 9, 11-16, 18-23, 25, 26, 28-33
    3    8 O      7, 10, 24, 27
    4    1 H      34-72
########################################################################
[WARNING] Please study the warnings concerning your input carefully
-1- readin_getIntValue: could not parse ''
########################################################################

          :  Hamiltonian                  GFN2-xTB          :
 * total energy  :   -99.3163493 Eh     change       -0.4159517E-10 Eh
   *** GEOMETRY OPTIMIZATION CONVERGED AFTER 1 ITERATIONS ***

 final structure:
================
72
 xtb: 6.6.1 (8d0f1dd)
N           -1.04071014123580        2.61879709215263        1.62002307385587
C           -1.97024960726335        1.48592055585329        1.43857207876852
C           -3.07016477067607        1.61571913009036        0.37365636438721
C           -3.62442049229545        0.25913696155723        0.02438767351186
C           -4.43918694008717        0.00918511693315       -1.10440154454564
C           -4.82149332401636       -1.32886857787263       -1.08816347866457
O           -5.59220127217365       -2.03440773753833       -1.92562462824201
C           -6.21322479590262       -1.33558352108723       -2.97988911998607
C           -4.23197502207959       -1.93168259507200        0.08234617524147
O           -4.42444645605438       -3.22495272537293        0.37570302296695
C           -3.88163259958579       -3.70737024444764        1.58278099168115
C           -3.50272457472248       -0.94546842366783        0.74860426484593
C           -1.81675473857051        2.23639389776675        2.67415541404799
C           -2.44732877128033        2.26532444400342       -0.88502606397817
C           -1.50963865231224        1.33652663300769       -1.68305784887577
C           -0.19841449880579        1.15120925630853       -1.03613269339483
N            0.33480929957766       -0.00128665383989       -0.65647213023738
C            1.70776523112144       -0.04874393748656       -0.20988547622542
C            2.66526973295301       -0.46803502318622       -1.34392847710138
C            4.09204714668346       -0.26157532862733       -0.91831778509338
C            4.73297546859235        0.93991212769007       -1.17228550509322
C            6.04280271311726        1.14613588824626       -0.76759159982103
C            6.73729403220792        0.15309878102303       -0.09268342492208
O            8.00910240249089        0.24132289631391        0.34119890791015
C            8.74300350693753        1.41536712525879        0.07947531005310
C            6.08532522725518       -1.08094787442303        0.18047329623951
O            6.83272678695237       -1.98958145647161        0.83925280501349
C            6.28600426806691       -3.25455170147350        1.12497921310564
C            4.77557791589478       -1.26411906784336       -0.23387934352192
C           -0.33301119294219       -1.26462770944061       -0.86331183240361
C           -4.29440015933290        2.47965699482950        0.82042112627084
C           -4.99019351441659        1.88488940576932        2.04391691914660
C           -3.97682389727758        3.95627624803056        1.04517118971991
H           -4.72542679882329        0.73412652395953       -1.84067241500292
H           -6.85860283632291       -0.53955083301509       -2.59721477601083
H           -6.81428664932507       -2.06789186829529       -3.51485111985154
H           -5.47268455783157       -0.90228048911879       -3.65926710941728
H           -4.28064171107248       -3.16063894125602        2.44197252724067
H           -4.17388701470462       -4.75349736955086        1.64779561287111
H           -2.78962986138615       -3.63126658445737        1.58322023089399
H           -2.99879472785565       -1.07720122296904        1.68620532768810
H           -2.32682357717192        2.77694747408159        3.43114011644169
H           -3.25295322465546        2.57582421697002       -1.54856328559806
H           -1.89502943339186        3.15456501630536       -0.58118008791135
H           -2.01191736128937        0.39101955465205       -1.87677501959837
H           -1.33107650926213        1.83019313478391       -2.64568813619262
H           -1.51218843122437        0.49895275553907        1.44129328044207
H            0.39217671042206        2.03711404750598       -0.85980550863630
H            1.79394502642267       -0.75326845727582        0.62117977863568
H            2.00399043817410        0.94017612694719        0.14624998135152
H            2.45200413091288        0.14595688798178       -2.22087578378069
H            2.49426677661129       -1.51331271014281       -1.60286623285172
H            4.21796085751721        1.72523768223586       -1.70478144140938
H            6.51760429102102        2.08755059429044       -0.98990828167055
H            8.28971701279541        2.28753194522261        0.56068703129736
H            8.83618830576727        1.59772977560934       -0.99531521290444
H            9.73055417658636        1.24309945208875        0.50306089412087
H            7.07567603970600       -3.80666164747028        1.63070463835950
H            5.41861041359139       -3.17653396671444        1.78846881024847
H            6.00227116914303       -3.78518281127356        0.21087325970589
H            4.27521341285898       -2.20017230279748       -0.04117036560841
H           -0.35004589761773       -1.53707760336927       -1.92131389358589
H           -1.36300644663458       -1.21742321016165       -0.49994339722790
H            0.19537549097577       -2.04164933532855       -0.31566092834106
H           -5.00812131597894        2.42213438236284       -0.00886950786128
H           -4.37238463424421        1.96028903270488        2.93250011345226
H           -5.22759717596286        0.83692312767007        1.87869344736407
H           -5.91895271598312        2.41829212572689        2.22904074046936
H           -3.19545882538852        4.09372483699893        1.78524717189489
H           -3.66763855549787        4.44313735977879        0.12475020117814
H           -4.87276527791641        4.46038049638598        1.40052484918947
H           -0.03483342688106        2.51377234884471        1.61791245862068

          :  Hamiltonian                  GFN2-xTB          :
         :: total energy             -99.316349291891 Eh    ::
         :: gradient norm              0.004127900030 Eh/a0 ::
         :: HOMO-LUMO gap              0.316590984294 eV    ::
         :: SCC energy              -100.658361756929 Eh    ::
         :: -> dispersion             -0.075701663525 Eh    ::
         :: repulsion energy           1.340539962614 Eh    ::

    * Orbital Energies and Occupations

         #    Occupation            Energy/Eh            Energy/eV
      -------------------------------------------------------------
         1        2.0000           -0.8074316             -21.9713
       ...           ...                  ...                  ...
        78        1.9989           -0.5320784             -14.4786
        79        1.9985           -0.5277291             -14.3602
        80        1.9984           -0.5267577             -14.3338
        81        1.9981           -0.5242905             -14.2667
        82        1.9977           -0.5207601             -14.1706
        83        1.9973           -0.5185938             -14.1117
        84        1.9961           -0.5127106             -13.9516
        85        1.9947           -0.5075624             -13.8115
        86        1.9925           -0.5021168             -13.6633
        87        1.9805           -0.4869003             -13.2492
        88        1.8581           -0.4544803             -12.3670
        89        1.7713           -0.4461584             -12.1406
        90        1.1813           -0.4195519             -11.4166 (HOMO)
        91        0.8180           -0.4079174             -11.1000 (LUMO)
        92        0.4198           -0.3927573             -10.6875
        93        0.0030           -0.3109034              -8.4601
        94        0.0026           -0.3084927              -8.3945
        95        0.0001           -0.2470847              -6.7235
        96        0.0000           -0.2298766              -6.2553
        97        0.0000           -0.1874949              -5.1020
        98        0.0000           -0.1858760              -5.0579
        99                         -0.1323378              -3.6011
       100                         -0.0818919              -2.2284
       101                         -0.0675510              -1.8382
       ...                                ...                  ...
       171                          0.5780700              15.7301
      -------------------------------------------------------------
                  HL-Gap            0.0116345 Eh            0.3166 eV

     #   Z          covCN         q      C6AA      α(0)
     1   7 N        2.676    -0.177    24.833     7.401
     2   6 C        3.792     0.043    19.865     6.347
     3   6 C        3.899     0.009    20.374     6.416
     4   6 C        3.093    -0.014    28.243     8.711
     5   6 C        3.016    -0.107    30.688     9.087
     6   6 C        2.973     0.117    25.431     8.272
     7   8 O        1.704    -0.216    17.583     5.661
     8   6 C        3.655     0.026    20.430     6.489
     9   6 C        2.981     0.115    25.470     8.278
    10   8 O        1.704    -0.217    17.608     5.665
    11   6 C        3.654     0.027    20.415     6.488
    12   6 C        3.010    -0.115    30.888     9.117
    13   6 C        2.816    -0.011    28.268     8.711
    14   6 C        3.809    -0.070    21.830     6.651
    15   6 C        3.802    -0.071    21.859     6.656
    16   6 C        2.846     0.006    27.881     8.654
    17   7 N        2.729     0.015    20.993     6.805
    18   6 C        3.757    -0.016    20.919     6.521
    19   6 C        3.807    -0.070    21.840     6.653
    20   6 C        2.969    -0.002    28.064     8.690
    21   6 C        2.922    -0.050    29.241     8.868
    22   6 C        2.914    -0.068    29.698     8.936
    23   6 C        2.865     0.133    25.094     8.211
    24   8 O        1.706    -0.224    17.712     5.682
    25   6 C        3.645     0.026    20.478     6.504
    26   6 C        2.863     0.132    25.099     8.212
    27   8 O        1.706    -0.226    17.752     5.689
    28   6 C        3.645     0.028    20.446     6.499
    29   6 C        2.919    -0.080    30.000     8.982
    30   6 C        3.699    -0.072    22.056     6.717
    31   6 C        3.856    -0.015    20.804     6.487
    32   6 C        3.754    -0.115    22.757     6.802
    33   6 C        3.754    -0.116    22.788     6.807
    34   1 H        0.926     0.038     2.482     2.463
    35   1 H        0.924     0.059     2.212     2.326
    36   1 H        0.925     0.080     1.981     2.201
    37   1 H        0.924     0.053     2.277     2.360
    38   1 H        0.924     0.059     2.216     2.328
    39   1 H        0.925     0.080     1.981     2.201
    40   1 H        0.924     0.048     2.349     2.397
    41   1 H        0.926     0.031     2.578     2.511
    42   1 H        0.927     0.081     1.967     2.193
    43   1 H        0.925     0.062     2.171     2.304
    44   1 H        0.925     0.064     2.154     2.295
    45   1 H        0.925     0.070     2.086     2.259
    46   1 H        0.924     0.080     1.984     2.203
    47   1 H        0.925     0.030     2.589     2.516
    48   1 H        0.926     0.067     2.121     2.277
    49   1 H        0.924     0.066     2.134     2.285
    50   1 H        0.924     0.063     2.163     2.300
    51   1 H        0.924     0.055     2.264     2.353
    52   1 H        0.924     0.056     2.244     2.343
    53   1 H        0.926     0.044     2.401     2.423
    54   1 H        0.926     0.057     2.229     2.335
    55   1 H        0.924     0.053     2.281     2.362
    56   1 H        0.924     0.055     2.256     2.349
    57   1 H        0.925     0.082     1.962     2.190
    58   1 H        0.925     0.081     1.966     2.193
    59   1 H        0.924     0.048     2.348     2.396
    60   1 H        0.924     0.052     2.295     2.369
    61   1 H        0.926     0.047     2.362     2.403
    62   1 H        0.924     0.077     2.012     2.218
    63   1 H        0.924     0.085     1.926     2.170
    64   1 H        0.925     0.076     2.018     2.221
    65   1 H        0.924     0.046     2.372     2.408
    66   1 H        0.925     0.043     2.414     2.430
    67   1 H        0.925     0.044     2.403     2.424
    68   1 H        0.925     0.050     2.317     2.380
    69   1 H        0.925     0.047     2.362     2.403
    70   1 H        0.925     0.041     2.432     2.439
    71   1 H        0.925     0.053     2.283     2.363
    72   1 H        0.860     0.157     1.355     1.823

Wiberg/Mayer (AO) data.
largest (>0.10) Wiberg bond orders for each atom

     #   Z sym  total        # sym  WBO       # sym  WBO       # sym  WBO
 ---------------------------------------------------------------------------
     1   7 N    3.099 --    13 C    1.186    72 H    0.927     2 C    0.918
     2   6 C    3.904 --    13 C    1.010     3 C    0.959    47 H    0.955
                             1 N    0.918
     3   6 C    3.965 --     4 C    1.003    14 C    0.966     2 C    0.959
                            31 C    0.937
     4   6 C    3.707 --    12 C    1.307     5 C    1.296     3 C    1.003
     5   6 C    3.809 --     6 C    1.366     4 C    1.296    34 H    0.969
     6   6 C    3.707 --     5 C    1.366     9 C    1.121     7 O    1.116
     7   8 O    2.203 --     6 C    1.116     8 C    0.975
     8   6 C    3.928 --    36 H    0.978     7 O    0.975    37 H    0.972
                            35 H    0.972
     9   6 C    3.691 --    12 C    1.351     6 C    1.121    10 O    1.113
    10   8 O    2.202 --     9 C    1.113    11 C    0.977
    11   6 C    3.931 --    39 H    0.978    10 O    0.977    40 H    0.973
                            38 H    0.972
    12   6 C    3.817 --     9 C    1.351     4 C    1.307    41 H    0.968
    13   6 C    3.196 --     1 N    1.186     2 C    1.010    42 H    0.951
    14   6 C    3.952 --    43 H    0.968    44 H    0.968    15 C    0.967
                             3 C    0.966
    15   6 C    3.983 --    16 C    1.068    14 C    0.967    45 H    0.961
                            46 H    0.932
    16   6 C    3.562 --    17 N    1.413    15 C    1.068    48 H    0.958
    17   7 N    3.474 --    16 C    1.413    30 C    0.997    18 C    0.989
    18   6 C    3.957 --    17 N    0.989    50 H    0.968    19 C    0.965
                            49 H    0.965
    19   6 C    3.976 --    20 C    1.008    52 H    0.972    51 H    0.972
                            18 C    0.965
    20   6 C    3.947 --    21 C    1.411    29 C    1.379    19 C    1.008
    21   6 C    3.952 --    22 C    1.415    20 C    1.411    53 H    0.968
    22   6 C    3.961 --    21 C    1.415    23 C    1.386    54 H    0.963
    23   6 C    3.898 --    22 C    1.386    26 C    1.222    24 O    1.108
    24   8 O    2.255 --    23 C    1.108    25 C    0.976
    25   6 C    3.929 --    57 H    0.977    24 O    0.976    56 H    0.973
                            55 H    0.973
    26   6 C    3.902 --    29 C    1.397    23 C    1.222    27 O    1.102
    27   8 O    2.255 --    26 C    1.102    28 C    0.979
    28   6 C    3.933 --    27 O    0.979    58 H    0.977    59 H    0.974
                            60 H    0.973
    29   6 C    3.960 --    26 C    1.397    20 C    1.379    61 H    0.963
    30   6 C    3.954 --    17 N    0.997    64 H    0.978    62 H    0.964
                            63 H    0.957
    31   6 C    3.965 --    32 C    1.009    33 C    1.008    65 H    0.961
                             3 C    0.937
    32   6 C    3.985 --    31 C    1.009    68 H    0.983    67 H    0.980
                            66 H    0.980
    33   6 C    3.982 --    31 C    1.008    70 H    0.983    71 H    0.980
                            69 H    0.976
    34   1 H    0.998 --     5 C    0.969
    35   1 H    0.987 --     8 C    0.972
    36   1 H    0.993 --     8 C    0.978
    37   1 H    0.988 --     8 C    0.972
    38   1 H    0.988 --    11 C    0.972
    39   1 H    0.993 --    11 C    0.978
    40   1 H    0.989 --    11 C    0.973
    41   1 H    0.998 --    12 C    0.968
    42   1 H    0.983 --    13 C    0.951
    43   1 H    0.993 --    14 C    0.968
    44   1 H    0.995 --    14 C    0.968
    45   1 H    0.995 --    15 C    0.961
    46   1 H    0.972 --    15 C    0.932
    47   1 H    0.993 --     2 C    0.955
    48   1 H    0.995 --    16 C    0.958
    49   1 H    0.991 --    18 C    0.965
    50   1 H    0.995 --    18 C    0.968
    51   1 H    0.996 --    19 C    0.972
    52   1 H    0.996 --    19 C    0.972
    53   1 H    0.998 --    21 C    0.968
    54   1 H    0.995 --    22 C    0.963
    55   1 H    0.992 --    25 C    0.973
    56   1 H    0.992 --    25 C    0.973
    57   1 H    0.993 --    25 C    0.977
    58   1 H    0.993 --    28 C    0.977
    59   1 H    0.994 --    28 C    0.974
    60   1 H    0.993 --    28 C    0.973
    61   1 H    0.997 --    29 C    0.963
    62   1 H    0.983 --    30 C    0.964
    63   1 H    0.987 --    30 C    0.957
    64   1 H    0.993 --    30 C    0.978
    65   1 H    0.994 --    31 C    0.961
    66   1 H    0.996 --    32 C    0.980
    67   1 H    0.997 --    32 C    0.980
    68   1 H    0.996 --    32 C    0.983
    69   1 H    0.996 --    33 C    0.976
    70   1 H    0.997 --    33 C    0.983
    71   1 H    0.994 --    33 C    0.980
    72   1 H    0.947 --     1 N    0.927
 ---------------------------------------------------------------------------

molecular dipole:
                 x           y           z       tot (Debye)
 q only:        0.553       0.499      -0.391
   full:        0.663       0.570      -0.377       2.419

           -------------------------------------------------
          | TOTAL ENERGY              -99.316349291891 Eh   |
          | GRADIENT NORM               0.004127900030 Eh/α |
          | HOMO-LUMO GAP               0.316590984294 eV   |
           -------------------------------------------------

 * finished run on 2024/04/06 at 11:12:42.520
