   * xtb version 6.6.1 (8d0f1dd) compiled by 'conda@1efc2f54142f' on 2023-08-01
          program call               : xtb struc.xyz --opt loose --input .xc1 --gfn2

   ID    Z sym.   atoms
    1    7 N      1, 17
    2    6 C      2-6, 8, 9, 11-16, 18-23, 25, 26, 28-33
    3    8 O      7, 10, 24, 27
    4    1 H      34-72
constraining bond 12 34 to    4.7133300 Å, actual value:    3.8427531 Å

          :  Hamiltonian                  GFN2-xTB          :
 * total energy  :   -99.5394571 Eh     change       -0.4035485E-08 Eh
 * total energy  :   -99.6827550 Eh     change       -0.1432979E+00 Eh
 * total energy  :   -99.8010556 Eh     change       -0.1183005E+00 Eh
 * total energy  :   -99.8998337 Eh     change       -0.9877814E-01 Eh
 * total energy  :  -100.0522183 Eh     change       -0.1523846E+00 Eh
 * total energy  :  -100.1617321 Eh     change       -0.1095138E+00 Eh
 * total energy  :  -100.3905677 Eh     change       -0.2288355E+00 Eh
 * total energy  :  -100.8288160 Eh     change       -0.4382483E+00 Eh
 * total energy  :  -101.3506883 Eh     change       -0.5218723E+00 Eh
 * total energy  :   -98.1535160 Eh     change        0.3197172E+01 Eh
 * total energy  :  -101.9243619 Eh     change       -0.6132694E-04 Eh
 * total energy  :  -101.9244170 Eh     change       -0.5513919E-04 Eh
 * total energy  :  -101.9244822 Eh     change       -0.6520719E-04 Eh
 * total energy  :  -101.9245414 Eh     change       -0.5916528E-04 Eh
 * total energy  :  -101.9246162 Eh     change       -0.7478519E-04 Eh
 * total energy  :  -101.9246829 Eh     change       -0.6677919E-04 Eh
 * total energy  :  -101.9247412 Eh     change       -0.5822433E-04 Eh
 * total energy  :  -101.9247757 Eh     change       -0.3457647E-04 Eh
 * total energy  :  -101.9248117 Eh     change       -0.3596803E-04 Eh
   *** GEOMETRY OPTIMIZATION CONVERGED AFTER 59 ITERATIONS ***

 final structure:
================
72
 xtb: 6.6.1 (8d0f1dd)
N           -1.92721737873791        3.23019439569278        2.05107508770683
C           -1.89869415064851        2.31652886277829        1.19963288577941
C           -3.06090561019695        1.94329049054764        0.31981544725551
C           -3.48126064713153        0.56418609452662        0.72454973893924
C           -4.57343677687578       -0.32080693981501        0.26880550793320
C           -4.67126738406906       -1.30232255826232       -0.68928866428940
O           -4.98263900417786       -1.39095727631553       -1.97075128098285
C           -5.32781557968072       -0.19211197257490       -2.63945400555466
C           -4.26887677352357       -2.41926610928500        0.24948730466827
O           -5.19272972803368       -3.43142376361203        0.44764660579171
C           -4.77180055568973       -4.43731197854283        1.34165449391793
C           -4.21914971301987       -1.31226306850661        1.39683242284077
C           -3.03090716703688       -0.36714436790752        1.59797334736128
C           -2.56177820397569        1.95542035085389       -1.14759453503142
C           -1.63874348187609        0.78433798431389       -1.52047303757934
C           -0.27949342575377        0.90105299574067       -0.94541910707823
N            0.43786848448526       -0.10721146877639       -0.45998968767734
C            1.83374722995116        0.07625926229836       -0.13932075749489
C            2.74982225840679       -0.39210816102376       -1.28706996746136
C            4.18827419340747       -0.16388372707385       -0.91613432647653
C            4.79372911391250        1.05904949229292       -1.15602293107454
C            6.10919257090353        1.28535039601168       -0.78200883125277
C            6.84628697429499        0.29094736921309       -0.15479766657913
O            8.12336178142771        0.39932124336879        0.25444413954152
C            8.81002700416712        1.61346759248586        0.05405430479014
C            6.23441539895905       -0.96935539655657        0.09250864273395
O            7.02272652545540       -1.88032187998053        0.69635911223523
C            6.51734551357652       -3.16912574141487        0.95113611598155
C            4.91676800715713       -1.17069013052761       -0.28731549997992
C           -0.10386982430042       -1.43899298536524       -0.34377173457796
C           -4.30053836011569        2.87381878634657        0.45944885876363
C           -4.88854249515411        2.81768501841844        1.86749459303454
C           -4.00019572131210        4.32126480935938        0.08197722644027
H           -4.66464305730659       -1.43502438784939        1.97756190470876
H           -5.79228699052643        0.51301974325600       -1.94664726076438
H           -6.03014349084577       -0.46326859405282       -3.42571172246910
H           -4.43986905912378        0.25904690435464       -3.08881518218569
H           -4.55293987026385       -4.02614026510664        2.33350778563721
H           -5.59880760692863       -5.13887402082461        1.41594667639861
H           -3.88249357855621       -4.95401679889712        0.96259912940119
H           -3.27616307843826       -2.81917938322597       -0.02095378362083
H           -2.22066246170858       -0.39764880718656        2.30366296261017
H           -3.43396880176967        1.92561470357139       -1.79981717725959
H           -2.03965735243910        2.89523769360565       -1.32962582032999
H           -2.11151923908376       -0.15865996507587       -1.24788666883929
H           -1.53406329061286        0.79651926185654       -2.61440078271232
H           -1.01212607867621        1.68891890468196        0.99018493720906
H            0.22625611331879        1.84917211469825       -1.04660487556092
H            2.07053714241485       -0.48692025555083        0.76692266064959
H            2.02410639917413        1.13346664882738        0.05645721704115
H            2.50114537088463        0.17296696002448       -2.18706840575013
H            2.57559369759008       -1.45060248373171       -1.48401991741724
H            4.24489223148021        1.84632725563618       -1.65018320299150
H            6.55541483660925        2.24409675443509       -0.98906039304233
H            8.31806930779355        2.44203002937007        0.57243670794506
H            8.90228258498160        1.85050248916977       -1.01013373449578
H            9.80120566441325        1.46110459930921        0.47683323738631
H            7.33522167428450       -3.71727689457758        1.41462129725346
H            5.66751816158496       -3.13824267255790        1.64068030239257
H            6.22161161207863       -3.67422706072869        0.02636193007510
H            4.44516826560293       -2.12432361782455       -0.10836425187081
H           -0.31292974907252       -1.86927969925292       -1.32550610656317
H           -1.03042577323159       -1.41940372766924        0.23567195353618
H            0.61219759990797       -2.07562944405441        0.16943325032496
H           -5.05346753564288        2.48111665549133       -0.23631387009293
H           -4.17220501228503        3.20207042608857        2.58708655474277
H           -5.15445477773303        1.80001079822533        2.14278821887036
H           -5.78699381226068        3.42781770255916        1.91126563506241
H           -3.21276584549357        4.71701041098622        0.71615276139765
H           -3.70703473252306        4.41859105251200       -0.96007908743250
H           -4.89292495375355        4.92199290338185        0.23352228333177
H           -1.08586199165085        3.39934596992725        2.59327587740182

          :  Hamiltonian                  GFN2-xTB          :
         :: total energy            -101.924811715860 Eh    ::
         :: gradient norm              0.003736699187 Eh/a0 ::
         :: HOMO-LUMO gap              1.598316130609 eV    ::
         :: SCC energy              -100.630758024045 Eh    ::
         :: -> dispersion             -0.073960480556 Eh    ::
         :: repulsion energy           1.520485279381 Eh    ::

    * Orbital Energies and Occupations

         #    Occupation            Energy/Eh            Energy/eV
      -------------------------------------------------------------
         1        2.0000           -0.8323249             -22.6487
       ...           ...                  ...                  ...
        78        1.9983           -0.5301122             -14.4251
        79        1.9983           -0.5298931             -14.4191
        80        1.9980           -0.5275728             -14.3560
        81        1.9970           -0.5212495             -14.1839
        82        1.9965           -0.5185001             -14.1091
        83        1.9955           -0.5145574             -14.0018
        84        1.9950           -0.5129498             -13.9581
        85        1.9927           -0.5070214             -13.7968
        86        1.9784           -0.4897043             -13.3255
        87        1.9622           -0.4807039             -13.0806
        88        1.9414           -0.4735746             -12.8866
        89        1.8419           -0.4570404             -12.4367
        90        1.8333           -0.4561261             -12.4118 (HOMO)
        91        0.4244           -0.3973891             -10.8135 (LUMO)
        92        0.0341           -0.3539514              -9.6315
        93        0.0143           -0.3400646              -9.2536
        94        0.0027           -0.3136080              -8.5337
        95        0.0023           -0.3113456              -8.4721
        96        0.0015           -0.3045436              -8.2871
        97        0.0000           -0.1888146              -5.1379
        98                         -0.1493851              -4.0650
        99                         -0.1387366              -3.7752
       100                         -0.1126048              -3.0641
       101                         -0.0740068              -2.0138
       ...                                ...                  ...
       171                          1.4637875              39.8317
      -------------------------------------------------------------
                  HL-Gap            0.0587370 Eh            1.5983 eV

     #   Z          covCN         q      C6AA      α(0)
     1   7 N        1.774    -0.266    27.729     7.798
     2   6 C        2.832     0.099    25.790     8.322
     3   6 C        3.906     0.010    20.351     6.412
     4   6 C        3.209     0.018    26.988     8.458
     5   6 C        3.603    -0.071    22.465     6.853
     6   6 C        3.080     0.133    25.003     8.198
     7   8 O        1.704    -0.204    17.393     5.631
     8   6 C        3.658     0.021    20.501     6.498
     9   6 C        4.004     0.116    18.620     6.130
    10   8 O        1.702    -0.280    18.653     5.831
    11   6 C        3.654     0.031    20.344     6.476
    12   6 C        4.325    -0.071    21.760     6.625
    13   6 C        3.296    -0.070    27.911     8.467
    14   6 C        3.810    -0.066    21.750     6.638
    15   6 C        3.802    -0.065    21.754     6.640
    16   6 C        2.844     0.003    27.961     8.666
    17   7 N        2.729     0.009    21.095     6.821
    18   6 C        3.756    -0.017    20.925     6.522
    19   6 C        3.808    -0.070    21.839     6.652
    20   6 C        2.969    -0.000    28.033     8.685
    21   6 C        2.922    -0.049    29.209     8.863
    22   6 C        2.914    -0.067    29.677     8.933
    23   6 C        2.865     0.134    25.074     8.208
    24   8 O        1.706    -0.221    17.669     5.675
    25   6 C        3.645     0.025    20.493     6.506
    26   6 C        2.863     0.133    25.084     8.209
    27   8 O        1.706    -0.224    17.716     5.683
    28   6 C        3.645     0.027    20.456     6.500
    29   6 C        2.919    -0.080    29.987     8.980
    30   6 C        3.700    -0.068    21.968     6.703
    31   6 C        3.855    -0.006    20.645     6.462
    32   6 C        3.756    -0.120    22.846     6.815
    33   6 C        3.755    -0.120    22.845     6.815
    34   1 H        0.930     0.102     1.767     2.079
    35   1 H        0.924     0.065     2.139     2.287
    36   1 H        0.925     0.089     1.891     2.150
    37   1 H        0.924     0.059     2.213     2.326
    38   1 H        0.924     0.043     2.409     2.427
    39   1 H        0.925     0.080     1.976     2.198
    40   1 H        0.924     0.039     2.465     2.455
    41   1 H        0.923     0.023     2.681     2.561
    42   1 H        0.926     0.034     2.528     2.486
    43   1 H        0.925     0.060     2.203     2.321
    44   1 H        0.924     0.056     2.242     2.341
    45   1 H        0.925     0.060     2.203     2.321
    46   1 H        0.923     0.076     2.017     2.221
    47   1 H        0.922     0.005     2.971     2.696
    48   1 H        0.926     0.070     2.088     2.259
    49   1 H        0.924     0.068     2.108     2.270
    50   1 H        0.924     0.068     2.107     2.270
    51   1 H        0.924     0.055     2.259     2.351
    52   1 H        0.924     0.055     2.257     2.349
    53   1 H        0.926     0.045     2.382     2.414
    54   1 H        0.926     0.059     2.212     2.326
    55   1 H        0.924     0.054     2.267     2.354
    56   1 H        0.924     0.056     2.241     2.341
    57   1 H        0.925     0.083     1.951     2.184
    58   1 H        0.925     0.082     1.956     2.187
    59   1 H        0.924     0.049     2.335     2.390
    60   1 H        0.924     0.053     2.286     2.365
    61   1 H        0.926     0.047     2.355     2.400
    62   1 H        0.924     0.074     2.040     2.234
    63   1 H        0.924     0.075     2.034     2.230
    64   1 H        0.925     0.081     1.970     2.195
    65   1 H        0.924     0.036     2.506     2.475
    66   1 H        0.925     0.069     2.101     2.267
    67   1 H        0.925     0.040     2.446     2.446
    68   1 H        0.925     0.052     2.291     2.367
    69   1 H        0.925     0.062     2.174     2.306
    70   1 H        0.925     0.034     2.529     2.487
    71   1 H        0.925     0.056     2.250     2.346
    72   1 H        0.860     0.159     1.342     1.814

Wiberg/Mayer (AO) data.
largest (>0.10) Wiberg bond orders for each atom

     #   Z sym  total        # sym  WBO       # sym  WBO       # sym  WBO
 ---------------------------------------------------------------------------
     1   7 N    3.036 --     2 C    1.961    72 H    0.941
     2   6 C    3.931 --     1 N    1.961     3 C    0.988    47 H    0.908
     3   6 C    3.976 --     2 C    0.988     4 C    0.980    14 C    0.949
                            31 C    0.942
     4   6 C    3.941 --    13 C    1.739     5 C    1.042     3 C    0.980
     5   6 C    3.760 --     6 C    1.512     4 C    1.042    12 C    0.956
                             7 O    0.119
     6   6 C    3.840 --     5 C    1.512     7 O    1.161     9 C    0.977
     7   8 O    2.319 --     6 C    1.161     8 C    0.958     5 C    0.119
     8   6 C    3.919 --    36 H    0.975    35 H    0.975    37 H    0.970
                             7 O    0.958
     9   6 C    3.941 --    10 O    1.010     6 C    0.977    41 H    0.936
                            12 C    0.905
    10   8 O    2.110 --     9 C    1.010    11 C    0.980
    11   6 C    3.934 --    10 O    0.980    39 H    0.976    38 H    0.976
                            40 H    0.976
    12   6 C    3.938 --    13 C    0.992    34 H    0.969     5 C    0.956
                             9 C    0.905
    13   6 C    3.896 --     4 C    1.739    12 C    0.992    42 H    0.961
    14   6 C    3.975 --    15 C    0.986    44 H    0.972    43 H    0.967
                             3 C    0.949
    15   6 C    3.989 --    16 C    1.058    14 C    0.986    45 H    0.961
                            46 H    0.927
    16   6 C    3.570 --    17 N    1.395    15 C    1.058    48 H    0.958
    17   7 N    3.467 --    16 C    1.395    30 C    0.999    18 C    0.988
    18   6 C    3.955 --    17 N    0.988    50 H    0.968    19 C    0.966
                            49 H    0.965
    19   6 C    3.976 --    20 C    1.008    52 H    0.972    51 H    0.972
                            18 C    0.966
    20   6 C    3.944 --    21 C    1.408    29 C    1.380    19 C    1.008
    21   6 C    3.949 --    22 C    1.417    20 C    1.408    53 H    0.968
    22   6 C    3.959 --    21 C    1.417    23 C    1.383    54 H    0.963
    23   6 C    3.895 --    22 C    1.383    26 C    1.219    24 O    1.111
    24   8 O    2.256 --    23 C    1.111    25 C    0.976
    25   6 C    3.928 --    57 H    0.977    24 O    0.976    55 H    0.973
                            56 H    0.972
    26   6 C    3.898 --    29 C    1.395    23 C    1.219    27 O    1.105
    27   8 O    2.255 --    26 C    1.105    28 C    0.978
    28   6 C    3.932 --    27 O    0.978    58 H    0.977    59 H    0.973
                            60 H    0.973
    29   6 C    3.959 --    26 C    1.395    20 C    1.380    61 H    0.962
    30   6 C    3.959 --    17 N    0.999    64 H    0.977    62 H    0.967
                            63 H    0.961
    31   6 C    3.975 --    33 C    1.009    32 C    1.008    65 H    0.961
                             3 C    0.942
    32   6 C    3.979 --    31 C    1.008    68 H    0.981    67 H    0.981
                            66 H    0.974
    33   6 C    3.984 --    31 C    1.009    70 H    0.983    71 H    0.980
                            69 H    0.977
    34   1 H    0.989 --    12 C    0.969
    35   1 H    0.995 --     8 C    0.975
    36   1 H    0.990 --     8 C    0.975
    37   1 H    0.992 --     8 C    0.970
    38   1 H    0.995 --    11 C    0.976
    39   1 H    0.992 --    11 C    0.976
    40   1 H    0.996 --    11 C    0.976
    41   1 H    0.995 --     9 C    0.936
    42   1 H    0.994 --    13 C    0.961
    43   1 H    0.995 --    14 C    0.967
    44   1 H    0.996 --    14 C    0.972
    45   1 H    0.995 --    15 C    0.961
    46   1 H    0.968 --    15 C    0.927
    47   1 H    0.988 --     2 C    0.908
    48   1 H    0.995 --    16 C    0.958
    49   1 H    0.991 --    18 C    0.965
    50   1 H    0.994 --    18 C    0.968
    51   1 H    0.996 --    19 C    0.972
    52   1 H    0.996 --    19 C    0.972
    53   1 H    0.997 --    21 C    0.968
    54   1 H    0.995 --    22 C    0.963
    55   1 H    0.992 --    25 C    0.973
    56   1 H    0.991 --    25 C    0.972
    57   1 H    0.992 --    25 C    0.977
    58   1 H    0.993 --    28 C    0.977
    59   1 H    0.993 --    28 C    0.973
    60   1 H    0.993 --    28 C    0.973
    61   1 H    0.997 --    29 C    0.962
    62   1 H    0.985 --    30 C    0.967
    63   1 H    0.987 --    30 C    0.961
    64   1 H    0.993 --    30 C    0.977
    65   1 H    0.993 --    31 C    0.961
    66   1 H    0.991 --    32 C    0.974
    67   1 H    0.996 --    32 C    0.981
    68   1 H    0.994 --    32 C    0.981
    69   1 H    0.993 --    33 C    0.977
    70   1 H    0.997 --    33 C    0.983
    71   1 H    0.994 --    33 C    0.980
    72   1 H    0.969 --     1 N    0.941
 ---------------------------------------------------------------------------

molecular dipole:
                 x           y           z       tot (Debye)
 q only:        0.772       0.165      -0.770
   full:        1.242      -0.101      -0.886       3.887

           -------------------------------------------------
          | TOTAL ENERGY             -101.924811715860 Eh   |
          | GRADIENT NORM               0.003736699187 Eh/α |
          | HOMO-LUMO GAP               1.598316130609 eV   |
           -------------------------------------------------

 * finished run on 2024/04/06 at 11:16:26.432
