   * xtb version 6.6.1 (8d0f1dd) compiled by 'conda@1efc2f54142f' on 2023-08-01
          program call               : xtb xtbopt.xyz --opt crude --input .xc2 --gfn2

   ID    Z sym.   atoms
    1    7 N      1, 17
    2    6 C      2-6, 8, 9, 11-16, 18-23, 25, 26, 28-33
    3    8 O      7, 10, 24, 27
    4    1 H      34-72
########################################################################
[WARNING] Please study the warnings concerning your input carefully
-1- readin_getIntValue: could not parse ''
########################################################################

          :  Hamiltonian                  GFN2-xTB          :
 * total energy  :   -99.1089744 Eh     change       -0.3723244E-11 Eh
 * total energy  :   -99.2675494 Eh     change       -0.1585750E+00 Eh
 * total energy  :   -99.2697229 Eh     change       -0.2173536E-02 Eh
 * total energy  :   -99.2702872 Eh     change       -0.5642206E-03 Eh
 * total energy  :   -99.2704437 Eh     change       -0.1565293E-03 Eh
   *** GEOMETRY OPTIMIZATION CONVERGED AFTER 5 ITERATIONS ***

 final structure:
================
72
 xtb: 6.6.1 (8d0f1dd)
N           -1.92466225510967        3.24390882062662        2.04236423577630
C           -1.89537621442783        2.32467681480122        1.19812271482831
C           -3.05600129815557        1.94760782997509        0.31806445714748
C           -3.47230269801142        0.56619986429413        0.72188665556752
C           -4.55694754470032       -0.32556574965428        0.25844899143890
C           -4.66754359099509       -1.30371403349086       -0.70157131268110
O           -4.99605080196701       -1.39008895559032       -1.97958501193445
C           -5.33293322166216       -0.18664112759670       -2.64469725358025
C           -4.25944435636407       -2.42667834657521        0.23294853667460
O           -5.19153645021226       -3.42837670239494        0.44616906826843
C           -4.76642607967905       -4.43459582118088        1.33746140319890
C           -4.17041204929165       -1.32135203672130        1.35628746378767
C           -3.01810843995913       -0.36419084793676        1.59736846319681
C           -2.55896559271961        1.95880247408982       -1.15045476935467
C           -1.63564926725538        0.78811336986203       -1.52437977071917
C           -0.27738939568356        0.90270342979445       -0.94741245597455
N            0.43777086319316       -0.10603043726703       -0.46061882990333
C            1.83338447263545        0.07622009154085       -0.13821264855291
C            2.75000296925015       -0.39404804482860       -1.28472096189614
C            4.18819515533586       -0.16508673993217       -0.91371483456358
C            4.79279016450571        1.05833432557860       -1.15319655755159
C            6.10813680679512        1.28530235661462       -0.77933690760695
C            6.84610931033244        0.29106198079865       -0.15285551425237
O            8.12319732757513        0.39998069487066        0.25592125587296
C            8.81066263272662        1.61295445408277        0.05127609610531
C            6.23497556911812       -0.96968486933705        0.09421800138175
O            7.02397462139251       -1.88047269295643        0.69719769875060
C            6.51937985450187       -3.16962107275377        0.95192189909166
C            4.91734971395692       -1.17159884830625       -0.28530309419015
C           -0.10424041598858       -1.43826868021558       -0.34635327521903
C           -4.29785302964230        2.87507850248362        0.45707458009868
C           -4.88599189685960        2.81647087999768        1.86501828525509
C           -4.00148570483084        4.32312036405491        0.07992092507396
H           -4.82516461940130       -1.49657690261495        2.19254514045868
H           -5.79275267050925        0.52002965154514       -1.94948563627612
H           -6.03822723521816       -0.44911086646876       -3.43143250813605
H           -4.44181592469044        0.26084014698048       -3.09345183799475
H           -4.54461006958750       -4.02519903649304        2.32865718336334
H           -5.59049724609921       -5.13971011651173        1.41146156177235
H           -3.87550710478251       -4.94750102129367        0.95653528487186
H           -3.27817494535951       -2.84322487257521       -0.05753216780804
H           -2.21013702608347       -0.39387602495200        2.30519391146719
H           -3.43312825045658        1.92596954309038       -1.80027776968140
H           -2.03896749247020        2.89920700996608       -1.33629204173921
H           -2.10931532043187       -0.15513825141435       -1.25464974759560
H           -1.52952840097382        0.80286827312087       -2.61806092143740
H           -1.00988826073121        1.69322260757368        0.99780430004700
H            0.22943763838627        1.85060588906092       -1.04666887897612
H            2.06846804764210       -0.48632442030500        0.76887147881754
H            2.02473756131439        1.13336218028130        0.05672553700183
H            2.50162649525087        0.16955238280332       -2.18572506165052
H            2.57602538444284       -1.45286813181762       -1.48010595866754
H            4.24339238102861        1.84550334051048       -1.64688903352187
H            6.55359063388761        2.24451002367374       -0.98578378682646
H            8.32256038874337        2.44262052531928        0.57160564278300
H            8.89783345921260        1.84911605201164       -1.01345789474461
H            9.80366475872212        1.45936524175470        0.46919801938553
H            7.33791163445753       -3.71752178839581        1.41451654378027
H            5.67011845667366       -3.13933681478743        1.64214206156975
H            6.22316126215606       -3.67452253975621        0.02721072343625
H            4.44637604535842       -2.12556231890487       -0.10648575993294
H           -0.31179170768536       -1.86775865107796       -1.32922975825188
H           -1.03177672664445       -1.42007366161048        0.23235694380461
H            0.61172526816742       -2.07508834408127        0.16696784984846
H           -5.04954002747990        2.47992029600255       -0.23819108138455
H           -4.17255597654665        3.20562436540453        2.58425332421951
H           -5.14550111128658        1.79739352520507        2.14016760113987
H           -5.78764662828944        3.42159310558219        1.90814064698422
H           -3.21775752002369        4.72193642811677        0.71663553982289
H           -3.70450890938072        4.42109887060789       -0.96098113423817
H           -4.89655513394662        4.92132999771443        0.22792662457576
H           -1.08537466818177        3.41334258251713        2.58779236878096

          :  Hamiltonian                  GFN2-xTB          :
         :: total energy             -99.270443718624 Eh    ::
         :: gradient norm              0.008937397336 Eh/a0 ::
         :: HOMO-LUMO gap              1.611497239553 eV    ::
         :: SCC energy              -100.602186871908 Eh    ::
         :: -> dispersion             -0.073930044725 Eh    ::
         :: repulsion energy           1.330450228613 Eh    ::

    * Orbital Energies and Occupations

         #    Occupation            Energy/Eh            Energy/eV
      -------------------------------------------------------------
         1        2.0000           -0.8321745             -22.6446
       ...           ...                  ...                  ...
        78        1.9983           -0.5301764             -14.4268
        79        1.9983           -0.5300401             -14.4231
        80        1.9979           -0.5270880             -14.3428
        81        1.9970           -0.5214226             -14.1886
        82        1.9963           -0.5179886             -14.0952
        83        1.9954           -0.5146173             -14.0034
        84        1.9948           -0.5126701             -13.9505
        85        1.9921           -0.5058934             -13.7661
        86        1.9784           -0.4898884             -13.3305
        87        1.9610           -0.4804153             -13.0728
        88        1.9408           -0.4736484             -12.8886
        89        1.8414           -0.4572083             -12.4413
        90        1.8379           -0.4568391             -12.4312 (HOMO)
        91        0.4244           -0.3976176             -10.8197 (LUMO)
        92        0.0334           -0.3538359              -9.6284
        93        0.0141           -0.3400208              -9.2524
        94        0.0027           -0.3137779              -8.5383
        95        0.0023           -0.3115257              -8.4770
        96        0.0015           -0.3044182              -8.2836
        97        0.0000           -0.1889841              -5.1425
        98                         -0.1432485              -3.8980
        99                         -0.1390105              -3.7827
       100                         -0.1128685              -3.0713
       101                         -0.0741858              -2.0187
       ...                                ...                  ...
       171                          0.6054345              16.4747
      -------------------------------------------------------------
                  HL-Gap            0.0592214 Eh            1.6115 eV

     #   Z          covCN         q      C6AA      α(0)
     1   7 N        1.774    -0.266    27.725     7.797
     2   6 C        2.832     0.100    25.782     8.321
     3   6 C        3.906     0.010    20.347     6.412
     4   6 C        3.235     0.019    26.729     8.389
     5   6 C        3.594    -0.069    22.483     6.866
     6   6 C        3.109     0.136    24.909     8.177
     7   8 O        1.704    -0.204    17.391     5.631
     8   6 C        3.658     0.022    20.495     6.497
     9   6 C        4.004     0.118    18.583     6.124
    10   8 O        1.702    -0.279    18.632     5.828
    11   6 C        3.655     0.032    20.338     6.475
    12   6 C        4.381    -0.050    21.387     6.568
    13   6 C        3.290    -0.063    27.852     8.471
    14   6 C        3.810    -0.065    21.745     6.638
    15   6 C        3.802    -0.065    21.749     6.640
    16   6 C        2.844     0.003    27.958     8.666
    17   7 N        2.729     0.010    21.092     6.821
    18   6 C        3.756    -0.017    20.924     6.522
    19   6 C        3.808    -0.070    21.838     6.652
    20   6 C        2.969    -0.000    28.033     8.685
    21   6 C        2.922    -0.049    29.209     8.863
    22   6 C        2.914    -0.067    29.677     8.933
    23   6 C        2.865     0.134    25.074     8.208
    24   8 O        1.706    -0.221    17.668     5.675
    25   6 C        3.645     0.025    20.493     6.506
    26   6 C        2.863     0.133    25.083     8.209
    27   8 O        1.706    -0.224    17.715     5.683
    28   6 C        3.645     0.027    20.456     6.501
    29   6 C        2.919    -0.079    29.987     8.980
    30   6 C        3.700    -0.068    21.963     6.702
    31   6 C        3.855    -0.006    20.643     6.462
    32   6 C        3.756    -0.120    22.846     6.815
    33   6 C        3.755    -0.120    22.847     6.815
    34   1 H        0.926     0.061     2.188     2.313
    35   1 H        0.924     0.065     2.142     2.289
    36   1 H        0.925     0.089     1.890     2.150
    37   1 H        0.924     0.058     2.218     2.329
    38   1 H        0.924     0.043     2.407     2.426
    39   1 H        0.925     0.081     1.972     2.196
    40   1 H        0.924     0.038     2.472     2.459
    41   1 H        0.922     0.024     2.672     2.556
    42   1 H        0.926     0.035     2.512     2.479
    43   1 H        0.925     0.060     2.203     2.321
    44   1 H        0.924     0.056     2.241     2.341
    45   1 H        0.925     0.060     2.205     2.322
    46   1 H        0.923     0.076     2.017     2.221
    47   1 H        0.922     0.005     2.976     2.698
    48   1 H        0.926     0.070     2.088     2.260
    49   1 H        0.924     0.068     2.108     2.270
    50   1 H        0.924     0.068     2.106     2.270
    51   1 H        0.924     0.055     2.260     2.351
    52   1 H        0.924     0.055     2.257     2.349
    53   1 H        0.926     0.045     2.382     2.414
    54   1 H        0.926     0.059     2.212     2.326
    55   1 H        0.924     0.054     2.266     2.354
    56   1 H        0.924     0.056     2.241     2.341
    57   1 H        0.925     0.083     1.950     2.184
    58   1 H        0.925     0.082     1.955     2.187
    59   1 H        0.924     0.049     2.334     2.389
    60   1 H        0.924     0.053     2.286     2.364
    61   1 H        0.926     0.047     2.354     2.399
    62   1 H        0.924     0.074     2.042     2.235
    63   1 H        0.924     0.075     2.032     2.229
    64   1 H        0.925     0.081     1.970     2.195
    65   1 H        0.924     0.036     2.507     2.476
    66   1 H        0.925     0.068     2.103     2.268
    67   1 H        0.925     0.040     2.445     2.445
    68   1 H        0.925     0.053     2.288     2.365
    69   1 H        0.925     0.063     2.167     2.302
    70   1 H        0.925     0.034     2.528     2.486
    71   1 H        0.925     0.056     2.249     2.345
    72   1 H        0.860     0.159     1.341     1.814

Wiberg/Mayer (AO) data.
largest (>0.10) Wiberg bond orders for each atom

     #   Z sym  total        # sym  WBO       # sym  WBO       # sym  WBO
 ---------------------------------------------------------------------------
     1   7 N    3.035 --     2 C    1.961    72 H    0.941
     2   6 C    3.932 --     1 N    1.961     3 C    0.988    47 H    0.908
     3   6 C    3.976 --     2 C    0.988     4 C    0.980    14 C    0.949
                            31 C    0.942
     4   6 C    3.940 --    13 C    1.733     5 C    1.043     3 C    0.980
     5   6 C    3.764 --     6 C    1.516     4 C    1.043    12 C    0.957
                             7 O    0.120
     6   6 C    3.842 --     5 C    1.516     7 O    1.161     9 C    0.974
     7   8 O    2.319 --     6 C    1.161     8 C    0.958     5 C    0.120
     8   6 C    3.919 --    36 H    0.975    35 H    0.975    37 H    0.970
                             7 O    0.958
     9   6 C    3.943 --    10 O    1.010     6 C    0.974    41 H    0.936
                            12 C    0.914
    10   8 O    2.108 --     9 C    1.010    11 C    0.980
    11   6 C    3.934 --    10 O    0.980    39 H    0.976    38 H    0.976
                            40 H    0.975
    12   6 C    3.935 --    13 C    0.998     5 C    0.957    34 H    0.957
                             9 C    0.914
    13   6 C    3.896 --     4 C    1.733    12 C    0.998    42 H    0.961
    14   6 C    3.974 --    15 C    0.986    44 H    0.972    43 H    0.967
                             3 C    0.949
    15   6 C    3.988 --    16 C    1.058    14 C    0.986    45 H    0.961
                            46 H    0.927
    16   6 C    3.570 --    17 N    1.395    15 C    1.058    48 H    0.958
    17   7 N    3.467 --    16 C    1.395    30 C    0.999    18 C    0.988
    18   6 C    3.955 --    17 N    0.988    50 H    0.968    19 C    0.966
                            49 H    0.965
    19   6 C    3.976 --    20 C    1.008    52 H    0.972    51 H    0.972
                            18 C    0.966
    20   6 C    3.944 --    21 C    1.408    29 C    1.380    19 C    1.008
    21   6 C    3.949 --    22 C    1.417    20 C    1.408    53 H    0.968
    22   6 C    3.959 --    21 C    1.417    23 C    1.383    54 H    0.963
    23   6 C    3.895 --    22 C    1.383    26 C    1.219    24 O    1.111
    24   8 O    2.256 --    23 C    1.111    25 C    0.976
    25   6 C    3.928 --    57 H    0.977    24 O    0.976    55 H    0.973
                            56 H    0.972
    26   6 C    3.898 --    29 C    1.394    23 C    1.219    27 O    1.105
    27   8 O    2.255 --    26 C    1.105    28 C    0.978
    28   6 C    3.932 --    27 O    0.978    58 H    0.977    59 H    0.973
                            60 H    0.973
    29   6 C    3.959 --    26 C    1.394    20 C    1.380    61 H    0.962
    30   6 C    3.959 --    17 N    0.999    64 H    0.977    62 H    0.967
                            63 H    0.961
    31   6 C    3.975 --    33 C    1.009    32 C    1.008    65 H    0.961
                             3 C    0.942
    32   6 C    3.979 --    31 C    1.008    68 H    0.981    67 H    0.981
                            66 H    0.974
    33   6 C    3.984 --    31 C    1.009    70 H    0.983    71 H    0.980
                            69 H    0.977
    34   1 H    0.994 --    12 C    0.957
    35   1 H    0.995 --     8 C    0.975
    36   1 H    0.991 --     8 C    0.975
    37   1 H    0.992 --     8 C    0.970
    38   1 H    0.995 --    11 C    0.976
    39   1 H    0.992 --    11 C    0.976
    40   1 H    0.996 --    11 C    0.975
    41   1 H    0.995 --     9 C    0.936
    42   1 H    0.995 --    13 C    0.961
    43   1 H    0.995 --    14 C    0.967
    44   1 H    0.996 --    14 C    0.972
    45   1 H    0.995 --    15 C    0.961
    46   1 H    0.968 --    15 C    0.927
    47   1 H    0.987 --     2 C    0.908
    48   1 H    0.995 --    16 C    0.958
    49   1 H    0.991 --    18 C    0.965
    50   1 H    0.994 --    18 C    0.968
    51   1 H    0.996 --    19 C    0.972
    52   1 H    0.996 --    19 C    0.972
    53   1 H    0.997 --    21 C    0.968
    54   1 H    0.995 --    22 C    0.963
    55   1 H    0.992 --    25 C    0.973
    56   1 H    0.991 --    25 C    0.972
    57   1 H    0.992 --    25 C    0.977
    58   1 H    0.993 --    28 C    0.977
    59   1 H    0.993 --    28 C    0.973
    60   1 H    0.993 --    28 C    0.973
    61   1 H    0.997 --    29 C    0.962
    62   1 H    0.985 --    30 C    0.967
    63   1 H    0.987 --    30 C    0.961
    64   1 H    0.993 --    30 C    0.977
    65   1 H    0.993 --    31 C    0.961
    66   1 H    0.991 --    32 C    0.974
    67   1 H    0.996 --    32 C    0.981
    68   1 H    0.994 --    32 C    0.981
    69   1 H    0.993 --    33 C    0.977
    70   1 H    0.997 --    33 C    0.983
    71   1 H    0.994 --    33 C    0.980
    72   1 H    0.969 --     1 N    0.941
 ---------------------------------------------------------------------------

molecular dipole:
                 x           y           z       tot (Debye)
 q only:        0.829       0.193      -0.816
   full:        1.280      -0.082      -0.915       4.005

           -------------------------------------------------
          | TOTAL ENERGY              -99.270443718624 Eh   |
          | GRADIENT NORM               0.008937397336 Eh/α |
          | HOMO-LUMO GAP               1.611497239553 eV   |
           -------------------------------------------------

 * finished run on 2024/04/06 at 11:16:27.542
