   * xtb version 6.6.1 (8d0f1dd) compiled by 'conda@1efc2f54142f' on 2023-08-01
          program call               : xtb struc.xyz --opt loose --input .xc1 --gfn2

   ID    Z sym.   atoms
    1    7 N      1, 17
    2    6 C      2-6, 8, 9, 11-16, 18-23, 25, 26, 28-33
    3    8 O      7, 10, 24, 27
    4    1 H      34-72
constraining bond 47 72 to    4.2800000 Å, actual value:    2.3942616 Å

          :  Hamiltonian                  GFN2-xTB          :
 * total energy  :   -98.7691940 Eh     change       -0.4035485E-08 Eh
 * total energy  :   -99.0256656 Eh     change       -0.2564716E+00 Eh
 * total energy  :   -99.1955151 Eh     change       -0.1698495E+00 Eh
 * total energy  :   -99.2659879 Eh     change       -0.7047283E-01 Eh
 * total energy  :   -99.2861122 Eh     change       -0.2012421E-01 Eh
 * total energy  :   -99.2986635 Eh     change       -0.1255135E-01 Eh
 * total energy  :   -99.3190587 Eh     change       -0.2039515E-01 Eh
 * total energy  :   -99.3333344 Eh     change       -0.1427571E-01 Eh
 * total energy  :   -99.3400442 Eh     change       -0.6709864E-02 Eh
 * total energy  :   -99.3490579 Eh     change       -0.9013660E-02 Eh
 * total energy  :   -99.3864450 Eh     change       -0.1407446E-03 Eh
 * total energy  :   -99.3865542 Eh     change       -0.1092254E-03 Eh
 * total energy  :   -99.3866848 Eh     change       -0.1306483E-03 Eh
 * total energy  :   -99.3867858 Eh     change       -0.1009922E-03 Eh
 * total energy  :   -99.3868988 Eh     change       -0.1129309E-03 Eh
 * total energy  :   -99.3869911 Eh     change       -0.9234394E-04 Eh
 * total energy  :   -99.3870283 Eh     change       -0.3720251E-04 Eh
 * total energy  :   -99.3870941 Eh     change       -0.6576029E-04 Eh
 * total energy  :   -99.3871267 Eh     change       -0.3264519E-04 Eh
   *** GEOMETRY OPTIMIZATION CONVERGED AFTER 45 ITERATIONS ***

 final structure:
================
72
 xtb: 6.6.1 (8d0f1dd)
N           -1.55944580493797        2.78297744536285        2.38595967855734
C           -2.34718290687390        2.46959573111566        1.54187193934275
C           -3.14645491344921        2.06353685526420        0.43655055552924
C           -3.57611919826778        0.60378565152861        0.53810195251185
C           -4.36812485945449        0.05956479080217       -0.47286568212835
C           -4.77263544273468       -1.26399506440359       -0.43030291859853
O           -5.53739301732772       -1.87336661008235       -1.35948954867895
C           -6.03556793524539       -1.12252013547473       -2.44163139489867
C           -4.36951998668465       -2.08342416215846        0.65854789015574
O           -4.80035536453229       -3.35887044394503        0.61190112199553
C           -4.46707006673489       -4.23368416579335        1.66482428878047
C           -3.58835014747160       -1.52809103591985        1.65908026461513
C           -3.19704220024431       -0.19684660039176        1.60056478445992
C           -2.32864198284315        2.32231789944173       -0.87103564163209
C           -1.47771668656973        1.15232107542400       -1.36297793823893
C           -0.38660691969236        0.71368109949054       -0.38255215767920
N            0.57402775392979       -0.14943802909932       -1.03391257969095
C            1.91219896920195       -0.15081767304887       -0.48496667292957
C            2.95995901204326       -0.36074640180200       -1.59400855073072
C            4.34791498199681       -0.14888091265434       -1.06529891995228
C            4.98837455102719        1.07214375841756       -1.21559992466610
C            6.26827581277107        1.27155897034857       -0.72271009574464
C            6.93663348383822        0.25147553357892       -0.05998805586346
O            8.18100836070348        0.32819979758297        0.45028432887991
C            8.92146298453999        1.51411117027983        0.27893231439717
C            6.28481922847627       -1.00175003485718        0.11102388659071
O            7.00327883306632       -1.93580269655995        0.76658036946634
C            6.45746330734503       -3.21985650679824        0.95170174676009
C            5.00551226525700       -1.17666666654305       -0.39359814960246
C            0.05064574333682       -1.46190025305387       -1.33152939607543
C           -4.43674481128051        2.97344060580910        0.46011662745779
C           -5.25757463065650        2.70005645230465        1.71736207329089
C           -4.10353957285881        4.45864572556131        0.35800662980988
H           -4.66839584267418        0.67698715652741       -1.30327918789916
H           -6.66007455004547       -0.29132029421851       -2.09960759991088
H           -6.64456029410008       -1.81404289382887       -3.02030220709059
H           -5.22731453467038       -0.73971597612954       -3.07330401242951
H           -4.86320523300537       -3.87972069854880        2.62131541927346
H           -4.93187567418365       -5.18455329040405        1.41197376635558
H           -3.38411259428885       -4.37025492984533        1.74546398791726
H           -3.27675530996485       -2.12425247598290        2.50094775206073
H           -2.59458528070841        0.20566745581817        2.40071867955875
H           -3.03969146628104        2.57418038617342       -1.65880453176348
H           -1.68480101237962        3.18951312948111       -0.71496505418631
H           -2.12083601450507        0.30418920383472       -1.59490401866704
H           -0.98899807714469        1.46700475628553       -2.28721243233976
H           -0.84965950416219        0.19832706157965        0.47405347189393
H            0.13597326374998        1.59932822481906       -0.01496242886730
H            2.03651766971471       -0.92411364949089        0.28811084912768
H            2.10141565982651        0.81866193275694       -0.01987976523608
H            2.75218936233228        0.35032237611044       -2.39397149832567
H            2.87197845458506       -1.36850603609168       -2.00110424319070
H            4.49192621472464        1.87807220887825       -1.73397580547847
H            6.74242364166147        2.22894902834028       -0.86511361590023
H            8.44544543334776        2.36059449062002        0.78322350559124
H            9.05900320748272        1.75064889114858       -0.78035797433282
H            9.89067609101565        1.32172568999294        0.73480387885612
H            7.22094978932858       -3.78860003668392        1.47908033372992
H            5.54766871010600       -3.18539630973602        1.55933166034982
H            6.24055733191247       -3.70506712279898       -0.00485637799118
H            4.50675795280641       -2.12640249796489       -0.27994281125005
H           -0.70963434978532       -1.38950300585233       -2.10900843501430
H           -0.40125994836642       -1.93374858497501       -0.44637292574678
H            0.84784942812253       -2.10339972424056       -1.69820153859551
H           -5.03254587547719        2.69004566877491       -0.41137904943687
H           -4.69782843788844        2.96276202664695        2.61293635629988
H           -5.53875896048226        1.65199553269650        1.78301944783262
H           -6.16622775182678        3.29630674198589        1.69874579721206
H           -3.52180713956991        4.79119152887904        1.21532372717188
H           -3.54995451047041        4.68998756882690       -0.54747614676863
H           -5.02758225551396        5.03159257681669        0.33781668554730
H           -1.53984083583549        3.48392824259469        3.11443835878014

          :  Hamiltonian                  GFN2-xTB          :
         :: total energy             -99.387126707554 Eh    ::
         :: gradient norm              0.001732695813 Eh/a0 ::
         :: HOMO-LUMO gap              1.457133337213 eV    ::
         :: SCC energy              -100.775572872863 Eh    ::
         :: -> dispersion             -0.073172563372 Eh    ::
         :: repulsion energy           1.387133837711 Eh    ::

    * Orbital Energies and Occupations

         #    Occupation            Energy/Eh            Energy/eV
      -------------------------------------------------------------
         1        2.0000           -0.8085293             -22.0012
       ...           ...                  ...                  ...
        78        1.9990           -0.5333301             -14.5127
        79        1.9989           -0.5312767             -14.4568
        80        1.9988           -0.5293526             -14.4044
        81        1.9985           -0.5260632             -14.3149
        82        1.9980           -0.5222707             -14.2117
        83        1.9978           -0.5205194             -14.1641
        84        1.9973           -0.5172369             -14.0747
        85        1.9956           -0.5093015             -13.8588
        86        1.9869           -0.4920688             -13.3899
        87        1.9694           -0.4784856             -13.0203
        88        1.9101           -0.4609194             -12.5423
        89        1.8532           -0.4526760             -12.3179
        90        1.7755           -0.4452676             -12.1163 (HOMO)
        91        0.4237           -0.3917189             -10.6592 (LUMO)
        92        0.0906           -0.3642554              -9.9119
        93        0.0052           -0.3184174              -8.6646
        94        0.0042           -0.3150821              -8.5738
        95        0.0019           -0.3023849              -8.2283
        96        0.0016           -0.2996975              -8.1552
        97        0.0000           -0.1922486              -5.2313
        98        0.0000           -0.1773032              -4.8247
        99                         -0.0974585              -2.6520
       100                         -0.0941157              -2.5610
       101                         -0.0864000              -2.3511
       ...                                ...                  ...
       171                          0.8476604              23.0660
      -------------------------------------------------------------
                  HL-Gap            0.0535487 Eh            1.4571 eV

     #   Z          covCN         q      C6AA      α(0)
     1   7 N        1.771    -0.158    25.186     7.431
     2   6 C        1.927     0.121    28.128     8.565
     3   6 C        3.902     0.028    20.043     6.364
     4   6 C        2.976     0.005    27.903     8.665
     5   6 C        2.920    -0.078    29.951     8.975
     6   6 C        2.863     0.131    25.140     8.219
     7   8 O        1.706    -0.230    17.814     5.699
     8   6 C        3.645     0.028    20.444     6.499
     9   6 C        2.864     0.131    25.126     8.216
    10   8 O        1.706    -0.228    17.777     5.693
    11   6 C        3.645     0.027    20.459     6.501
    12   6 C        2.915    -0.071    29.771     8.947
    13   6 C        2.920    -0.051    29.264     8.871
    14   6 C        3.812    -0.058    21.615     6.618
    15   6 C        3.801    -0.071    21.863     6.657
    16   6 C        3.752    -0.002    20.671     6.484
    17   7 N        2.728    -0.124    23.700     7.230
    18   6 C        3.751     0.003    20.581     6.470
    19   6 C        3.809    -0.072    21.870     6.657
    20   6 C        2.968     0.008    27.832     8.653
    21   6 C        2.922    -0.046    29.140     8.852
    22   6 C        2.913    -0.067    29.661     8.931
    23   6 C        2.865     0.133    25.094     8.211
    24   8 O        1.706    -0.222    17.682     5.677
    25   6 C        3.645     0.026    20.479     6.504
    26   6 C        2.862     0.133    25.082     8.209
    27   8 O        1.706    -0.224    17.718     5.683
    28   6 C        3.645     0.027    20.451     6.500
    29   6 C        2.920    -0.077    29.915     8.969
    30   6 C        3.705    -0.046    21.553     6.637
    31   6 C        3.862    -0.010    20.706     6.471
    32   6 C        3.755    -0.113    22.717     6.796
    33   6 C        3.754    -0.116    22.775     6.805
    34   1 H        0.926     0.052     2.292     2.367
    35   1 H        0.924     0.051     2.310     2.377
    36   1 H        0.925     0.082     1.963     2.191
    37   1 H        0.924     0.048     2.346     2.395
    38   1 H        0.924     0.054     2.276     2.359
    39   1 H        0.925     0.081     1.966     2.193
    40   1 H        0.924     0.050     2.322     2.383
    41   1 H        0.926     0.055     2.256     2.349
    42   1 H        0.926     0.039     2.468     2.457
    43   1 H        0.924     0.065     2.146     2.291
    44   1 H        0.924     0.052     2.295     2.369
    45   1 H        0.925     0.052     2.297     2.370
    46   1 H        0.924     0.064     2.154     2.295
    47   1 H        0.923     0.028     2.608     2.526
    48   1 H        0.924     0.045     2.386     2.416
    49   1 H        0.923     0.033     2.546     2.496
    50   1 H        0.924     0.046     2.376     2.410
    51   1 H        0.924     0.061     2.192     2.315
    52   1 H        0.924     0.053     2.289     2.366
    53   1 H        0.926     0.050     2.317     2.381
    54   1 H        0.926     0.057     2.231     2.336
    55   1 H        0.924     0.054     2.269     2.356
    56   1 H        0.924     0.056     2.249     2.345
    57   1 H        0.925     0.081     1.966     2.193
    58   1 H        0.925     0.081     1.973     2.197
    59   1 H        0.924     0.050     2.318     2.381
    60   1 H        0.924     0.054     2.276     2.359
    61   1 H        0.926     0.050     2.315     2.379
    62   1 H        0.925     0.054     2.273     2.358
    63   1 H        0.923     0.031     2.573     2.508
    64   1 H        0.925     0.059     2.210     2.325
    65   1 H        0.924     0.056     2.250     2.346
    66   1 H        0.925     0.038     2.471     2.458
    67   1 H        0.925     0.047     2.360     2.403
    68   1 H        0.925     0.060     2.204     2.322
    69   1 H        0.925     0.038     2.482     2.464
    70   1 H        0.925     0.047     2.357     2.401
    71   1 H        0.925     0.061     2.187     2.312
    72   1 H        0.860     0.232     0.957     1.533

Wiberg/Mayer (AO) data.
largest (>0.10) Wiberg bond orders for each atom

     #   Z sym  total        # sym  WBO       # sym  WBO       # sym  WBO
 ---------------------------------------------------------------------------
     1   7 N    3.238 --     2 C    2.217    72 H    0.882
     2   6 C    3.437 --     1 N    2.217     3 C    1.106
     3   6 C    3.973 --     2 C    1.106     4 C    0.943    14 C    0.916
                            31 C    0.883
     4   6 C    3.940 --    13 C    1.424     5 C    1.367     3 C    0.943
     5   6 C    3.966 --     6 C    1.401     4 C    1.367    34 H    0.958
     6   6 C    3.913 --     5 C    1.401     9 C    1.224     7 O    1.099
     7   8 O    2.260 --     6 C    1.099     8 C    0.978
     8   6 C    3.933 --     7 O    0.978    36 H    0.977    35 H    0.974
                            37 H    0.974
     9   6 C    3.913 --    12 C    1.395     6 C    1.224    10 O    1.105
    10   8 O    2.262 --     9 C    1.105    11 C    0.977
    11   6 C    3.931 --    39 H    0.977    10 O    0.977    40 H    0.974
                            38 H    0.974
    12   6 C    3.967 --    13 C    1.403     9 C    1.395    41 H    0.963
    13   6 C    3.963 --     4 C    1.424    12 C    1.403    42 H    0.964
    14   6 C    3.970 --    15 C    1.009    44 H    0.973    43 H    0.966
                             3 C    0.916
    15   6 C    3.985 --    14 C    1.009    16 C    0.997    45 H    0.969
                            46 H    0.969
    16   6 C    3.976 --    17 N    1.007    15 C    0.997    48 H    0.969
                            47 H    0.953
    17   7 N    3.101 --    30 C    1.017    16 C    1.007    18 C    1.006
    18   6 C    3.967 --    17 N    1.006    19 C    0.974    50 H    0.971
                            49 H    0.959
    19   6 C    3.981 --    20 C    1.014    18 C    0.974    51 H    0.971
                            52 H    0.965
    20   6 C    3.933 --    21 C    1.398    29 C    1.382    19 C    1.014
    21   6 C    3.935 --    22 C    1.420    20 C    1.398    53 H    0.967
    22   6 C    3.954 --    21 C    1.420    23 C    1.380    54 H    0.963
    23   6 C    3.880 --    22 C    1.380    26 C    1.216    24 O    1.108
    24   8 O    2.244 --    23 C    1.108    25 C    0.977
    25   6 C    3.929 --    24 O    0.977    57 H    0.977    56 H    0.972
                            55 H    0.972
    26   6 C    3.886 --    29 C    1.393    23 C    1.216    27 O    1.103
    27   8 O    2.246 --    26 C    1.103    28 C    0.979
    28   6 C    3.931 --    27 O    0.979    58 H    0.977    59 H    0.973
                            60 H    0.973
    29   6 C    3.955 --    26 C    1.393    20 C    1.382    61 H    0.962
    30   6 C    3.973 --    17 N    1.017    64 H    0.978    62 H    0.976
                            63 H    0.966
    31   6 C    3.941 --    33 C    1.012    32 C    1.012    65 H    0.957
                             3 C    0.883
    32   6 C    3.991 --    31 C    1.012    66 H    0.984    67 H    0.982
                            68 H    0.981
    33   6 C    3.990 --    31 C    1.012    69 H    0.984    70 H    0.983
                            71 H    0.980
    34   1 H    0.996 --     5 C    0.958
    35   1 H    0.995 --     8 C    0.974
    36   1 H    0.993 --     8 C    0.977
    37   1 H    0.995 --     8 C    0.974
    38   1 H    0.994 --    11 C    0.974
    39   1 H    0.993 --    11 C    0.977
    40   1 H    0.994 --    11 C    0.974
    41   1 H    0.995 --    12 C    0.963
    42   1 H    0.998 --    13 C    0.964
    43   1 H    0.994 --    14 C    0.966
    44   1 H    0.996 --    14 C    0.973
    45   1 H    0.997 --    15 C    0.969
    46   1 H    0.994 --    15 C    0.969
    47   1 H    0.983 --    16 C    0.953
    48   1 H    0.997 --    16 C    0.969
    49   1 H    0.982 --    18 C    0.959
    50   1 H    0.997 --    18 C    0.971
    51   1 H    0.994 --    19 C    0.971
    52   1 H    0.994 --    19 C    0.965
    53   1 H    0.997 --    21 C    0.967
    54   1 H    0.995 --    22 C    0.963
    55   1 H    0.991 --    25 C    0.972
    56   1 H    0.991 --    25 C    0.972
    57   1 H    0.993 --    25 C    0.977
    58   1 H    0.993 --    28 C    0.977
    59   1 H    0.992 --    28 C    0.973
    60   1 H    0.992 --    28 C    0.973
    61   1 H    0.996 --    29 C    0.962
    62   1 H    0.992 --    30 C    0.976
    63   1 H    0.982 --    30 C    0.966
    64   1 H    0.996 --    30 C    0.978
    65   1 H    0.993 --    31 C    0.957
    66   1 H    0.998 --    32 C    0.984
    67   1 H    0.997 --    32 C    0.982
    68   1 H    0.995 --    32 C    0.981
    69   1 H    0.998 --    33 C    0.984
    70   1 H    0.997 --    33 C    0.983
    71   1 H    0.995 --    33 C    0.980
    72   1 H    0.905 --     1 N    0.882
 ---------------------------------------------------------------------------

molecular dipole:
                 x           y           z       tot (Debye)
 q only:       -0.711       1.492       0.474
   full:       -0.897       1.694       0.789       5.268

           -------------------------------------------------
          | TOTAL ENERGY              -99.387126707554 Eh   |
          | GRADIENT NORM               0.001732695813 Eh/α |
          | HOMO-LUMO GAP               1.457133337213 eV   |
           -------------------------------------------------

 * finished run on 2024/04/06 at 11:15:11.146
