   * xtb version 6.6.1 (8d0f1dd) compiled by 'conda@1efc2f54142f' on 2023-08-01
          program call               : xtb xtbopt.xyz --opt crude --input .xc2 --gfn2

   ID    Z sym.   atoms
    1    7 N      1, 17
    2    6 C      2-6, 8, 9, 11-16, 18-23, 25, 26, 28-33
    3    8 O      7, 10, 24, 27
    4    1 H      34-72
########################################################################
[WARNING] Please study the warnings concerning your input carefully
-1- readin_getIntValue: could not parse ''
########################################################################

          :  Hamiltonian                  GFN2-xTB          :
 * total energy  :   -99.3871405 Eh     change        0.1989520E-12 Eh
 * total energy  :   -99.3872989 Eh     change       -0.1583497E-03 Eh
   *** GEOMETRY OPTIMIZATION CONVERGED AFTER 2 ITERATIONS ***

 final structure:
================
72
 xtb: 6.6.1 (8d0f1dd)
N           -1.55025949051003        2.76362439386783        2.37758334221230
C           -2.34428191523359        2.46568337019515        1.53472457496537
C           -3.14819953799009        2.06303251273311        0.43256241684330
C           -3.57761651829253        0.60354425698328        0.53578953418755
C           -4.36995638418384        0.05884975337423       -0.47448465579086
C           -4.77380399405455       -1.26478237489621       -0.43101743627406
O           -5.53815823407978       -1.87491178616079       -1.35990010702717
C           -6.03578642733370       -1.12461668912591       -2.44262821084298
C           -4.37046071262554       -2.08360222712606        0.65820055582345
O           -4.80090960902577       -3.35918623265277        0.61197810029686
C           -4.46789659311831       -4.23355265802322        1.66534368775939
C           -3.58937661978048       -1.52753079637799        1.65843794236189
C           -3.19827797538175       -0.19629655163532        1.59888055019195
C           -2.33074430333500        2.32289619337038       -0.87484491086490
C           -1.47782558853347        1.15290903056403       -1.36238059228926
C           -0.38557275317060        0.72127370767243       -0.37988376054817
N            0.57292222980041       -0.14693087721337       -1.02951610741855
C            1.91243792867211       -0.14876638155591       -0.48338834314484
C            2.95912452755772       -0.36020000675091       -1.59332693486291
C            4.34754950269643       -0.14877853061002       -1.06551128850979
C            4.98800914033445        1.07241121060622       -1.21517456417972
C            6.26800522549749        1.27157023581765       -0.72246524589218
C            6.93647602500640        0.25125870328996       -0.06028949896053
O            8.18090356576426        0.32789065839484        0.44977255507968
C            8.92092366723010        1.51428081011913        0.27960726838259
C            6.28474335136121       -1.00201895891031        0.11027956520015
O            7.00314000710139       -1.93613533096710        0.76572179266319
C            6.45703319047247       -3.22002609338427        0.95126092856679
C            5.00542993366841       -1.17687913842224       -0.39440312241656
C            0.04937380722276       -1.45960166870451       -1.32599343728669
C           -4.43742237500108        2.97410038531235        0.45973675694857
C           -5.25719673292385        2.70019599024447        1.71753377931347
C           -4.10301710118257        4.45912629039624        0.35888851674787
H           -4.67041229839121        0.67580341183824       -1.30521897282924
H           -6.66044644355961       -0.29325395184027       -2.10131103663725
H           -6.64448676284669       -1.81640634099575       -3.02128812246578
H           -5.22725618872112       -0.74206425925409       -3.07407059989420
H           -4.86452851074161       -3.87932971475228        2.62150100174830
H           -4.93242994046711       -5.18458221463231        1.41262355797356
H           -3.38494948586701       -4.36981819538173        1.74636687135863
H           -3.27759607712314       -2.12314050950709        2.50066366596874
H           -2.59588379744175        0.20695050282270        2.39882115631180
H           -3.04162521785900        2.57289699667826       -1.66323611611802
H           -1.68786000895906        3.19089851593181       -0.71909120063863
H           -2.12009536205610        0.30320879417140       -1.59031017648831
H           -0.98995791306008        1.46367526371723       -2.28840202358075
H           -0.84801784814439        0.22009244005089        0.48620195532738
H            0.13917614087149        1.60922418749202       -0.02133662714422
H            2.03744561485770       -0.92185627050673        0.28991621130556
H            2.10334632961735        0.82103994651204       -0.01952244458853
H            2.75111109786769        0.35032727730619       -2.39351794928672
H            2.87067441643056       -1.36800519257908       -2.00000879317513
H            4.49141261315057        1.87872056960025       -1.73283230224197
H            6.74211008019252        2.22904484539132       -0.86444171242341
H            8.44386419256314        2.36040753585123        0.78371348111305
H            9.05942363031606        1.75108440973633       -0.77956079002016
H            9.88989144925540        1.32225773895563        0.73642702735740
H            7.22036429306450       -3.78873486578749        1.47892163066859
H            5.54715009776356       -3.18519845675896        1.55884909483067
H            6.24011301921053       -3.70556804113384       -0.00517830445573
H            4.50687526235916       -2.12677221198902       -0.28122324801627
H           -0.71378636412441       -1.38794080319141       -2.09943032232040
H           -0.39802107066983       -1.93337308878509       -0.44005759815834
H            0.84467300834966       -2.09934893192943       -1.69769977942978
H           -5.03440704312195        2.69210156071443       -0.41135229444664
H           -4.69716455279788        2.96326542715818        2.61283042835891
H           -5.53778285891277        1.65196397302986        1.78335527663685
H           -6.16621038946341        3.29583951919820        1.69947666153695
H           -3.51928407423053        4.79001279338818        1.21533492848133
H           -3.55123372855926        4.69107544050775       -0.54750826867130
H           -5.02637683656715        5.03295099285850        0.34128806532988
H           -1.52061211175383        3.45785922821213        3.11047886011534

          :  Hamiltonian                  GFN2-xTB          :
         :: total energy             -99.387298883818 Eh    ::
         :: gradient norm              0.002043695109 Eh/a0 ::
         :: HOMO-LUMO gap              1.458079490399 eV    ::
         :: SCC energy              -100.776588881170 Eh    ::
         :: -> dispersion             -0.073192066297 Eh    ::
         :: repulsion energy           1.387990022561 Eh    ::

    * Orbital Energies and Occupations

         #    Occupation            Energy/Eh            Energy/eV
      -------------------------------------------------------------
         1        2.0000           -0.8085380             -22.0014
       ...           ...                  ...                  ...
        78        1.9990           -0.5333126             -14.5122
        79        1.9989           -0.5313042             -14.4575
        80        1.9988           -0.5293842             -14.4053
        81        1.9985           -0.5260260             -14.3139
        82        1.9981           -0.5222866             -14.2121
        83        1.9978           -0.5205214             -14.1641
        84        1.9973           -0.5172350             -14.0747
        85        1.9956           -0.5092731             -13.8580
        86        1.9870           -0.4920935             -13.3905
        87        1.9695           -0.4784585             -13.0195
        88        1.9104           -0.4609089             -12.5420
        89        1.8534           -0.4526408             -12.3170
        90        1.7758           -0.4452299             -12.1153 (HOMO)
        91        0.4234           -0.3916464             -10.6572 (LUMO)
        92        0.0899           -0.3640744              -9.9070
        93        0.0053           -0.3184288              -8.6649
        94        0.0043           -0.3150976              -8.5742
        95        0.0019           -0.3023567              -8.2275
        96        0.0016           -0.2996746              -8.1546
        97        0.0000           -0.1922472              -5.2313
        98        0.0000           -0.1772857              -4.8242
        99                         -0.0974578              -2.6520
       100                         -0.0932304              -2.5369
       101                         -0.0865023              -2.3538
       ...                                ...                  ...
       171                          0.8503521              23.1393
      -------------------------------------------------------------
                  HL-Gap            0.0535834 Eh            1.4581 eV

     #   Z          covCN         q      C6AA      α(0)
     1   7 N        1.771    -0.158    25.186     7.431
     2   6 C        1.928     0.121    28.120     8.564
     3   6 C        3.902     0.028    20.044     6.364
     4   6 C        2.976     0.005    27.904     8.665
     5   6 C        2.920    -0.078    29.951     8.975
     6   6 C        2.863     0.131    25.140     8.219
     7   8 O        1.706    -0.230    17.813     5.698
     8   6 C        3.645     0.028    20.444     6.499
     9   6 C        2.864     0.131    25.126     8.216
    10   8 O        1.706    -0.228    17.777     5.693
    11   6 C        3.645     0.027    20.459     6.501
    12   6 C        2.915    -0.071    29.770     8.947
    13   6 C        2.920    -0.051    29.266     8.871
    14   6 C        3.812    -0.058    21.614     6.617
    15   6 C        3.802    -0.071    21.865     6.657
    16   6 C        3.751    -0.002    20.674     6.484
    17   7 N        2.728    -0.124    23.694     7.230
    18   6 C        3.751     0.003    20.583     6.470
    19   6 C        3.809    -0.072    21.870     6.657
    20   6 C        2.968     0.008    27.833     8.654
    21   6 C        2.922    -0.046    29.140     8.852
    22   6 C        2.913    -0.067    29.661     8.931
    23   6 C        2.865     0.133    25.094     8.211
    24   8 O        1.706    -0.222    17.683     5.677
    25   6 C        3.645     0.026    20.478     6.504
    26   6 C        2.862     0.133    25.082     8.209
    27   8 O        1.706    -0.224    17.719     5.683
    28   6 C        3.645     0.027    20.451     6.500
    29   6 C        2.920    -0.077    29.916     8.969
    30   6 C        3.705    -0.046    21.557     6.637
    31   6 C        3.861    -0.010    20.706     6.471
    32   6 C        3.755    -0.113    22.717     6.796
    33   6 C        3.754    -0.116    22.774     6.805
    34   1 H        0.926     0.052     2.291     2.367
    35   1 H        0.924     0.051     2.310     2.377
    36   1 H        0.925     0.082     1.963     2.191
    37   1 H        0.924     0.048     2.346     2.395
    38   1 H        0.924     0.054     2.276     2.359
    39   1 H        0.925     0.081     1.966     2.193
    40   1 H        0.924     0.050     2.322     2.383
    41   1 H        0.926     0.055     2.256     2.349
    42   1 H        0.926     0.038     2.470     2.457
    43   1 H        0.924     0.065     2.146     2.291
    44   1 H        0.924     0.052     2.295     2.369
    45   1 H        0.925     0.052     2.296     2.370
    46   1 H        0.924     0.064     2.154     2.295
    47   1 H        0.923     0.028     2.611     2.527
    48   1 H        0.924     0.045     2.386     2.416
    49   1 H        0.923     0.033     2.546     2.495
    50   1 H        0.924     0.046     2.376     2.410
    51   1 H        0.925     0.061     2.192     2.315
    52   1 H        0.924     0.052     2.289     2.366
    53   1 H        0.926     0.050     2.318     2.381
    54   1 H        0.926     0.057     2.232     2.336
    55   1 H        0.924     0.054     2.270     2.356
    56   1 H        0.924     0.056     2.249     2.345
    57   1 H        0.925     0.081     1.966     2.193
    58   1 H        0.925     0.081     1.973     2.197
    59   1 H        0.924     0.050     2.318     2.381
    60   1 H        0.924     0.054     2.276     2.359
    61   1 H        0.926     0.050     2.315     2.379
    62   1 H        0.925     0.054     2.273     2.358
    63   1 H        0.923     0.031     2.571     2.507
    64   1 H        0.925     0.059     2.208     2.324
    65   1 H        0.924     0.056     2.252     2.347
    66   1 H        0.925     0.038     2.471     2.458
    67   1 H        0.925     0.047     2.361     2.403
    68   1 H        0.925     0.060     2.204     2.322
    69   1 H        0.925     0.038     2.481     2.463
    70   1 H        0.925     0.047     2.357     2.401
    71   1 H        0.925     0.061     2.186     2.312
    72   1 H        0.860     0.232     0.957     1.532

Wiberg/Mayer (AO) data.
largest (>0.10) Wiberg bond orders for each atom

     #   Z sym  total        # sym  WBO       # sym  WBO       # sym  WBO
 ---------------------------------------------------------------------------
     1   7 N    3.239 --     2 C    2.217    72 H    0.882
     2   6 C    3.438 --     1 N    2.217     3 C    1.107
     3   6 C    3.973 --     2 C    1.107     4 C    0.943    14 C    0.915
                            31 C    0.883
     4   6 C    3.940 --    13 C    1.424     5 C    1.367     3 C    0.943
     5   6 C    3.966 --     6 C    1.401     4 C    1.367    34 H    0.958
     6   6 C    3.913 --     5 C    1.401     9 C    1.224     7 O    1.099
     7   8 O    2.260 --     6 C    1.099     8 C    0.978
     8   6 C    3.933 --     7 O    0.978    36 H    0.977    35 H    0.974
                            37 H    0.974
     9   6 C    3.913 --    12 C    1.395     6 C    1.224    10 O    1.105
    10   8 O    2.263 --     9 C    1.105    11 C    0.977
    11   6 C    3.931 --    39 H    0.977    10 O    0.977    40 H    0.974
                            38 H    0.974
    12   6 C    3.967 --    13 C    1.403     9 C    1.395    41 H    0.963
    13   6 C    3.964 --     4 C    1.424    12 C    1.403    42 H    0.964
    14   6 C    3.970 --    15 C    1.009    44 H    0.973    43 H    0.966
                             3 C    0.915
    15   6 C    3.985 --    14 C    1.009    16 C    0.997    46 H    0.969
                            45 H    0.969
    16   6 C    3.976 --    17 N    1.007    15 C    0.997    48 H    0.969
                            47 H    0.952
    17   7 N    3.101 --    30 C    1.017    16 C    1.007    18 C    1.006
    18   6 C    3.967 --    17 N    1.006    19 C    0.974    50 H    0.971
                            49 H    0.959
    19   6 C    3.981 --    20 C    1.014    18 C    0.974    51 H    0.971
                            52 H    0.965
    20   6 C    3.933 --    21 C    1.398    29 C    1.382    19 C    1.014
    21   6 C    3.935 --    22 C    1.420    20 C    1.398    53 H    0.967
    22   6 C    3.954 --    21 C    1.420    23 C    1.380    54 H    0.963
    23   6 C    3.880 --    22 C    1.380    26 C    1.216    24 O    1.108
    24   8 O    2.244 --    23 C    1.108    25 C    0.977
    25   6 C    3.929 --    24 O    0.977    57 H    0.977    56 H    0.972
                            55 H    0.972
    26   6 C    3.886 --    29 C    1.393    23 C    1.216    27 O    1.103
    27   8 O    2.246 --    26 C    1.103    28 C    0.979
    28   6 C    3.931 --    27 O    0.979    58 H    0.977    59 H    0.973
                            60 H    0.973
    29   6 C    3.955 --    26 C    1.393    20 C    1.382    61 H    0.962
    30   6 C    3.973 --    17 N    1.017    64 H    0.978    62 H    0.975
                            63 H    0.966
    31   6 C    3.941 --    33 C    1.012    32 C    1.012    65 H    0.957
                             3 C    0.883
    32   6 C    3.991 --    31 C    1.012    66 H    0.984    67 H    0.982
                            68 H    0.981
    33   6 C    3.990 --    31 C    1.012    69 H    0.984    70 H    0.983
                            71 H    0.980
    34   1 H    0.996 --     5 C    0.958
    35   1 H    0.995 --     8 C    0.974
    36   1 H    0.993 --     8 C    0.977
    37   1 H    0.995 --     8 C    0.974
    38   1 H    0.994 --    11 C    0.974
    39   1 H    0.993 --    11 C    0.977
    40   1 H    0.994 --    11 C    0.974
    41   1 H    0.995 --    12 C    0.963
    42   1 H    0.998 --    13 C    0.964
    43   1 H    0.994 --    14 C    0.966
    44   1 H    0.996 --    14 C    0.973
    45   1 H    0.997 --    15 C    0.969
    46   1 H    0.994 --    15 C    0.969
    47   1 H    0.983 --    16 C    0.952
    48   1 H    0.997 --    16 C    0.969
    49   1 H    0.982 --    18 C    0.959
    50   1 H    0.997 --    18 C    0.971
    51   1 H    0.994 --    19 C    0.971
    52   1 H    0.995 --    19 C    0.965
    53   1 H    0.997 --    21 C    0.967
    54   1 H    0.995 --    22 C    0.963
    55   1 H    0.991 --    25 C    0.972
    56   1 H    0.991 --    25 C    0.972
    57   1 H    0.993 --    25 C    0.977
    58   1 H    0.993 --    28 C    0.977
    59   1 H    0.992 --    28 C    0.973
    60   1 H    0.992 --    28 C    0.973
    61   1 H    0.996 --    29 C    0.962
    62   1 H    0.992 --    30 C    0.975
    63   1 H    0.982 --    30 C    0.966
    64   1 H    0.996 --    30 C    0.978
    65   1 H    0.993 --    31 C    0.957
    66   1 H    0.998 --    32 C    0.984
    67   1 H    0.997 --    32 C    0.982
    68   1 H    0.995 --    32 C    0.981
    69   1 H    0.998 --    33 C    0.984
    70   1 H    0.997 --    33 C    0.983
    71   1 H    0.995 --    33 C    0.980
    72   1 H    0.906 --     1 N    0.882
 ---------------------------------------------------------------------------

molecular dipole:
                 x           y           z       tot (Debye)
 q only:       -0.711       1.488       0.474
   full:       -0.894       1.693       0.791       5.265

           -------------------------------------------------
          | TOTAL ENERGY              -99.387298883818 Eh   |
          | GRADIENT NORM               0.002043695109 Eh/α |
          | HOMO-LUMO GAP               1.458079490399 eV   |
           -------------------------------------------------

 * finished run on 2024/04/06 at 11:15:11.769
