   * xtb version 6.6.1 (8d0f1dd) compiled by 'conda@1efc2f54142f' on 2023-08-01
          program call               : xtb struc.xyz --opt loose --input .xc1 --gfn2

   ID    Z sym.   atoms
    1    6 C      1, 3, 5-7, 10, 11, 14
    2    7 N      2, 4, 9, 13
    3    8 O      8, 12
    4    1 H      15-25
constraining bond 2 15 to    2.6866700 Å, actual value:    2.0850972 Å

          :  Hamiltonian                  GFN2-xTB          :
 * total energy  :   -42.8940245 Eh     change       -0.6650680E-10 Eh
 * total energy  :   -45.2171246 Eh     change       -0.2323100E+01 Eh
 * total energy  :   -48.9046649 Eh     change       -0.3687540E+01 Eh
 * total energy  :   -20.1439245 Eh     change        0.2876074E+02 Eh
 * total energy  :   -47.8973313 Eh     change       -0.2775341E+02 Eh
 * total energy  :   -47.9591082 Eh     change       -0.6177696E-01 Eh
 * total energy  :   -48.2004474 Eh     change       -0.2413392E+00 Eh
 * total energy  :   -48.4423487 Eh     change       -0.2419013E+00 Eh
 * total energy  :   -49.0231182 Eh     change       -0.5807695E+00 Eh
 * total energy  :   -49.2192844 Eh     change       -0.1961662E+00 Eh
 * total energy  :   -49.6435912 Eh     change       -0.1188723E-02 Eh
 * total energy  :   -49.6445962 Eh     change       -0.1005044E-02 Eh
 * total energy  :   -49.6450378 Eh     change       -0.4415862E-03 Eh
 * total energy  :   -49.6452781 Eh     change       -0.2402802E-03 Eh
 * total energy  :   -49.6453970 Eh     change       -0.1189185E-03 Eh
 * total energy  :   -49.6454927 Eh     change       -0.9565426E-04 Eh
 * total energy  :   -49.6455796 Eh     change       -0.8690683E-04 Eh
 * total energy  :   -49.6456250 Eh     change       -0.4537832E-04 Eh
 * total energy  :   -49.6456416 Eh     change       -0.1661646E-04 Eh
   *** GEOMETRY OPTIMIZATION CONVERGED AFTER 57 ITERATIONS ***

 final structure:
================
25
 xtb: 6.6.1 (8d0f1dd)
C            3.01613743988807        1.74387007872357       -0.03932996093200
N            2.44986929906497        0.55039877736574        0.00742266036915
C            2.70114354000269       -2.05946693960676       -0.09043983629389
N            1.40371255416206       -2.08237899648692       -0.01060642640355
C            0.57434527746977       -0.96069177683278        0.00682054401085
C            1.05864089628058        0.34552038264499        0.00000880936240
C            0.11806601610984        1.46956454778387        0.00236915155579
O            0.45231078935367        2.63363437742046        0.00369043518397
N           -1.21790931417800        1.11222935609717        0.00352351966586
C           -2.21678572827134        2.17146778350255       -0.00536161860204
C           -1.71740182802994       -0.16547544031712        0.02410617858614
O           -2.89321691986379       -0.40312504355580        0.03560729349270
N           -0.76439830870715       -1.20257338952989        0.02931447528705
C           -1.31023705839230       -2.55088907388600        0.05154786619726
H            2.73752810696486        0.14544771965233        0.02807839334716
H            4.09438715248526        1.75218895592122       -0.01480179244962
H            2.45767698583282        2.66393702449309       -0.09031850606851
H            3.18397390141777       -3.03289737254922       -0.09806836632876
H           -1.70165204736684        3.12687729431476       -0.06473603652124
H           -2.87930846392436        2.04042635145978       -0.86029110429925
H           -2.81529619527612        2.12076940718106        0.90407373656206
H           -1.00765623835072       -3.08705885996380        0.95300168151013
H           -1.04140202415717       -3.10528078018019       -0.84934221662370
H           -2.39657773689746       -2.44773966494447        0.07084934873247
H            0.87448141848454       -2.96051617710724        0.03405338855966

          :  Hamiltonian                  GFN2-xTB          :
         :: total energy             -49.645641587719 Eh    ::
         :: gradient norm              0.003442242739 Eh/a0 ::
         :: HOMO-LUMO gap              1.291127859104 eV    ::
         :: SCC energy               -42.644937563460 Eh    ::
         :: -> dispersion             -0.022655158786 Eh    ::
         :: repulsion energy           1.558996250044 Eh    ::

    * Orbital Energies and Occupations

         #    Occupation            Energy/Eh            Energy/eV
      -------------------------------------------------------------
         1        2.0000           -0.8923892             -24.2831
       ...           ...                  ...                  ...
        25        1.9999           -0.6707200             -18.2512
        26        1.9999           -0.6657058             -18.1148
        27        1.9999           -0.6620676             -18.0158
        28        1.9997           -0.6456030             -17.5678
        29        1.9995           -0.6362822             -17.3141
        30        1.9994           -0.6347574             -17.2726
        31        1.9987           -0.6214033             -16.9092
        32        1.9962           -0.6047931             -16.4573
        33        1.9872           -0.5853055             -15.9270
        34        1.9640           -0.5687447             -15.4763
        35        1.9594           -0.5668278             -15.4242
        36        1.9571           -0.5659475             -15.4002
        37        1.6768           -0.5315063             -14.4630 (HOMO)
        38        0.4116           -0.4840583             -13.1719 (LUMO)
        39        0.0478           -0.4467003             -12.1553
        40        0.0022           -0.3972917             -10.8109
        41        0.0007           -0.3793568             -10.3228
        42        0.0000           -0.2946563              -8.0180
        43                         -0.2085844              -5.6759
        44                         -0.1681985              -4.5769
        45                         -0.1387052              -3.7744
        46                         -0.1258919              -3.4257
        47                         -0.0943339              -2.5670
        48                         -0.0348043              -0.9471
       ...                                ...                  ...
        67                          3.8864861             105.7567
      -------------------------------------------------------------
                  HL-Gap            0.0474481 Eh            1.2911 eV

     #   Z          covCN         q      C6AA      α(0)
     1   6 C        2.843    -0.029    28.719     8.783
     2   7 N        2.688    -0.017    21.587     6.901
     3   6 C        1.853    -0.128    34.739     9.521
     4   7 N        2.688    -0.017    21.588     6.901
     5   6 C        2.847     0.110    25.563     8.286
     6   6 C        2.923    -0.026    28.642     8.776
     7   6 C        2.768     0.268    22.485     7.766
     8   8 O        0.859    -0.364    20.974     6.140
     9   7 N        2.741    -0.072    22.631     7.065
    10   6 C        3.710    -0.064    21.869     6.683
    11   6 C        2.725     0.317    21.607     7.610
    12   8 O        0.860    -0.355    20.805     6.115
    13   7 N        2.745    -0.058    22.361     7.023
    14   6 C        3.699    -0.076    22.130     6.728
    15   1 H        0.952     0.274     0.790     1.389
    16   1 H        0.926     0.130     1.537     1.939
    17   1 H        0.926     0.168     1.278     1.768
    18   1 H        0.925     0.096     1.821     2.110
    19   1 H        0.925     0.117     1.636     2.000
    20   1 H        0.925     0.105     1.744     2.065
    21   1 H        0.925     0.104     1.751     2.069
    22   1 H        0.924     0.087     1.912     2.162
    23   1 H        0.924     0.087     1.907     2.160
    24   1 H        0.924     0.137     1.485     1.906
    25   1 H        0.859     0.208     1.068     1.619

Wiberg/Mayer (AO) data.
largest (>0.10) Wiberg bond orders for each atom

     #   Z sym  total        # sym  WBO       # sym  WBO       # sym  WBO
 ---------------------------------------------------------------------------
     1   6 C    3.606 --     2 N    1.520    16 H    0.959    17 H    0.941
     2   7 N    3.580 --     1 C    1.520     6 C    1.104    15 H    0.894
     3   6 C    2.603 --     4 N    1.563    18 H    0.934
     4   7 N    3.640 --     3 C    1.563     5 C    1.103    25 H    0.878
     5   6 C    3.850 --     6 C    1.369    13 N    1.215     4 N    1.103
     6   6 C    3.879 --     5 C    1.369     2 N    1.104     7 C    1.065
     7   6 C    3.953 --     8 O    1.671     9 N    1.120     6 C    1.065
     8   8 O    2.022 --     7 C    1.671     9 N    0.138
     9   7 N    3.553 --    11 C    1.129     7 C    1.120    10 C    0.968
                             8 O    0.138    12 O    0.132
    10   6 C    3.900 --     9 N    0.968    19 H    0.966    20 H    0.960
                            21 H    0.958
    11   6 C    3.954 --    12 O    1.698     9 N    1.129    13 N    1.041
    12   8 O    2.039 --    11 C    1.698     9 N    0.132    13 N    0.115
    13   7 N    3.532 --     5 C    1.215    11 C    1.041    14 C    0.977
                            12 O    0.115
    14   6 C    3.918 --    13 N    0.977    23 H    0.963    22 H    0.963
                            24 H    0.952
    15   1 H    0.924 --     2 N    0.894
    16   1 H    0.981 --     1 C    0.959
    17   1 H    0.969 --     1 C    0.941
    18   1 H    0.954 --     3 C    0.934
    19   1 H    0.983 --    10 C    0.966
    20   1 H    0.980 --    10 C    0.960
    21   1 H    0.979 --    10 C    0.958
    22   1 H    0.986 --    14 C    0.963
    23   1 H    0.986 --    14 C    0.963
    24   1 H    0.979 --    14 C    0.952
    25   1 H    0.927 --     4 N    0.878
 ---------------------------------------------------------------------------

molecular dipole:
                 x           y           z       tot (Debye)
 q only:        2.158      -1.076       0.010
   full:        2.174      -1.803       0.039       7.178

           -------------------------------------------------
          | TOTAL ENERGY              -49.645641587719 Eh   |
          | GRADIENT NORM               0.003442242739 Eh/α |
          | HOMO-LUMO GAP               1.291127859104 eV   |
           -------------------------------------------------

 * finished run on 2024/06/05 at 19:59:10.071
