   * xtb version 6.6.1 (8d0f1dd) compiled by 'conda@1efc2f54142f' on 2023-08-01
          program call               : xtb xtbopt.xyz --opt crude --input .xc2 --gfn2

   ID    Z sym.   atoms
    1    6 C      1, 3, 5-7, 10, 11, 14
    2    7 N      2, 4, 9, 13
    3    8 O      8, 12
    4    1 H      15-25

          :  Hamiltonian                  GFN2-xTB          :
 * total energy  :   -41.9892466 Eh     change       -0.6757261E-11 Eh
   *** GEOMETRY OPTIMIZATION CONVERGED AFTER 1 ITERATIONS ***

 final structure:
================
25
 xtb: 6.6.1 (8d0f1dd)
C            4.42880072006336        1.32918992209312       -0.00450597346476
N            3.16483070895535        0.62019444378235       -0.07974990277255
C            3.18899227970131       -0.73046245064750        0.07686782266984
N            2.10527098697764       -1.43176784272255        0.06095553867203
C            1.12508872599481       -2.02550265832292       -0.23992204378265
C            2.03328217692642        1.25335048233652       -0.28086590191785
C            1.20925740490002        2.18392369085983       -0.45536713637824
O            0.28066171302039        2.88967043885875       -0.61093961488720
N           -2.30173926375574        2.67951475151683        0.84189245292193
C           -3.42563560908313        2.61104366485241        0.32560894059002
C           -2.42182684807370       -1.35720799145476       -0.23938424353389
O           -2.45176839757668       -0.20771513778387       -0.38670600551387
N           -2.15615687320702       -2.49872355098330       -0.03617379304588
C           -2.62992167893923       -3.83356528436058        0.00536273789047
H            4.85500541831992        1.23302113942199        0.99585009915328
H            5.13457617455806        0.91810549745362       -0.72779644113471
H            4.26917965886732        2.38268684351114       -0.22135032697308
H            4.13181799694964       -1.21566007682972        0.27102864975117
H           -1.47159722638148        2.87741099746299        0.28568824762922
H           -3.64743881647968        2.74600032027800       -0.73928936345629
H           -4.27993516033950        2.39833782828298        0.95929623308208
H           -2.37652960469088       -4.26237048239168        0.97694511910375
H           -2.13364283222592       -4.40895345866234       -0.77802780025759
H           -3.71012759706812       -3.88459975337641       -0.14050311112841
H            0.23998745669438       -2.44768279157647        0.17225743468833

          :  Hamiltonian                  GFN2-xTB          :
         :: total energy             -41.989246554285 Eh    ::
         :: gradient norm              0.003918934356 Eh/a0 ::
         :: HOMO-LUMO gap              1.036182019300 eV    ::
         :: SCC energy               -42.680597264667 Eh    ::
         :: -> dispersion             -0.015525320986 Eh    ::
         :: repulsion energy           0.691297849166 Eh    ::

    * Orbital Energies and Occupations

         #    Occupation            Energy/Eh            Energy/eV
      -------------------------------------------------------------
         1        2.0000           -0.8582028             -23.3529
       ...           ...                  ...                  ...
        25        2.0000           -0.6486045             -17.6494
        26        1.9999           -0.6411279             -17.4460
        27        1.9998           -0.6276487             -17.0792
        28        1.9998           -0.6254442             -17.0192
        29        1.9998           -0.6237828             -16.9740
        30        1.9995           -0.6091873             -16.5768
        31        1.9992           -0.6036941             -16.4274
        32        1.9991           -0.6003232             -16.3356
        33        1.9719           -0.5462338             -14.8638
        34        1.9528           -0.5378473             -14.6356
        35        1.9090           -0.5271147             -14.3435
        36        1.8570           -0.5195174             -14.1368
        37        1.6626           -0.5041697             -13.7192 (HOMO)
        38        0.6157           -0.4660907             -12.6830 (LUMO)
        39        0.0307           -0.4130426             -11.2395
        40        0.0019           -0.3687163             -10.0333
        41        0.0012           -0.3619023              -9.8479
        42        0.0001           -0.3166523              -8.6165
        43        0.0000           -0.2948834              -8.0242
        44        0.0000           -0.2886293              -7.8540
        45        0.0000           -0.2487602              -6.7691
        46                         -0.1480880              -4.0297
        47                         -0.0803087              -2.1853
        48                         -0.0683584              -1.8601
       ...                                ...                  ...
        67                          1.2153399              33.0711
      -------------------------------------------------------------
                  HL-Gap            0.0380790 Eh            1.0362 eV

     #   Z          covCN         q      C6AA      α(0)
     1   6 C        3.710    -0.087    22.296     6.748
     2   7 N        2.737     0.118    19.228     6.513
     3   6 C        2.811     0.031    27.305     8.561
     4   7 N        1.830     0.087    20.375     6.689
     5   6 C        1.845    -0.004    31.259     9.032
     6   6 C        1.948    -0.088    33.498     9.347
     7   6 C        1.837     0.224    25.915     8.224
     8   8 O        0.856    -0.250    18.901     5.829
     9   7 N        1.770    -0.173    25.510     7.479
    10   6 C        2.759     0.059    26.666     8.456
    11   6 C        1.770     0.312    24.212     7.955
    12   8 O        0.856    -0.277    19.374     5.901
    13   7 N        1.820    -0.174    25.574     7.493
    14   6 C        3.686    -0.030    21.314     6.609
    15   1 H        0.924     0.098     1.800     2.098
    16   1 H        0.924     0.098     1.802     2.099
    17   1 H        0.925     0.101     1.774     2.083
    18   1 H        0.926     0.111     1.686     2.031
    19   1 H        0.860     0.223     0.997     1.564
    20   1 H        0.924     0.095     1.832     2.116
    21   1 H        0.925     0.111     1.691     2.034
    22   1 H        0.924     0.087     1.909     2.161
    23   1 H        0.924     0.086     1.915     2.164
    24   1 H        0.924     0.079     1.986     2.204
    25   1 H        0.927     0.163     1.308     1.788

Wiberg/Mayer (AO) data.
largest (>0.10) Wiberg bond orders for each atom

     #   Z sym  total        # sym  WBO       # sym  WBO       # sym  WBO
 ---------------------------------------------------------------------------
     1   6 C    3.929 --    17 H    0.976     2 N    0.970    16 H    0.963
                            15 H    0.960
     2   7 N    3.564 --     6 C    1.304     3 C    1.197     1 C    0.970
     3   6 C    3.827 --     4 N    1.355     2 N    1.197    18 H    0.930
                             5 C    0.166
     4   7 N    3.653 --     5 C    2.246     3 C    1.355
     5   6 C    3.482 --     4 N    2.246    25 H    0.918     3 C    0.166
     6   6 C    3.558 --     7 C    1.901     2 N    1.304     8 O    0.197
     7   6 C    3.805 --     6 C    1.901     8 O    1.819
     8   8 O    2.139 --     7 C    1.819     6 C    0.197
     9   7 N    2.969 --    10 C    2.060    19 H    0.882
    10   6 C    3.897 --     9 N    2.060    21 H    0.931    20 H    0.904
    11   6 C    3.937 --    13 N    1.984    12 O    1.884
    12   8 O    2.293 --    11 C    1.884    13 N    0.364
    13   7 N    3.368 --    11 C    1.984    14 C    1.008    12 O    0.364
    14   6 C    3.934 --    13 N    1.008    24 H    0.962    22 H    0.962
                            23 H    0.960
    15   1 H    0.979 --     1 C    0.960
    16   1 H    0.981 --     1 C    0.963
    17   1 H    0.988 --     1 C    0.976
    18   1 H    0.985 --     3 C    0.930
    19   1 H    0.928 --     9 N    0.882
    20   1 H    0.915 --    10 C    0.904
    21   1 H    0.952 --    10 C    0.931
    22   1 H    0.984 --    14 C    0.962
    23   1 H    0.984 --    14 C    0.960
    24   1 H    0.986 --    14 C    0.962
    25   1 H    0.959 --     5 C    0.918
 ---------------------------------------------------------------------------

molecular dipole:
                 x           y           z       tot (Debye)
 q only:        1.779      -1.179       0.294
   full:        1.648      -1.273       0.095       5.299

           -------------------------------------------------
          | TOTAL ENERGY              -41.989246554285 Eh   |
          | GRADIENT NORM               0.003918934356 Eh/α |
          | HOMO-LUMO GAP               1.036182019300 eV   |
           -------------------------------------------------

 * finished run on 2024/06/05 at 19:57:58.590
