   * xtb version 6.6.1 (8d0f1dd) compiled by 'conda@1efc2f54142f' on 2023-08-01
          program call               : xtb struc.xyz --opt loose --input .xc1 --gfn2

   ID    Z sym.   atoms
    1    6 C      1, 3, 5-7, 10, 11, 14
    2    7 N      2, 4, 9, 13
    3    8 O      8, 12
    4    1 H      15-25
constraining bond 6 10 to    6.0000000 Å, actual value:    3.7045483 Å

          :  Hamiltonian                  GFN2-xTB          :
 * total energy  :   -32.8371393 Eh     change       -0.6633627E-10 Eh
 * total energy  :   -36.6809674 Eh     change       -0.3843828E+01 Eh
 * total energy  :   -39.2834010 Eh     change       -0.2602434E+01 Eh
 * total energy  :   -40.8040429 Eh     change       -0.1520642E+01 Eh
 * total energy  :   -41.3897059 Eh     change       -0.5856630E+00 Eh
 * total energy  :   -41.5320374 Eh     change       -0.1423315E+00 Eh
 * total energy  :   -41.5928950 Eh     change       -0.6085756E-01 Eh
 * total energy  :   -41.6710649 Eh     change       -0.7816985E-01 Eh
 * total energy  :   -41.7461980 Eh     change       -0.7513313E-01 Eh
 * total energy  :   -41.8079585 Eh     change       -0.6176057E-01 Eh
 * total energy  :   -42.1336847 Eh     change       -0.1548944E-02 Eh
 * total energy  :   -42.1334952 Eh     change        0.1895349E-03 Eh
 * total energy  :   -42.1344115 Eh     change       -0.9163010E-03 Eh
 * total energy  :   -42.1335196 Eh     change        0.8918840E-03 Eh
 * total energy  :   -42.1353368 Eh     change       -0.1817173E-02 Eh
 * total energy  :   -42.1356000 Eh     change       -0.2632163E-03 Eh
 * total energy  :   -42.1358733 Eh     change       -0.2733395E-03 Eh
 * total energy  :   -42.1359957 Eh     change       -0.1223553E-03 Eh
 * total energy  :   -42.1360426 Eh     change       -0.4687578E-04 Eh
   *** GEOMETRY OPTIMIZATION CONVERGED AFTER 66 ITERATIONS ***

 final structure:
================
25
 xtb: 6.6.1 (8d0f1dd)
C            4.08072857750175        0.36354167429835        0.01052534121407
N            2.81405280854309       -0.31642232930657        0.01273732100945
C            2.60599606440657       -1.62660721477216        0.01215844257955
N            1.28225206364180       -1.88481326140356        0.01920353143701
C            0.60530624287971       -0.69229530684812        0.02499294613572
C            1.61283094086012        0.29596898104707        0.02514627686260
C            0.90519605275413        1.68652520846334       -0.00833247874762
O            1.53787944990764        2.70353785427449       -0.03986038636435
N           -0.49389560979607        1.70485130718365       -0.00614639702064
C           -4.22305475992692        1.50349918018431       -0.02763450291354
C           -1.35914680741378        0.74806978458829        0.00212853983847
O           -2.69969879582079        0.70934324962799       -0.00497006912003
N           -0.77027840691129       -0.57010049948087        0.02039977052943
C           -1.56722315906518       -1.78473787835815        0.00781888338196
H            4.60087850442723        0.19828554753346        0.95486460717740
H            4.70497807446627       -0.00314746922244       -0.80339078300290
H            3.90568894845933        1.42999218860971       -0.11556939914679
H            3.37265229492668       -2.37624235931674        0.00624126628351
H           -4.00472780918951        2.56361040286887       -0.01682710616521
H           -4.62064718429238        1.11701261916665       -0.95356778927061
H           -4.64974698570582        1.10488571063054        0.87883515604471
H           -1.37099870522734       -2.38569506201468        0.89782503256935
H           -1.36811303100011       -2.36907735155833       -0.89291123592885
H           -2.61446017123057       -1.49324833624497        0.00943939314167
H            0.87398291695576       -2.80849809833318        0.01806525740486

          :  Hamiltonian                  GFN2-xTB          :
         :: total energy             -42.136042554295 Eh    ::
         :: gradient norm              0.003757430561 Eh/a0 ::
         :: HOMO-LUMO gap              2.648402936573 eV    ::
         :: SCC energy               -42.630657073797 Eh    ::
         :: -> dispersion             -0.021256562236 Eh    ::
         :: repulsion energy           0.491700987708 Eh    ::

    * Orbital Energies and Occupations

         #    Occupation            Energy/Eh            Energy/eV
      -------------------------------------------------------------
         1        2.0000           -0.8999062             -24.4877
       ...           ...                  ...                  ...
        25        2.0000           -0.6596558             -17.9501
        26        2.0000           -0.6445318             -17.5386
        27        2.0000           -0.6339875             -17.2517
        28        2.0000           -0.6299728             -17.1424
        29        2.0000           -0.6275603             -17.0768
        30        2.0000           -0.6230799             -16.9549
        31        2.0000           -0.6117471             -16.6465
        32        2.0000           -0.6061238             -16.4935
        33        2.0000           -0.5946044             -16.1800
        34        2.0000           -0.5590439             -15.2124
        35        1.9997           -0.5383231             -14.6485
        36        1.9996           -0.5353863             -14.5686
        37        1.9960           -0.5172383             -14.0748 (HOMO)
        38        0.0046           -0.4199113             -11.4264 (LUMO)
        39        0.0001           -0.3859665             -10.5027
        40        0.0000           -0.3809457             -10.3661
        41        0.0000           -0.3745387             -10.1917
        42                         -0.2727656              -7.4223
        43                         -0.1991389              -5.4188
        44                         -0.1823605              -4.9623
        45                         -0.1751311              -4.7656
        46                         -0.1001802              -2.7260
        47                         -0.0657842              -1.7901
        48                         -0.0506003              -1.3769
       ...                                ...                  ...
        67                          0.5561233              15.1329
      -------------------------------------------------------------
                  HL-Gap            0.0973270 Eh            2.6484 eV

     #   Z          covCN         q      C6AA      α(0)
     1   6 C        3.694    -0.090    22.398     6.771
     2   7 N        2.824     0.102    19.486     6.556
     3   6 C        3.073     0.050    26.808     8.489
     4   7 N        2.799    -0.061    22.428     7.034
     5   6 C        3.019     0.107    25.623     8.303
     6   6 C        3.130    -0.031    28.555     8.749
     7   6 C        2.761     0.297    21.962     7.675
     8   8 O        0.858    -0.322    20.185     6.024
     9   7 N        1.835    -0.281    28.137     7.861
    10   6 C        3.426     0.011    23.350     7.382
    11   6 C        2.692     0.319    21.574     7.602
    12   8 O        1.504    -0.310    19.305     5.925
    13   7 N        2.740    -0.067    22.539     7.051
    14   6 C        3.694    -0.068    21.994     6.710
    15   1 H        0.924     0.107     1.718     2.050
    16   1 H        0.925     0.104     1.745     2.066
    17   1 H        0.925     0.131     1.526     1.932
    18   1 H        0.926     0.120     1.616     1.988
    19   1 H        0.925     0.132     1.517     1.926
    20   1 H        0.926     0.135     1.499     1.914
    21   1 H        0.926     0.135     1.497     1.913
    22   1 H        0.924     0.073     2.056     2.243
    23   1 H        0.924     0.072     2.060     2.245
    24   1 H        0.925     0.111     1.686     2.030
    25   1 H        0.860     0.224     0.990     1.559

Wiberg/Mayer (AO) data.
largest (>0.10) Wiberg bond orders for each atom

     #   Z sym  total        # sym  WBO       # sym  WBO       # sym  WBO
 ---------------------------------------------------------------------------
     1   6 C    3.921 --     2 N    0.984    17 H    0.968    16 H    0.964
                            15 H    0.958
     2   7 N    3.737 --     3 C    1.392     6 C    1.215     1 C    0.984
     3   6 C    3.930 --     2 N    1.392     4 N    1.296    18 H    0.953
     4   7 N    3.612 --     3 C    1.296     5 C    1.189    25 H    0.918
     5   6 C    3.945 --     6 C    1.376     4 N    1.189    13 N    1.187
     6   6 C    3.917 --     5 C    1.376     2 N    1.215     7 C    0.942
     7   6 C    3.955 --     8 O    1.787     9 N    1.133     6 C    0.942
     8   8 O    2.120 --     7 C    1.787     9 N    0.108
     9   7 N    3.106 --    11 C    1.551     7 C    1.133    12 O    0.132
                             8 O    0.108
    10   6 C    3.774 --    19 H    0.980    20 H    0.975    21 H    0.975
                            12 O    0.784
    11   6 C    3.940 --     9 N    1.551    12 O    1.221    13 N    1.030
    12   8 O    2.260 --    11 C    1.221    10 C    0.784     9 N    0.132
    13   7 N    3.542 --     5 C    1.187    11 C    1.030    14 C    0.982
    14   6 C    3.944 --    13 N    0.982    22 H    0.972    23 H    0.972
                            24 H    0.968
    15   1 H    0.988 --     1 C    0.958
    16   1 H    0.989 --     1 C    0.964
    17   1 H    0.983 --     1 C    0.968
    18   1 H    0.984 --     3 C    0.953
    19   1 H    0.982 --    10 C    0.980
    20   1 H    0.981 --    10 C    0.975
    21   1 H    0.981 --    10 C    0.975
    22   1 H    0.993 --    14 C    0.972
    23   1 H    0.993 --    14 C    0.972
    24   1 H    0.987 --    14 C    0.968
    25   1 H    0.949 --     4 N    0.918
 ---------------------------------------------------------------------------

molecular dipole:
                 x           y           z       tot (Debye)
 q only:        0.461      -2.541       0.022
   full:        0.522      -3.292       0.033       8.472

           -------------------------------------------------
          | TOTAL ENERGY              -42.136042554295 Eh   |
          | GRADIENT NORM               0.003757430561 Eh/α |
          | HOMO-LUMO GAP               2.648402936573 eV   |
           -------------------------------------------------

 * finished run on 2024/06/05 at 19:58:02.098
