   * xtb version 6.6.1 (8d0f1dd) compiled by 'conda@1efc2f54142f' on 2023-08-01
          program call               : xtb xtbopt.xyz --opt crude --input .xc2 --gfn2

   ID    Z sym.   atoms
    1    6 C      1, 3, 5-7, 10, 11, 14
    2    7 N      2, 4, 9, 13
    3    8 O      8, 12
    4    1 H      15-25
########################################################################
[WARNING] Please study the warnings concerning your input carefully
-1- readin_getIntValue: could not parse ''
########################################################################

          :  Hamiltonian                  GFN2-xTB          :
 * total energy  :   -42.1389369 Eh     change       -0.8526513E-13 Eh
 * total energy  :   -42.1690553 Eh     change       -0.3011839E-01 Eh
 * total energy  :   -42.1911401 Eh     change       -0.2208485E-01 Eh
 * total energy  :   -42.1989249 Eh     change       -0.7784766E-02 Eh
 * total energy  :   -42.2053485 Eh     change       -0.6423578E-02 Eh
 * total energy  :   -42.2103219 Eh     change       -0.4973391E-02 Eh
 * total energy  :   -42.2146098 Eh     change       -0.4287912E-02 Eh
 * total energy  :   -42.2170732 Eh     change       -0.2463459E-02 Eh
 * total energy  :   -42.2182679 Eh     change       -0.1194695E-02 Eh
 * total energy  :   -42.2186119 Eh     change       -0.3440228E-03 Eh
 * total energy  :   -42.2186947 Eh     change       -0.8276404E-04 Eh
 * total energy  :   -42.2187600 Eh     change       -0.6528951E-04 Eh
   *** GEOMETRY OPTIMIZATION CONVERGED AFTER 12 ITERATIONS ***

 final structure:
================
25
 xtb: 6.6.1 (8d0f1dd)
C            3.71696709535395        0.66261990218373        0.01118518667334
N            2.57595530067478       -0.21218214328672        0.00682743625489
C            2.57811799180047       -1.53315950986027        0.01270429643174
N            1.30971109595743       -1.99335144766804        0.01476812119669
C            0.47535495338565       -0.91314993570247        0.00994648903233
C            1.27600745869230        0.21480094221341        0.00497204707314
C            0.66728128378469        1.56646509678495       -0.01728864615085
O            1.29427696322964        2.59168186032735       -0.03764037637797
N           -0.70048468132678        1.49278202353346       -0.01611043035370
C           -3.40875193602114        1.68281213974724       -0.02126841836489
C           -1.40731483912689        0.42506364655813       -0.00366773284861
O           -2.71262599706526        0.43466265581035       -0.00099502154327
N           -0.87622460743206       -0.87128704683894        0.00806043455416
C           -1.68235873881986       -2.07668741443290        0.01374926717190
H            4.25336834770661        0.57646872309773        0.95573633562705
H            4.39109123444646        0.40878658692693       -0.80438096507368
H            3.36552445291144        1.68612604840382       -0.10549326964197
H            3.45173818650872       -2.15510305329212        0.01480421583851
H           -2.70629896674731        2.51029089058299        0.00248712249742
H           -4.00279026303484        1.71294246107924       -0.93066460413235
H           -4.05243341674126        1.70413157455193        0.84977963961943
H           -1.47422947567862       -2.66616715895143        0.90788606073650
H           -1.48159491722762       -2.67027929619504       -0.87936363028862
H           -2.73090988530130       -1.79302326543159        0.01746055319745
H            1.04105487422143       -2.96700573852500        0.01767750680073

          :  Hamiltonian                  GFN2-xTB          :
         :: total energy             -42.218759996423 Eh    ::
         :: gradient norm              0.007012779927 Eh/a0 ::
         :: HOMO-LUMO gap              2.662400280647 eV    ::
         :: SCC energy               -42.745589557550 Eh    ::
         :: -> dispersion             -0.022108459657 Eh    ::
         :: repulsion energy           0.526784537957 Eh    ::

    * Orbital Energies and Occupations

         #    Occupation            Energy/Eh            Energy/eV
      -------------------------------------------------------------
         1        2.0000           -0.9121522             -24.8209
       ...           ...                  ...                  ...
        25        2.0000           -0.6710603             -18.2605
        26        2.0000           -0.6624029             -18.0249
        27        2.0000           -0.6424221             -17.4812
        28        2.0000           -0.6351134             -17.2823
        29        2.0000           -0.6285327             -17.1032
        30        2.0000           -0.6255014             -17.0208
        31        2.0000           -0.6143995             -16.7187
        32        2.0000           -0.6112575             -16.6332
        33        2.0000           -0.5928140             -16.1313
        34        1.9999           -0.5600358             -15.2393
        35        1.9998           -0.5519660             -15.0198
        36        1.9998           -0.5496233             -14.9560
        37        1.9961           -0.5268073             -14.3352 (HOMO)
        38        0.0043           -0.4289659             -11.6728 (LUMO)
        39        0.0000           -0.3907487             -10.6328
        40        0.0000           -0.3786279             -10.3030
        41                         -0.2652573              -7.2180
        42                         -0.2016002              -5.4858
        43                         -0.1860713              -5.0633
        44                         -0.1482997              -4.0354
        45                         -0.1189011              -3.2355
        46                         -0.0794825              -2.1628
        47                         -0.0455883              -1.2405
        48                         -0.0307443              -0.8366
       ...                                ...                  ...
        67                          0.5724658              15.5776
      -------------------------------------------------------------
                  HL-Gap            0.0978414 Eh            2.6624 eV

     #   Z          covCN         q      C6AA      α(0)
     1   6 C        3.693    -0.096    22.523     6.790
     2   7 N        2.844     0.092    19.657     6.585
     3   6 C        3.071     0.056    26.682     8.470
     4   7 N        2.801    -0.060    22.395     7.029
     5   6 C        3.079     0.114    25.405     8.263
     6   6 C        3.129    -0.027    28.471     8.736
     7   6 C        2.773     0.300    21.911     7.666
     8   8 O        0.858    -0.348    20.676     6.097
     9   7 N        1.839    -0.299    28.594     7.925
    10   6 C        3.650    -0.001    20.922     6.571
    11   6 C        2.778     0.303    21.859     7.658
    12   8 O        1.707    -0.201    17.344     5.623
    13   7 N        2.739    -0.054    22.282     7.011
    14   6 C        3.692    -0.072    22.059     6.720
    15   1 H        0.925     0.109     1.701     2.040
    16   1 H        0.925     0.106     1.728     2.056
    17   1 H        0.925     0.142     1.446     1.880
    18   1 H        0.926     0.125     1.571     1.960
    19   1 H        0.925     0.104     1.746     2.067
    20   1 H        0.925     0.098     1.807     2.102
    21   1 H        0.925     0.099     1.798     2.097
    22   1 H        0.924     0.082     1.956     2.187
    23   1 H        0.924     0.082     1.956     2.187
    24   1 H        0.925     0.116     1.643     2.004
    25   1 H        0.860     0.228     0.972     1.545

Wiberg/Mayer (AO) data.
largest (>0.10) Wiberg bond orders for each atom

     #   Z sym  total        # sym  WBO       # sym  WBO       # sym  WBO
 ---------------------------------------------------------------------------
     1   6 C    3.913 --     2 N    0.983    16 H    0.962    17 H    0.959
                            15 H    0.956
     2   7 N    3.735 --     3 C    1.422     6 C    1.180     1 C    0.983
     3   6 C    3.931 --     2 N    1.422     4 N    1.288    18 H    0.952
     4   7 N    3.608 --     3 C    1.288     5 C    1.188    25 H    0.919
     5   6 C    3.955 --     6 C    1.385    13 N    1.192     4 N    1.188
     6   6 C    3.925 --     5 C    1.385     2 N    1.180     7 C    1.006
     7   6 C    3.963 --     8 O    1.737     9 N    1.135     6 C    1.006
     8   8 O    2.085 --     7 C    1.737     9 N    0.115
     9   7 N    3.087 --    11 C    1.530     7 C    1.135    12 O    0.116
                             8 O    0.115
    10   6 C    3.876 --    19 H    0.972    21 H    0.971    20 H    0.970
                            12 O    0.923
    11   6 C    3.946 --     9 N    1.530    12 O    1.203    13 N    1.073
    12   8 O    2.364 --    11 C    1.203    10 C    0.923     9 N    0.116
    13   7 N    3.568 --     5 C    1.192    11 C    1.073    14 C    0.975
    14   6 C    3.934 --    13 N    0.975    22 H    0.972    23 H    0.972
                            24 H    0.969
    15   1 H    0.988 --     1 C    0.956
    16   1 H    0.988 --     1 C    0.962
    17   1 H    0.980 --     1 C    0.959
    18   1 H    0.983 --     3 C    0.952
    19   1 H    0.989 --    10 C    0.972
    20   1 H    0.989 --    10 C    0.970
    21   1 H    0.989 --    10 C    0.971
    22   1 H    0.991 --    14 C    0.972
    23   1 H    0.991 --    14 C    0.972
    24   1 H    0.986 --    14 C    0.969
    25   1 H    0.947 --     4 N    0.919
 ---------------------------------------------------------------------------

molecular dipole:
                 x           y           z       tot (Debye)
 q only:        1.246      -2.749       0.035
   full:        1.391      -3.575       0.045       9.752

           -------------------------------------------------
          | TOTAL ENERGY              -42.218759996423 Eh   |
          | GRADIENT NORM               0.007012779927 Eh/α |
          | HOMO-LUMO GAP               2.662400280647 eV   |
           -------------------------------------------------

 * finished run on 2024/06/05 at 19:58:02.559
