   * xtb version 6.6.1 (8d0f1dd) compiled by 'conda@1efc2f54142f' on 2023-08-01
          program call               : xtb struc.xyz --opt loose --input .xc1 --gfn2

   ID    Z sym.   atoms
    1    7 N      1, 17
    2    6 C      2-6, 8, 9, 11-16, 18-23, 25, 26, 28-33
    3    8 O      7, 10, 24, 27
    4    1 H      34-72
constraining bond 7 35 to    3.9000000 Å, actual value:    2.0765051 Å

          :  Hamiltonian                  GFN2-xTB          :
 * total energy  :   -98.8104176 Eh     change       -0.4035485E-08 Eh
 * total energy  :   -99.0149791 Eh     change       -0.2045614E+00 Eh
 * total energy  :   -99.1263017 Eh     change       -0.1113226E+00 Eh
 * total energy  :   -99.1734356 Eh     change       -0.4713386E-01 Eh
 * total energy  :   -99.1952253 Eh     change       -0.2178970E-01 Eh
 * total energy  :   -99.2045920 Eh     change       -0.9366719E-02 Eh
 * total energy  :   -99.2107205 Eh     change       -0.6128492E-02 Eh
 * total energy  :   -99.2196793 Eh     change       -0.8958848E-02 Eh
 * total energy  :   -99.2309491 Eh     change       -0.1126974E-01 Eh
 * total energy  :   -99.2431168 Eh     change       -0.1216771E-01 Eh
 * total energy  :   -99.2793760 Eh     change       -0.1240454E-03 Eh
 * total energy  :   -99.2794695 Eh     change       -0.9352478E-04 Eh
 * total energy  :   -99.2795858 Eh     change       -0.1163062E-03 Eh
 * total energy  :   -99.2797492 Eh     change       -0.1633545E-03 Eh
 * total energy  :   -99.2798251 Eh     change       -0.7593557E-04 Eh
 * total energy  :   -99.2799822 Eh     change       -0.1570465E-03 Eh
 * total energy  :   -99.2800442 Eh     change       -0.6199141E-04 Eh
 * total energy  :   -99.2800948 Eh     change       -0.5064246E-04 Eh
 * total energy  :   -99.2801185 Eh     change       -0.2365366E-04 Eh
   *** GEOMETRY OPTIMIZATION CONVERGED AFTER 50 ITERATIONS ***

 final structure:
================
72
 xtb: 6.6.1 (8d0f1dd)
N           -1.93590260798997        2.89705845276308        2.19433375344998
C           -1.88672786630098        2.13391438929873        1.20765268720582
C           -3.03225641890121        1.87290913681416        0.27009564199461
C           -3.46120069011382        0.41864631320953        0.37537410260798
C           -4.34117744135628       -0.10205200416689       -0.56465728730834
C           -4.80770895448461       -1.40961305634727       -0.47406300893859
O           -5.68999654690488       -1.97778070627541       -1.33259397892733
C           -6.21645598974803       -1.39573629306622       -2.37185040062938
C           -4.37446908045865       -2.24753427367546        0.58990778629122
O           -4.87210168537780       -3.49718575291904        0.59283489441653
C           -4.52977435431137       -4.37224637208212        1.64555425016779
C           -3.49052580861873       -1.71775175490318        1.51970223248738
C           -3.04716252586161       -0.40561352066349        1.41715366437544
C           -2.49985666322505        2.17622794028671       -1.15332851432206
C           -1.52989617230916        1.12343900224443       -1.71707687097841
C           -0.19750086823240        1.12719331746042       -1.07854153866897
N            0.47712537481258        0.05100011770784       -0.70027362185387
C            1.85876989184914        0.15082668293871       -0.29129378628347
C            2.81845518307735       -0.29017460679987       -1.41338397906309
C            4.24215254767206       -0.10920513127716       -0.96672355247099
C            4.89286971427197        1.09918653335198       -1.15767713697878
C            6.19561302997001        1.28059756459783       -0.72082909207332
C            6.87454275204762        0.25517781439913       -0.07754223046598
O            8.13546998887467        0.31871496688729        0.38589289980070
C            8.87673157514940        1.50358412370462        0.20456965784450
C            6.21382487367589       -0.98862049376906        0.12543801799049
O            6.94498353395139       -1.93011685732975        0.75322443589748
C            6.38929320248121       -3.20509103223504        0.96993139815597
C            4.91012770777458       -1.14543034854248       -0.31888094548852
C           -0.10077865802257       -1.27094915629642       -0.75595759438586
C           -4.28364679315216        2.75787723862130        0.55655195869119
C           -4.89026938519474        2.44870057787234        1.92295410139284
C           -4.00022893411353        4.25284200851144        0.44590198656211
H           -4.67447047754878        0.52685010092477       -1.38373639630537
H           -4.94130201418091        1.52687918663300       -2.87289724636781
H           -6.91447231687927       -2.00482008667004       -2.91733893181907
H           -5.98390310688196       -0.38483154088686       -2.68712791354006
H           -4.83352220581814       -3.96888563170086        2.61519457616612
H           -5.07747347475024       -5.29164900571699        1.44911128596263
H           -3.45653336079587       -4.58439978855670        1.65460070665280
H           -3.15153343069477       -2.31837285742124        2.34808090288001
H           -2.38993779509123       -0.02245669933236        2.18262447539017
H           -3.35218484946931        2.23356830264918       -1.83753584079346
H           -2.00986765072038        3.15005412636822       -1.14710874743717
H           -1.99501681214343        0.14033380460794       -1.68175234967877
H           -1.38268443512914        1.38090081693189       -2.77399954120963
H           -0.96952125388920        1.60159528844009        0.88740483339484
H            0.33090503622271        2.06861207793859       -1.03344757698002
H            2.01868037455436       -0.47524148319684        0.59085768535410
H            2.08306964637240        1.18473182739145       -0.02148584518697
H            2.62550089292785        0.31788787087521       -2.29873570355262
H            2.63344816650746       -1.33516101844789       -1.66466662093204
H            4.39024864142628        1.90952299149973       -1.66338764531035
H            6.67797992229563        2.22897076083828       -0.89092449343864
H            8.41271712297173        2.34924120051237        0.72124862913906
H            8.99509262106430        1.74302159517741       -0.85631940583602
H            9.85374921122055        1.30634615521761        0.64134004533240
H            7.16680980133437       -3.78220042244431        1.46652651233461
H            5.50835239980468       -3.15422062036459        1.61796664861487
H            6.12368136865797       -3.69259799656487        0.02678144131700
H            4.40339618554086       -2.08725139416499       -0.17726137627691
H           -0.26796143019630       -1.58598861146840       -1.78799643137588
H           -1.05454362288492       -1.29162632392366       -0.22331062311759
H            0.57556333428476       -1.97805582412651       -0.28267329006958
H           -5.02178839505051        2.49814915560473       -0.21003535876369
H           -4.19564693080809        2.72422348742358        2.71046867941654
H           -5.13432507176637        1.39331450213004        2.01926758626736
H           -5.80421763330433        3.02210773605880        2.05204483026713
H           -3.23328323047152        4.54807401874405        1.15582121346091
H           -3.69194720709342        4.53221290142835       -0.55759778223765
H           -4.90804973270218        4.80337485583140        0.67796010669129
H           -1.09081462086290        3.02913124394456        2.74090387369809

          :  Hamiltonian                  GFN2-xTB          :
         :: total energy             -99.280118468270 Eh    ::
         :: gradient norm              0.003880945632 Eh/a0 ::
         :: HOMO-LUMO gap              0.626044395116 eV    ::
         :: SCC energy              -100.654156354329 Eh    ::
         :: -> dispersion             -0.078326372877 Eh    ::
         :: repulsion energy           1.372681823671 Eh    ::

    * Orbital Energies and Occupations

         #    Occupation            Energy/Eh            Energy/eV
      -------------------------------------------------------------
         1        2.0000           -0.8511049             -23.1597
       ...           ...                  ...                  ...
        78        1.9982           -0.5319530             -14.4752
        79        1.9976           -0.5275873             -14.3564
        80        1.9974           -0.5264111             -14.3244
        81        1.9968           -0.5229750             -14.2309
        82        1.9953           -0.5169255             -14.0663
        83        1.9948           -0.5152479             -14.0206
        84        1.9925           -0.5095307             -13.8650
        85        1.9920           -0.5085233             -13.8376
        86        1.9770           -0.4916829             -13.3794
        87        1.9631           -0.4840447             -13.1715
        88        1.9254           -0.4725974             -12.8600
        89        1.8322           -0.4589864             -12.4897
        90        1.3276           -0.4319018             -11.7526 (HOMO)
        91        0.6318           -0.4088951             -11.1266 (LUMO)
        92        0.3616           -0.3972059             -10.8085
        93        0.0128           -0.3412793              -9.2867
        94        0.0050           -0.3263395              -8.8802
        95        0.0036           -0.3211531              -8.7390
        96        0.0026           -0.3156410              -8.5890
        97        0.0022           -0.3133112              -8.5256
        98        0.0000           -0.2021531              -5.5009
        99        0.0000           -0.1908459              -5.1932
       100                         -0.1396745              -3.8007
       101                         -0.0738050              -2.0083
       ...                                ...                  ...
       171                          0.5729127              15.5897
      -------------------------------------------------------------
                  HL-Gap            0.0230067 Eh            0.6260 eV

     #   Z          covCN         q      C6AA      α(0)
     1   7 N        1.774    -0.265    27.703     7.794
     2   6 C        2.826     0.101    25.745     8.314
     3   6 C        3.908     0.008    20.386     6.418
     4   6 C        2.974     0.008    27.846     8.656
     5   6 C        2.919    -0.070    29.735     8.942
     6   6 C        2.868     0.103    25.720     8.313
     7   8 O        1.710    -0.095    15.759     5.360
     8   6 C        2.732     0.038    27.137     8.529
     9   6 C        2.861     0.135    25.047     8.203
    10   8 O        1.705    -0.230    17.820     5.700
    11   6 C        3.645     0.025    20.496     6.507
    12   6 C        2.913    -0.074    29.845     8.958
    13   6 C        2.921    -0.047    29.156     8.855
    14   6 C        3.812    -0.070    21.827     6.650
    15   6 C        3.802    -0.069    21.814     6.650
    16   6 C        2.844     0.012    27.736     8.631
    17   7 N        2.729     0.013    21.021     6.810
    18   6 C        3.756    -0.017    20.932     6.523
    19   6 C        3.808    -0.071    21.847     6.654
    20   6 C        2.969     0.000    28.018     8.682
    21   6 C        2.922    -0.048    29.196     8.861
    22   6 C        2.914    -0.067    29.667     8.931
    23   6 C        2.865     0.134    25.064     8.206
    24   8 O        1.706    -0.220    17.647     5.672
    25   6 C        3.645     0.024    20.501     6.507
    26   6 C        2.863     0.134    25.077     8.208
    27   8 O        1.706    -0.223    17.700     5.680
    28   6 C        3.645     0.027    20.460     6.501
    29   6 C        2.919    -0.079    29.984     8.979
    30   6 C        3.700    -0.070    22.007     6.709
    31   6 C        3.854    -0.009    20.694     6.470
    32   6 C        3.756    -0.118    22.817     6.811
    33   6 C        3.755    -0.119    22.826     6.812
    34   1 H        0.925     0.094     1.837     2.120
    35   1 H        0.000    -0.310    60.841    14.262
    36   1 H        0.926     0.102     1.770     2.081
    37   1 H        0.925     0.096     1.822     2.111
    38   1 H        0.924     0.058     2.222     2.331
    39   1 H        0.925     0.084     1.942     2.179
    40   1 H        0.924     0.051     2.308     2.376
    41   1 H        0.926     0.057     2.232     2.336
    42   1 H        0.926     0.046     2.372     2.409
    43   1 H        0.924     0.091     1.871     2.139
    44   1 H        0.925     0.055     2.259     2.350
    45   1 H        0.925     0.065     2.138     2.287
    46   1 H        0.924     0.090     1.881     2.145
    47   1 H        0.922     0.005     2.980     2.700
    48   1 H        0.926     0.073     2.053     2.241
    49   1 H        0.924     0.068     2.112     2.272
    50   1 H        0.924     0.069     2.102     2.267
    51   1 H        0.924     0.057     2.237     2.339
    52   1 H        0.924     0.056     2.245     2.343
    53   1 H        0.926     0.047     2.359     2.402
    54   1 H        0.926     0.060     2.199     2.319
    55   1 H        0.924     0.055     2.254     2.348
    56   1 H        0.924     0.057     2.233     2.337
    57   1 H        0.925     0.083     1.944     2.181
    58   1 H        0.925     0.083     1.951     2.184
    59   1 H        0.924     0.049     2.334     2.389
    60   1 H        0.924     0.053     2.280     2.361
    61   1 H        0.926     0.047     2.353     2.399
    62   1 H        0.924     0.078     1.995     2.209
    63   1 H        0.924     0.077     2.010     2.217
    64   1 H        0.925     0.081     1.973     2.196
    65   1 H        0.924     0.051     2.308     2.376
    66   1 H        0.925     0.068     2.108     2.270
    67   1 H        0.925     0.032     2.552     2.498
    68   1 H        0.925     0.054     2.276     2.359
    69   1 H        0.925     0.061     2.193     2.316
    70   1 H        0.925     0.041     2.438     2.442
    71   1 H        0.925     0.057     2.234     2.337
    72   1 H        0.860     0.158     1.350     1.820

Wiberg/Mayer (AO) data.
largest (>0.10) Wiberg bond orders for each atom

     #   Z sym  total        # sym  WBO       # sym  WBO       # sym  WBO
 ---------------------------------------------------------------------------
     1   7 N    3.039 --     2 C    1.957    72 H    0.941
     2   6 C    3.930 --     1 N    1.957     3 C    0.994    47 H    0.901
     3   6 C    3.973 --     2 C    0.994     4 C    0.972    14 C    0.956
                            31 C    0.938
     4   6 C    3.964 --     5 C    1.402    13 C    1.388     3 C    0.972
     5   6 C    3.871 --     4 C    1.402     6 C    1.363    34 H    0.909
     6   6 C    3.889 --     5 C    1.363     9 C    1.225     7 O    1.049
     7   8 O    2.436 --     8 C    1.297     6 C    1.049
     8   6 C    3.346 --     7 O    1.297    36 H    0.963    37 H    0.949
     9   6 C    3.887 --    12 C    1.381     6 C    1.225    10 O    1.112
    10   8 O    2.267 --     9 C    1.112    11 C    0.972
    11   6 C    3.928 --    39 H    0.977    40 H    0.975    38 H    0.974
                            10 O    0.972
    12   6 C    3.961 --    13 C    1.416     9 C    1.381    41 H    0.963
    13   6 C    3.917 --    12 C    1.416     4 C    1.388    42 H    0.963
    14   6 C    3.946 --    15 C    0.978    44 H    0.971     3 C    0.956
                            43 H    0.939
    15   6 C    3.984 --    16 C    1.065    14 C    0.978    45 H    0.961
                            46 H    0.921
    16   6 C    3.614 --    17 N    1.414    15 C    1.065    48 H    0.956
    17   7 N    3.493 --    16 C    1.414    30 C    0.997    18 C    0.987
    18   6 C    3.954 --    17 N    0.987    50 H    0.968    19 C    0.967
                            49 H    0.964
    19   6 C    3.977 --    20 C    1.008    51 H    0.972    52 H    0.972
                            18 C    0.967
    20   6 C    3.942 --    21 C    1.407    29 C    1.381    19 C    1.008
    21   6 C    3.948 --    22 C    1.418    20 C    1.407    53 H    0.968
    22   6 C    3.958 --    21 C    1.418    23 C    1.381    54 H    0.963
    23   6 C    3.893 --    22 C    1.381    26 C    1.218    24 O    1.113
    24   8 O    2.255 --    23 C    1.113    25 C    0.975
    25   6 C    3.927 --    57 H    0.977    24 O    0.975    55 H    0.972
                            56 H    0.972
    26   6 C    3.896 --    29 C    1.394    23 C    1.218    27 O    1.106
    27   8 O    2.254 --    26 C    1.106    28 C    0.978
    28   6 C    3.931 --    27 O    0.978    58 H    0.977    59 H    0.973
                            60 H    0.973
    29   6 C    3.958 --    26 C    1.394    20 C    1.381    61 H    0.962
    30   6 C    3.958 --    17 N    0.997    64 H    0.977    62 H    0.966
                            63 H    0.964
    31   6 C    3.966 --    33 C    1.008    32 C    1.008    65 H    0.956
                             3 C    0.938
    32   6 C    3.976 --    31 C    1.008    67 H    0.981    68 H    0.980
                            66 H    0.973
    33   6 C    3.978 --    31 C    1.008    70 H    0.981    71 H    0.978
                            69 H    0.975
    34   1 H    0.990 --     5 C    0.909
    35   1 H    0.095
    36   1 H    0.988 --     8 C    0.963
    37   1 H    0.991 --     8 C    0.949
    38   1 H    0.994 --    11 C    0.974
    39   1 H    0.992 --    11 C    0.977
    40   1 H    0.994 --    11 C    0.975
    41   1 H    0.995 --    12 C    0.963
    42   1 H    0.997 --    13 C    0.963
    43   1 H    0.990 --    14 C    0.939
    44   1 H    0.995 --    14 C    0.971
    45   1 H    0.995 --    15 C    0.961
    46   1 H    0.968 --    15 C    0.921
    47   1 H    0.985 --     2 C    0.901
    48   1 H    0.994 --    16 C    0.956
    49   1 H    0.991 --    18 C    0.964
    50   1 H    0.994 --    18 C    0.968
    51   1 H    0.995 --    19 C    0.972
    52   1 H    0.996 --    19 C    0.972
    53   1 H    0.997 --    21 C    0.968
    54   1 H    0.995 --    22 C    0.963
    55   1 H    0.991 --    25 C    0.972
    56   1 H    0.991 --    25 C    0.972
    57   1 H    0.992 --    25 C    0.977
    58   1 H    0.992 --    28 C    0.977
    59   1 H    0.993 --    28 C    0.973
    60   1 H    0.992 --    28 C    0.973
    61   1 H    0.996 --    29 C    0.962
    62   1 H    0.985 --    30 C    0.966
    63   1 H    0.988 --    30 C    0.964
    64   1 H    0.993 --    30 C    0.977
    65   1 H    0.988 --    31 C    0.956
    66   1 H    0.990 --    32 C    0.973
    67   1 H    0.996 --    32 C    0.981
    68   1 H    0.993 --    32 C    0.980
    69   1 H    0.991 --    33 C    0.975
    70   1 H    0.995 --    33 C    0.981
    71   1 H    0.992 --    33 C    0.978
    72   1 H    0.969 --     1 N    0.941
 ---------------------------------------------------------------------------

molecular dipole:
                 x           y           z       tot (Debye)
 q only:        1.169      -1.233       0.164
   full:        1.449      -1.377       0.023       5.080

           -------------------------------------------------
          | TOTAL ENERGY              -99.280118468270 Eh   |
          | GRADIENT NORM               0.003880945632 Eh/α |
          | HOMO-LUMO GAP               0.626044395116 eV   |
           -------------------------------------------------

 * finished run on 2024/04/06 at 11:12:47.653
