   * xtb version 6.6.1 (8d0f1dd) compiled by 'conda@1efc2f54142f' on 2023-08-01
          program call               : xtb struc.xyz --opt loose --input .xc1 --gfn2

   ID    Z sym.   atoms
    1    7 N      1, 17
    2    6 C      2-6, 8, 9, 11-16, 18-23, 25, 26, 28-33
    3    8 O      7, 10, 24, 27
    4    1 H      34-72
constraining bond 29 52 to    3.7133300 Å, actual value:    2.6544603 Å

          :  Hamiltonian                  GFN2-xTB          :
 * total energy  :   -99.6043257 Eh     change       -0.4035485E-08 Eh
 * total energy  :   -99.8717819 Eh     change       -0.2674562E+00 Eh
 * total energy  :  -100.1932151 Eh     change       -0.3214332E+00 Eh
 * total energy  :  -100.5160038 Eh     change       -0.3227887E+00 Eh
 * total energy  :  -100.5665293 Eh     change       -0.5052551E-01 Eh
 * total energy  :  -100.5622314 Eh     change        0.4297896E-02 Eh
 * total energy  :  -100.6536943 Eh     change       -0.9146289E-01 Eh
 * total energy  :  -100.6866984 Eh     change       -0.3300404E-01 Eh
 * total energy  :  -100.7128390 Eh     change       -0.2614061E-01 Eh
 * total energy  :  -100.7065141 Eh     change        0.6324930E-02 Eh
 * total energy  :  -100.7772899 Eh     change       -0.3399257E-03 Eh
 * total energy  :  -100.7775223 Eh     change       -0.2323446E-03 Eh
 * total energy  :  -100.7777219 Eh     change       -0.1996189E-03 Eh
 * total energy  :  -100.7779181 Eh     change       -0.1962419E-03 Eh
 * total energy  :  -100.7780778 Eh     change       -0.1596941E-03 Eh
 * total energy  :  -100.7781928 Eh     change       -0.1149436E-03 Eh
 * total energy  :  -100.7782783 Eh     change       -0.8550647E-04 Eh
 * total energy  :  -100.7783422 Eh     change       -0.6394282E-04 Eh
 * total energy  :  -100.7783791 Eh     change       -0.3683523E-04 Eh
   *** GEOMETRY OPTIMIZATION CONVERGED AFTER 46 ITERATIONS ***

 final structure:
================
72
 xtb: 6.6.1 (8d0f1dd)
N           -1.72825333408520        2.80791232469526        2.20396877870087
C           -1.77724994990970        1.98813196999305        1.26282577392804
C           -2.93345959710998        1.84948739297084        0.31182521390689
C           -3.43171382791652        0.41362254832009        0.33688623163582
C           -4.32347206400938       -0.03579491341234       -0.63935769998657
C           -4.82200204302605       -1.32775773009837       -0.62438230885060
O           -5.69232822132617       -1.83867886848433       -1.52206824512373
C           -6.25614153692742       -0.99007336579545       -2.49357741795412
C           -4.41351883815722       -2.22414888208098        0.39875744690110
O           -4.94188423676702       -3.46429234918694        0.33221059975704
C           -4.66727901275125       -4.37879756802902        1.36736311128864
C           -3.53480757363287       -1.76999705216297        1.36842265746208
C           -3.05631237132895       -0.46661703264644        1.33910736614531
C           -2.36197943416801        2.21067256095948       -1.08621830141860
C           -1.49611861886944        1.11694352483562       -1.73018782762726
C           -0.19571875226362        0.91225265419371       -1.05549622460034
N            0.40622016625192       -0.26670907222887       -0.92522850785163
C            1.69717238258214       -0.35455718747358       -0.26744250309121
C            2.73428444342974        0.55727134552532       -0.85640508219673
C            4.06280758948198        0.45145514279468       -0.63121109937949
C            4.97159574022299        1.41285044831432       -1.16253766219703
C            6.31462556463343        1.33974509159594       -0.96987910454820
C            6.91119615086293        0.27587478334056       -0.23769306328219
O            8.24615782334882        0.14323616907072       -0.03848332945328
C            9.12129513932067        1.12348807133489       -0.54430173772776
C            6.11424452469467       -0.70696279474083        0.30794385082619
O            6.73631354850419       -1.70033588555905        0.97060843760510
C            5.99131440250362       -2.75267233971486        1.53452298402228
C            4.60621616630046       -0.70648713665429        0.19228943106388
C           -0.25855056284493       -1.48735897896440       -1.31489785243019
C           -4.13414394092817        2.78347223553714        0.64304796999471
C           -4.72142521835740        2.46987160101660        2.01698914395641
C           -3.78957381155319        4.26808459102622        0.55763581972619
H           -4.64447949322411        0.64220148857273       -1.41298062705874
H           -6.78108473809985       -0.14741790839648       -2.03372959282706
H           -6.97007547648037       -1.60479659860176       -3.03815387176074
H           -5.49959396016021       -0.61481456951495       -3.19058541553325
H           -4.99268019782998       -3.99435702136421        2.33861162176653
H           -5.23611935208147       -5.27418800658431        1.12496470392374
H           -3.60216025222432       -4.62844928517070        1.41181399154765
H           -3.22548645873345       -2.41997703225257        2.17072080569211
H           -2.40463425787405       -0.14041519683451        2.13480944258552
H           -3.19429776075199        2.41694547501720       -1.75884644506039
H           -1.77707468297739        3.12673863649786       -0.99581522034584
H           -2.06641132168571        0.19059125380220       -1.77916736862820
H           -1.29482467015125        1.43744171186371       -2.76172196758474
H           -0.94574983147100        1.30811692034882        0.99121530201796
H            0.37021227114014        1.78421264445308       -0.76845461739024
H            2.03450704260246       -1.39181443765515       -0.32293256010085
H            1.56979731571648       -0.11179928113329        0.80207474121671
H            2.37573036618927        1.36827306264410       -1.46874518677079
H            4.34681518002240       -1.39019023074626       -0.09710897373522
H            4.55718192360126        2.22830834861727       -1.73457041513462
H            6.94730918590208        2.10410939461588       -1.38809882063181
H            8.92782453443765        2.10460789532542       -0.10052860642037
H            9.06516182483214        1.19523269641323       -1.63548984864687
H           10.11863954951677        0.79180727067223       -0.25940447179925
H            6.72463406053197       -3.41863055370384        1.98476035781506
H            5.30741948812789       -2.39469601925970        2.31102427784468
H            5.42519053938101       -3.30348020553770        0.77699753047366
H            4.23315955446666       -0.54883127378127        1.22525052092376
H           -0.55696777544291       -1.44211448468504       -2.36276188544156
H           -1.15036066002186       -1.65858560769229       -0.70332605490892
H            0.41253218754864       -2.33257471769585       -1.18987404755521
H           -4.90434739028456        2.56972977939079       -0.10743483721222
H           -4.00296331088324        2.71244194513622        2.79350389830881
H           -4.99133299247746        1.41965296385419        2.09881649019269
H           -5.61616612930244        3.06595986678612        2.17567175821145
H           -2.98739496625598        4.50757742404670        1.24826442122896
H           -3.49924047073066        4.56162302584738       -0.44753838079970
H           -4.66382214263456        4.85165359158485        0.83413589290821
H           -0.87984183144776        2.84091525932613        2.76086145209638

          :  Hamiltonian                  GFN2-xTB          :
         :: total energy            -100.778379084558 Eh    ::
         :: gradient norm              0.003332501821 Eh/a0 ::
         :: HOMO-LUMO gap              1.278832374589 eV    ::
         :: SCC energy              -100.755287106335 Eh    ::
         :: -> dispersion             -0.074806238349 Eh    ::
         :: repulsion energy           1.505208183890 Eh    ::

    * Orbital Energies and Occupations

         #    Occupation            Energy/Eh            Energy/eV
      -------------------------------------------------------------
         1        2.0000           -0.8214483             -22.3527
       ...           ...                  ...                  ...
        78        1.9991           -0.5330435             -14.5049
        79        1.9985           -0.5248100             -14.2808
        80        1.9985           -0.5245659             -14.2742
        81        1.9984           -0.5241807             -14.2637
        82        1.9978           -0.5184821             -14.1086
        83        1.9963           -0.5106157             -13.8946
        84        1.9958           -0.5084130             -13.8346
        85        1.9950           -0.5057643             -13.7625
        86        1.9891           -0.4932925             -13.4232
        87        1.9831           -0.4863337             -13.2338
        88        1.9444           -0.4672011             -12.7132
        89        1.8879           -0.4556220             -12.3981
        90        1.6785           -0.4370765             -11.8935 (HOMO)
        91        0.4232           -0.3900803             -10.6146 (LUMO)
        92        0.0967           -0.3637259              -9.8975
        93        0.0154           -0.3339363              -9.0869
        94        0.0040           -0.3124876              -8.5032
        95        0.0032           -0.3090662              -8.4101
        96        0.0009           -0.2884656              -7.8495
        97        0.0000           -0.2174557              -5.9173
        98        0.0000           -0.1866365              -5.0786
        99                         -0.1444489              -3.9307
       100                         -0.0855688              -2.3284
       101                         -0.0688325              -1.8730
       ...                                ...                  ...
       171                          1.1113042              30.2401
      -------------------------------------------------------------
                  HL-Gap            0.0469962 Eh            1.2788 eV

     #   Z          covCN         q      C6AA      α(0)
     1   7 N        1.774    -0.273    27.904     7.822
     2   6 C        2.828     0.102    25.728     8.312
     3   6 C        3.908     0.006    20.417     6.423
     4   6 C        2.975    -0.000    28.026     8.684
     5   6 C        2.921    -0.081    30.019     8.985
     6   6 C        2.862     0.128    25.200     8.228
     7   8 O        1.706    -0.234    17.877     5.709
     8   6 C        3.644     0.029    20.427     6.496
     9   6 C        2.864     0.127    25.214     8.231
    10   8 O        1.706    -0.232    17.852     5.705
    11   6 C        3.645     0.028    20.431     6.496
    12   6 C        2.914    -0.075    29.869     8.962
    13   6 C        2.922    -0.053    29.317     8.879
    14   6 C        3.813    -0.064    21.715     6.633
    15   6 C        3.802    -0.070    21.836     6.653
    16   6 C        2.845     0.005    27.903     8.657
    17   7 N        2.729     0.007    21.132     6.827
    18   6 C        3.753    -0.012    20.843     6.510
    19   6 C        2.903    -0.082    30.052     8.989
    20   6 C        2.950     0.005    27.915     8.666
    21   6 C        2.913    -0.049    29.217     8.863
    22   6 C        2.908    -0.053    29.317     8.878
    23   6 C        2.848     0.121    25.331     8.249
    24   8 O        1.706    -0.237    17.927     5.717
    25   6 C        3.642     0.028    20.454     6.502
    26   6 C        2.847     0.120    25.346     8.251
    27   8 O        1.706    -0.211    17.504     5.649
    28   6 C        3.642     0.024    20.526     6.514
    29   6 C        3.812    -0.105    22.484     6.749
    30   6 C        3.699    -0.068    21.972     6.704
    31   6 C        3.853    -0.007    20.674     6.467
    32   6 C        3.756    -0.117    22.790     6.807
    33   6 C        3.755    -0.120    22.854     6.816
    34   1 H        0.926     0.050     2.317     2.380
    35   1 H        0.924     0.053     2.287     2.365
    36   1 H        0.925     0.080     1.982     2.202
    37   1 H        0.924     0.045     2.379     2.412
    38   1 H        0.924     0.054     2.275     2.359
    39   1 H        0.925     0.080     1.984     2.203
    40   1 H        0.924     0.046     2.369     2.407
    41   1 H        0.926     0.050     2.321     2.383
    42   1 H        0.926     0.037     2.485     2.465
    43   1 H        0.925     0.060     2.199     2.319
    44   1 H        0.924     0.054     2.270     2.356
    45   1 H        0.925     0.067     2.114     2.274
    46   1 H        0.923     0.078     2.005     2.214
    47   1 H        0.922     0.002     3.029     2.722
    48   1 H        0.926     0.074     2.045     2.236
    49   1 H        0.924     0.067     2.115     2.274
    50   1 H        0.923     0.063     2.169     2.303
    51   1 H        0.926     0.048     2.341     2.393
    52   1 H        0.930     0.116     1.648     2.007
    53   1 H        0.926     0.054     2.274     2.358
    54   1 H        0.926     0.065     2.146     2.291
    55   1 H        0.924     0.053     2.279     2.361
    56   1 H        0.924     0.053     2.281     2.362
    57   1 H        0.925     0.081     1.971     2.196
    58   1 H        0.925     0.088     1.897     2.154
    59   1 H        0.924     0.054     2.268     2.355
    60   1 H        0.924     0.053     2.285     2.364
    61   1 H        0.922     0.069     2.098     2.265
    62   1 H        0.924     0.079     1.986     2.204
    63   1 H        0.924     0.074     2.038     2.232
    64   1 H        0.925     0.076     2.017     2.221
    65   1 H        0.924     0.036     2.505     2.475
    66   1 H        0.925     0.064     2.148     2.292
    67   1 H        0.925     0.034     2.528     2.487
    68   1 H        0.925     0.050     2.324     2.384
    69   1 H        0.925     0.064     2.154     2.295
    70   1 H        0.925     0.035     2.523     2.484
    71   1 H        0.925     0.053     2.280     2.361
    72   1 H        0.860     0.153     1.378     1.839

Wiberg/Mayer (AO) data.
largest (>0.10) Wiberg bond orders for each atom

     #   Z sym  total        # sym  WBO       # sym  WBO       # sym  WBO
 ---------------------------------------------------------------------------
     1   7 N    3.036 --     2 C    1.953    72 H    0.943
     2   6 C    3.930 --     1 N    1.953     3 C    0.994    47 H    0.905
     3   6 C    3.977 --     2 C    0.994     4 C    0.974    14 C    0.952
                            31 C    0.945
     4   6 C    3.953 --    13 C    1.418     5 C    1.368     3 C    0.974
     5   6 C    3.964 --     6 C    1.403     4 C    1.368    34 H    0.958
     6   6 C    3.908 --     5 C    1.403     9 C    1.226     7 O    1.094
     7   8 O    2.252 --     6 C    1.094     8 C    0.979
     8   6 C    3.934 --     7 O    0.979    36 H    0.977    35 H    0.974
                            37 H    0.974
     9   6 C    3.905 --    12 C    1.394     6 C    1.226    10 O    1.097
    10   8 O    2.251 --     9 C    1.097    11 C    0.979
    11   6 C    3.933 --    10 O    0.979    39 H    0.977    40 H    0.974
                            38 H    0.974
    12   6 C    3.965 --    13 C    1.404     9 C    1.394    41 H    0.964
    13   6 C    3.958 --     4 C    1.418    12 C    1.404    42 H    0.962
    14   6 C    3.976 --    15 C    0.987    44 H    0.972    43 H    0.968
                             3 C    0.952
    15   6 C    3.988 --    16 C    1.060    14 C    0.987    45 H    0.958
                            46 H    0.926
    16   6 C    3.570 --    17 N    1.396    15 C    1.060    48 H    0.954
    17   7 N    3.462 --    16 C    1.396    30 C    1.001    18 C    0.981
    18   6 C    3.960 --    19 C    1.014    17 N    0.981    49 H    0.957
                            50 H    0.938
    19   6 C    3.838 --    20 C    1.678    18 C    1.014    51 H    0.959
    20   6 C    3.967 --    19 C    1.678    21 C    1.193    29 C    0.999
    21   6 C    3.882 --    22 C    1.593    20 C    1.193    53 H    0.965
    22   6 C    3.932 --    21 C    1.593    23 C    1.198    54 H    0.962
    23   6 C    3.856 --    26 C    1.425    22 C    1.198    24 O    1.081
    24   8 O    2.211 --    23 C    1.081    25 C    0.978
    25   6 C    3.930 --    24 O    0.978    57 H    0.976    55 H    0.973
                            56 H    0.973
    26   6 C    3.785 --    23 C    1.425    27 O    1.125    29 C    1.011
    27   8 O    2.268 --    26 C    1.125    28 C    0.978
    28   6 C    3.928 --    27 O    0.978    58 H    0.976    60 H    0.972
                            59 H    0.971
    29   6 C    3.982 --    26 C    1.011    20 C    0.999    52 H    0.948
                            61 H    0.925
    30   6 C    3.959 --    17 N    1.001    64 H    0.976    62 H    0.969
                            63 H    0.963
    31   6 C    3.975 --    32 C    1.009    33 C    1.008    65 H    0.961
                             3 C    0.945
    32   6 C    3.983 --    31 C    1.009    67 H    0.982    68 H    0.982
                            66 H    0.976
    33   6 C    3.982 --    31 C    1.008    70 H    0.983    71 H    0.980
                            69 H    0.976
    34   1 H    0.996 --     5 C    0.958
    35   1 H    0.994 --     8 C    0.974
    36   1 H    0.993 --     8 C    0.977
    37   1 H    0.994 --     8 C    0.974
    38   1 H    0.994 --    11 C    0.974
    39   1 H    0.993 --    11 C    0.977
    40   1 H    0.994 --    11 C    0.974
    41   1 H    0.996 --    12 C    0.964
    42   1 H    0.998 --    13 C    0.962
    43   1 H    0.995 --    14 C    0.968
    44   1 H    0.996 --    14 C    0.972
    45   1 H    0.993 --    15 C    0.958
    46   1 H    0.968 --    15 C    0.926
    47   1 H    0.988 --     2 C    0.905
    48   1 H    0.994 --    16 C    0.954
    49   1 H    0.992 --    18 C    0.957
    50   1 H    0.979 --    18 C    0.938
    51   1 H    0.997 --    19 C    0.959
    52   1 H    0.982 --    29 C    0.948
    53   1 H    0.997 --    21 C    0.965
    54   1 H    0.994 --    22 C    0.962
    55   1 H    0.991 --    25 C    0.973
    56   1 H    0.991 --    25 C    0.973
    57   1 H    0.993 --    25 C    0.976
    58   1 H    0.992 --    28 C    0.976
    59   1 H    0.992 --    28 C    0.971
    60   1 H    0.992 --    28 C    0.972
    61   1 H    0.982 --    29 C    0.925
    62   1 H    0.986 --    30 C    0.969
    63   1 H    0.984 --    30 C    0.963
    64   1 H    0.994 --    30 C    0.976
    65   1 H    0.993 --    31 C    0.961
    66   1 H    0.992 --    32 C    0.976
    67   1 H    0.997 --    32 C    0.982
    68   1 H    0.995 --    32 C    0.982
    69   1 H    0.993 --    33 C    0.976
    70   1 H    0.997 --    33 C    0.983
    71   1 H    0.994 --    33 C    0.980
    72   1 H    0.972 --     1 N    0.943
 ---------------------------------------------------------------------------

molecular dipole:
                 x           y           z       tot (Debye)
 q only:        1.449      -0.471      -0.821
   full:        1.652      -0.630      -0.842       4.979

           -------------------------------------------------
          | TOTAL ENERGY             -100.778379084558 Eh   |
          | GRADIENT NORM               0.003332501821 Eh/α |
          | HOMO-LUMO GAP               1.278832374589 eV   |
           -------------------------------------------------

 * finished run on 2024/04/06 at 11:15:04.580
