   * xtb version 6.6.1 (8d0f1dd) compiled by 'conda@1efc2f54142f' on 2023-08-01
          program call               : xtb xtbopt.xyz --opt crude --input .xc2 --gfn2

   ID    Z sym.   atoms
    1    7 N      1, 17
    2    6 C      2-6, 8, 9, 11-16, 18-23, 25, 26, 28-33
    3    8 O      7, 10, 24, 27
    4    1 H      34-72
########################################################################
[WARNING] Please study the warnings concerning your input carefully
-1- readin_getIntValue: could not parse ''
########################################################################

          :  Hamiltonian                  GFN2-xTB          :
 * total energy  :   -99.2487716 Eh     change       -0.2508216E-10 Eh
 * total energy  :   -99.3584217 Eh     change       -0.1096500E+00 Eh
 * total energy  :   -99.3598651 Eh     change       -0.1443484E-02 Eh
 * total energy  :   -99.3607273 Eh     change       -0.8621563E-03 Eh
 * total energy  :   -99.3608306 Eh     change       -0.1033420E-03 Eh
   *** GEOMETRY OPTIMIZATION CONVERGED AFTER 5 ITERATIONS ***

 final structure:
================
72
 xtb: 6.6.1 (8d0f1dd)
N           -1.72549173766488        2.80173127285757        2.20726773466507
C           -1.77582398117735        1.98487397523284        1.26360521795727
C           -2.93332003652973        1.84859124902724        0.31368714501700
C           -3.43169072266839        0.41265779188582        0.33713742994996
C           -4.32256904349506       -0.03575537605720       -0.64037364557062
C           -4.82110894274475       -1.32773136917106       -0.62713046009523
O           -5.69030625501266       -1.83778112272430       -1.52646706287803
C           -6.25112585587850       -0.98861679070054       -2.49932666151446
C           -4.41396038946687       -2.22498438074890        0.39578201370338
O           -4.94231047391495       -3.46509441954641        0.32730268537100
C           -4.66953598592259       -4.38047482773406        1.36223873486895
C           -3.53645314380937       -1.77169461115893        1.36700145963204
C           -3.05755593642600       -0.46843270194023        1.33916858882957
C           -2.36421721561137        2.21245219695914       -1.08462095052130
C           -1.49739814745973        1.12073499292265       -1.73040906505254
C           -0.19638817646694        0.91968059125767       -1.05578206244272
N            0.40697155648291       -0.25828512382358       -0.92254087008978
C            1.69712399467403       -0.33988193927884       -0.26349513679041
C            2.73346413455722        0.56714504679615       -0.85820847505712
C            4.06169791575960        0.46413061993224       -0.62546677292496
C            4.97397276035870        1.41514987353043       -1.17337684863272
C            6.31626084325774        1.34504004132465       -0.97388391876263
C            6.91234834365490        0.28973880822465       -0.23030200526714
O            8.24815096161804        0.15069463757303       -0.03780405728238
C            9.12703872838121        1.12332453439651       -0.55465132924155
C            6.11087089205744       -0.68595228506635        0.32698068779848
O            6.73104555786240       -1.67983978278536        0.98978118435726
C            5.99185889498929       -2.73516014597032        1.55345924539446
C            4.61844783910525       -0.64953552716887        0.22304003091872
C           -0.25433714444447       -1.48167938304276       -1.30977580272132
C           -4.13317422009109        2.78242266239953        0.64826368150638
C           -4.71938437825599        2.46628305023795        2.02204488528749
C           -3.78717124690059        4.26682348954308        0.56568159914021
H           -4.64284343329845        0.64305944893305       -1.41361465746548
H           -6.77595493125114       -0.14513294577420       -2.04077590204407
H           -6.96481591997080       -1.60247771171602       -3.04526588299157
H           -5.49254855599425       -0.61452413446431       -3.19490005424099
H           -4.99647867548765       -3.99672053727959        2.33323892561949
H           -5.23817781575711       -5.27554370011562        1.11816658072696
H           -3.60450221283908       -4.63035034777297        1.40821194803132
H           -3.22830519790349       -2.42239319404886        2.16924235936909
H           -2.40657786740075       -0.14298007447591        2.13579049763163
H           -3.19768630854690        2.41917183897425       -1.75564636555501
H           -1.77979421611071        3.12876110862426       -0.99353365853223
H           -2.06527644369009        0.19284460620150       -1.77905482753864
H           -1.29744503647858        1.44149637387794       -2.76209325757725
H           -0.94511845284936        1.30518156584388        0.98938312378866
H            0.36936923252088        1.79269174040646       -0.77168243985467
H            2.03997806994390       -1.37704376668810       -0.31335088825073
H            1.57028172386799       -0.09819402226887        0.80568055334917
H            2.37797812676092        1.35887136065111       -1.49700320304639
H            4.26884276710388       -1.60725297820131       -0.18141862084456
H            4.56464412285385        2.22155847379309       -1.76176666989784
H            6.95146759426964        2.10202296449439       -1.40351737446761
H            8.93421690264008        2.11094811493626       -0.12406516783310
H            9.07282000035481        1.18029080779825       -1.64614785830961
H           10.12276454988230        0.79415608170632       -0.26336892270476
H            6.72765221082647       -3.39225099067894        2.01346859533118
H            5.29507135842050       -2.38222252197694        2.31966383920415
H            5.44050524666863       -3.29639273475109        0.79206793246184
H            4.20334450938651       -0.57024145721285        1.23793289833697
H           -0.54477633641768       -1.44351506646167       -2.36066431741174
H           -1.14943944770755       -1.65098073301402       -0.70357274231739
H            0.41789281667056       -2.32478365756729       -1.17501461517866
H           -4.90425814294736        2.57084157065458       -0.10192960400631
H           -3.99966456536472        2.70560609655062        2.79838531824619
H           -4.99099963647663        1.41633594882968        2.10140272369714
H           -5.61289487991512        3.06352507698143        2.18325122536987
H           -2.98389456207838        4.50393820017000        1.25588237432750
H           -3.49756250956841        4.56220414199822       -0.43917604560287
H           -4.66040273151488        4.85085405684599        0.84442327161750
H           -0.87682514442435        2.83220547151146        2.76380855161956

          :  Hamiltonian                  GFN2-xTB          :
         :: total energy             -99.360830635091 Eh    ::
         :: gradient norm              0.002578964874 Eh/a0 ::
         :: HOMO-LUMO gap              1.273266089911 eV    ::
         :: SCC energy              -100.731211874996 Eh    ::
         :: -> dispersion             -0.074829081973 Eh    ::
         :: repulsion energy           1.369067949299 Eh    ::

    * Orbital Energies and Occupations

         #    Occupation            Energy/Eh            Energy/eV
      -------------------------------------------------------------
         1        2.0000           -0.8209972             -22.3405
       ...           ...                  ...                  ...
        78        1.9991           -0.5329745             -14.5030
        79        1.9985           -0.5247582             -14.2794
        80        1.9985           -0.5245129             -14.2727
        81        1.9984           -0.5241171             -14.2620
        82        1.9978           -0.5183925             -14.1062
        83        1.9963           -0.5105564             -13.8929
        84        1.9958           -0.5083582             -13.8331
        85        1.9950           -0.5056997             -13.7608
        86        1.9890           -0.4931367             -13.4189
        87        1.9831           -0.4862473             -13.2315
        88        1.9448           -0.4671668             -12.7123
        89        1.8882           -0.4555286             -12.3956
        90        1.6753           -0.4367575             -11.8848 (HOMO)
        91        0.4236           -0.3899658             -10.6115 (LUMO)
        92        0.0987           -0.3639352              -9.9032
        93        0.0155           -0.3339045              -9.0860
        94        0.0040           -0.3123940              -8.5007
        95        0.0032           -0.3089814              -8.4078
        96        0.0009           -0.2884642              -7.8495
        97        0.0000           -0.2189286              -5.9574
        98        0.0000           -0.1865495              -5.0763
        99                         -0.1441633              -3.9229
       100                         -0.0824586              -2.2438
       101                         -0.0654367              -1.7806
       ...                                ...                  ...
       171                          0.5768695              15.6974
      -------------------------------------------------------------
                  HL-Gap            0.0467917 Eh            1.2733 eV

     #   Z          covCN         q      C6AA      α(0)
     1   7 N        1.774    -0.273    27.906     7.823
     2   6 C        2.828     0.102    25.728     8.312
     3   6 C        3.908     0.006    20.417     6.423
     4   6 C        2.975    -0.000    28.027     8.684
     5   6 C        2.920    -0.081    30.019     8.985
     6   6 C        2.862     0.128    25.200     8.228
     7   8 O        1.706    -0.234    17.877     5.709
     8   6 C        3.644     0.029    20.427     6.496
     9   6 C        2.864     0.127    25.214     8.231
    10   8 O        1.706    -0.232    17.853     5.705
    11   6 C        3.645     0.028    20.431     6.496
    12   6 C        2.914    -0.075    29.868     8.962
    13   6 C        2.922    -0.053    29.316     8.879
    14   6 C        3.813    -0.064    21.715     6.633
    15   6 C        3.802    -0.070    21.835     6.653
    16   6 C        2.845     0.005    27.905     8.657
    17   7 N        2.729     0.007    21.129     6.827
    18   6 C        3.753    -0.011    20.833     6.509
    19   6 C        2.903    -0.082    30.038     8.987
    20   6 C        2.951     0.009    27.819     8.651
    21   6 C        2.913    -0.049    29.208     8.862
    22   6 C        2.908    -0.053    29.316     8.878
    23   6 C        2.849     0.122    25.321     8.247
    24   8 O        1.706    -0.237    17.924     5.716
    25   6 C        3.642     0.027    20.460     6.503
    26   6 C        2.847     0.125    25.261     8.237
    27   8 O        1.706    -0.209    17.479     5.645
    28   6 C        3.642     0.024    20.520     6.513
    29   6 C        3.811    -0.075    21.930     6.666
    30   6 C        3.699    -0.068    21.972     6.704
    31   6 C        3.853    -0.007    20.673     6.467
    32   6 C        3.756    -0.117    22.790     6.807
    33   6 C        3.755    -0.120    22.854     6.817
    34   1 H        0.926     0.050     2.317     2.380
    35   1 H        0.924     0.053     2.287     2.365
    36   1 H        0.925     0.080     1.982     2.202
    37   1 H        0.924     0.045     2.380     2.412
    38   1 H        0.924     0.054     2.275     2.359
    39   1 H        0.925     0.080     1.984     2.203
    40   1 H        0.924     0.046     2.369     2.407
    41   1 H        0.926     0.050     2.321     2.383
    42   1 H        0.926     0.037     2.485     2.465
    43   1 H        0.925     0.060     2.199     2.319
    44   1 H        0.924     0.054     2.269     2.356
    45   1 H        0.925     0.067     2.114     2.274
    46   1 H        0.923     0.078     2.005     2.214
    47   1 H        0.922     0.002     3.028     2.721
    48   1 H        0.926     0.074     2.044     2.236
    49   1 H        0.924     0.067     2.119     2.277
    50   1 H        0.923     0.063     2.168     2.303
    51   1 H        0.926     0.050     2.322     2.383
    52   1 H        0.924     0.069     2.102     2.267
    53   1 H        0.926     0.054     2.269     2.355
    54   1 H        0.926     0.064     2.147     2.291
    55   1 H        0.924     0.053     2.278     2.360
    56   1 H        0.924     0.053     2.277     2.360
    57   1 H        0.925     0.081     1.968     2.194
    58   1 H        0.925     0.089     1.888     2.149
    59   1 H        0.924     0.054     2.269     2.356
    60   1 H        0.924     0.053     2.281     2.362
    61   1 H        0.923     0.071     2.070     2.250
    62   1 H        0.924     0.079     1.986     2.204
    63   1 H        0.924     0.075     2.034     2.231
    64   1 H        0.925     0.076     2.020     2.222
    65   1 H        0.924     0.036     2.505     2.475
    66   1 H        0.925     0.064     2.148     2.292
    67   1 H        0.925     0.034     2.528     2.486
    68   1 H        0.925     0.050     2.324     2.384
    69   1 H        0.925     0.064     2.154     2.295
    70   1 H        0.925     0.034     2.523     2.484
    71   1 H        0.925     0.053     2.280     2.361
    72   1 H        0.860     0.153     1.378     1.839

Wiberg/Mayer (AO) data.
largest (>0.10) Wiberg bond orders for each atom

     #   Z sym  total        # sym  WBO       # sym  WBO       # sym  WBO
 ---------------------------------------------------------------------------
     1   7 N    3.036 --     2 C    1.953    72 H    0.943
     2   6 C    3.930 --     1 N    1.953     3 C    0.994    47 H    0.905
     3   6 C    3.977 --     2 C    0.994     4 C    0.974    14 C    0.952
                            31 C    0.945
     4   6 C    3.953 --    13 C    1.418     5 C    1.368     3 C    0.974
     5   6 C    3.964 --     6 C    1.403     4 C    1.368    34 H    0.958
     6   6 C    3.908 --     5 C    1.403     9 C    1.227     7 O    1.094
     7   8 O    2.252 --     6 C    1.094     8 C    0.979
     8   6 C    3.934 --     7 O    0.979    36 H    0.977    35 H    0.974
                            37 H    0.974
     9   6 C    3.905 --    12 C    1.394     6 C    1.227    10 O    1.097
    10   8 O    2.250 --     9 C    1.097    11 C    0.979
    11   6 C    3.933 --    10 O    0.979    39 H    0.977    40 H    0.974
                            38 H    0.974
    12   6 C    3.965 --    13 C    1.404     9 C    1.394    41 H    0.964
    13   6 C    3.958 --     4 C    1.418    12 C    1.404    42 H    0.962
    14   6 C    3.976 --    15 C    0.987    44 H    0.972    43 H    0.968
                             3 C    0.952
    15   6 C    3.988 --    16 C    1.060    14 C    0.987    45 H    0.958
                            46 H    0.926
    16   6 C    3.570 --    17 N    1.395    15 C    1.060    48 H    0.955
    17   7 N    3.461 --    16 C    1.395    30 C    1.001    18 C    0.982
    18   6 C    3.961 --    19 C    1.016    17 N    0.982    49 H    0.954
                            50 H    0.938
    19   6 C    3.837 --    20 C    1.673    18 C    1.016    51 H    0.959
    20   6 C    3.967 --    19 C    1.673    21 C    1.191    29 C    1.009
    21   6 C    3.880 --    22 C    1.592    20 C    1.191    53 H    0.965
    22   6 C    3.932 --    21 C    1.592    23 C    1.201    54 H    0.962
    23   6 C    3.855 --    26 C    1.419    22 C    1.201    24 O    1.082
    24   8 O    2.211 --    23 C    1.082    25 C    0.978
    25   6 C    3.929 --    24 O    0.978    57 H    0.976    55 H    0.973
                            56 H    0.973
    26   6 C    3.787 --    23 C    1.419    27 O    1.125    29 C    1.023
    27   8 O    2.268 --    26 C    1.125    28 C    0.979
    28   6 C    3.928 --    27 O    0.979    58 H    0.976    59 H    0.971
                            60 H    0.969
    29   6 C    3.991 --    26 C    1.023    20 C    1.009    52 H    0.933
                            61 H    0.932
    30   6 C    3.959 --    17 N    1.001    64 H    0.976    62 H    0.969
                            63 H    0.963
    31   6 C    3.975 --    32 C    1.009    33 C    1.008    65 H    0.961
                             3 C    0.945
    32   6 C    3.983 --    31 C    1.009    67 H    0.982    68 H    0.982
                            66 H    0.977
    33   6 C    3.983 --    31 C    1.008    70 H    0.983    71 H    0.980
                            69 H    0.976
    34   1 H    0.996 --     5 C    0.958
    35   1 H    0.994 --     8 C    0.974
    36   1 H    0.993 --     8 C    0.977
    37   1 H    0.994 --     8 C    0.974
    38   1 H    0.994 --    11 C    0.974
    39   1 H    0.993 --    11 C    0.977
    40   1 H    0.994 --    11 C    0.974
    41   1 H    0.996 --    12 C    0.964
    42   1 H    0.998 --    13 C    0.962
    43   1 H    0.995 --    14 C    0.968
    44   1 H    0.996 --    14 C    0.972
    45   1 H    0.993 --    15 C    0.958
    46   1 H    0.968 --    15 C    0.926
    47   1 H    0.988 --     2 C    0.905
    48   1 H    0.994 --    16 C    0.955
    49   1 H    0.992 --    18 C    0.954
    50   1 H    0.979 --    18 C    0.938
    51   1 H    0.997 --    19 C    0.959
    52   1 H    0.985 --    29 C    0.933
    53   1 H    0.997 --    21 C    0.965
    54   1 H    0.994 --    22 C    0.962
    55   1 H    0.991 --    25 C    0.973
    56   1 H    0.991 --    25 C    0.973
    57   1 H    0.993 --    25 C    0.976
    58   1 H    0.992 --    28 C    0.976
    59   1 H    0.992 --    28 C    0.971
    60   1 H    0.992 --    28 C    0.969
    61   1 H    0.983 --    29 C    0.932
    62   1 H    0.986 --    30 C    0.969
    63   1 H    0.984 --    30 C    0.963
    64   1 H    0.994 --    30 C    0.976
    65   1 H    0.993 --    31 C    0.961
    66   1 H    0.993 --    32 C    0.977
    67   1 H    0.997 --    32 C    0.982
    68   1 H    0.995 --    32 C    0.982
    69   1 H    0.993 --    33 C    0.976
    70   1 H    0.997 --    33 C    0.983
    71   1 H    0.994 --    33 C    0.980
    72   1 H    0.972 --     1 N    0.943
 ---------------------------------------------------------------------------

molecular dipole:
                 x           y           z       tot (Debye)
 q only:        1.481      -0.430      -0.815
   full:        1.676      -0.621      -0.838       5.017

           -------------------------------------------------
          | TOTAL ENERGY              -99.360830635091 Eh   |
          | GRADIENT NORM               0.002578964874 Eh/α |
          | HOMO-LUMO GAP               1.273266089911 eV   |
           -------------------------------------------------

 * finished run on 2024/04/06 at 11:15:05.674
