   * xtb version 6.6.1 (8d0f1dd) compiled by 'conda@1efc2f54142f' on 2023-08-01
          program call               : xtb struc.xyz --opt loose --input .xc1 --gfn2

   ID    Z sym.   atoms
    1    7 N      1, 17
    2    6 C      2-6, 8, 9, 11-16, 18-23, 25, 26, 28-33
    3    8 O      7, 10, 24, 27
    4    1 H      34-72
constraining bond 2 45 to    4.7133300 Å, actual value:    3.3752544 Å

          :  Hamiltonian                  GFN2-xTB          :
 * total energy  :   -99.7238209 Eh     change       -0.4035485E-08 Eh
 * total energy  :  -100.0530883 Eh     change       -0.3292674E+00 Eh
 * total energy  :  -100.4676987 Eh     change       -0.4146105E+00 Eh
 * total energy  :  -100.9677340 Eh     change       -0.5000353E+00 Eh
 * total energy  :  -101.5823259 Eh     change       -0.6145919E+00 Eh
 * total energy  :   -96.2900238 Eh     change        0.5292302E+01 Eh
 * total energy  :  -101.6912220 Eh     change       -0.5401198E+01 Eh
 * total energy  :  -101.7638313 Eh     change       -0.7260926E-01 Eh
 * total energy  :  -101.7748530 Eh     change       -0.1102175E-01 Eh
 * total energy  :  -101.8322433 Eh     change       -0.5739028E-01 Eh
 * total energy  :  -102.0208371 Eh     change       -0.4035052E-03 Eh
 * total energy  :  -102.0210919 Eh     change       -0.2547199E-03 Eh
 * total energy  :  -102.0213732 Eh     change       -0.2812917E-03 Eh
 * total energy  :  -102.0217240 Eh     change       -0.3507998E-03 Eh
 * total energy  :  -102.0218920 Eh     change       -0.1680343E-03 Eh
 * total energy  :  -102.0219933 Eh     change       -0.1013656E-03 Eh
 * total energy  :  -102.0220830 Eh     change       -0.8962175E-04 Eh
 * total energy  :  -102.0221322 Eh     change       -0.4924276E-04 Eh
 * total energy  :  -102.0221707 Eh     change       -0.3847158E-04 Eh
   *** GEOMETRY OPTIMIZATION CONVERGED AFTER 37 ITERATIONS ***

 final structure:
================
72
 xtb: 6.6.1 (8d0f1dd)
N           -1.70921797245785        2.85770526195263        2.05935513996254
C           -1.75986032715609        1.91166565013909        1.21580352579283
C           -2.98547587389616        1.80135217750354        0.31273553478810
C           -3.49735771812734        0.37444483065773        0.32389514639662
C           -4.40293373348212       -0.05068041993154       -0.64799707832422
C           -4.93200258712939       -1.33138161726774       -0.63653755395709
O           -5.82233972163193       -1.81351585883541       -1.52340615614059
C           -6.34238759049664       -0.96092872876305       -2.51611545443131
C           -4.53465289004954       -2.24363934807840        0.38151050252605
O           -5.09165948086100       -3.46541863235862        0.31149467546950
C           -4.80088372486742       -4.41412482037551        1.31178866821093
C           -3.63719249182861       -1.81199159582144        1.34690433478876
C           -3.13208570883410       -0.52011663713431        1.32154026197197
C           -2.40982720491972        2.15513530100712       -1.12260420120251
C           -1.51883682912578        1.11905578097008       -1.64784423232431
C           -0.05663803525176        1.14254771606206       -1.43731729720433
N            0.42947862701140        0.14946291616041       -0.47385896308365
C            1.83930272591127        0.24257546564472       -0.18492735043222
C            2.78834835955797       -0.22157656497102       -1.31463015615189
C            4.21372308542709       -0.04460944730873       -0.89047765772497
C            4.87643355760649        1.15488061331734       -1.11860220879427
C            6.18595273843355        1.33549543944925       -0.70638688541145
C            6.86589334963842        0.31870596271244       -0.04743723444615
O            8.13264352347366        0.37817488112191        0.39463290976860
C            8.88839645360423        1.54784190038101        0.17796005616909
C            6.19377220254241       -0.91391475240142        0.19791873272893
O            6.92529581333000       -1.84268896480996        0.83927354656926
C            6.36213948093216       -3.10389903778650        1.11264950184008
C            4.88216757186905       -1.06939105126521       -0.22561873400817
C           -0.07096692405800       -1.18873128590439       -0.68139898129389
C           -4.16402017235297        2.74732519711052        0.65842601417334
C           -4.67748710698276        2.47196997146157        2.07084284322424
C           -3.83465135422527        4.22866764435874        0.50725100099867
H           -4.70756572189315        0.63498063329590       -1.42113329182911
H           -6.84435233737290       -0.09380797425957       -2.07607282385274
H           -7.06950341264198       -1.55800402544511       -3.06289760365369
H           -5.56215807488912       -0.62288511327969       -3.20546740995120
H           -5.10494524691988       -4.05830214411436        2.30062894976563
H           -5.37969096258239       -5.29868113026017        1.05262483832537
H           -3.73660609716989       -4.66859533618980        1.32590137774922
H           -3.33076220998499       -2.47659793050499        2.13820237346378
H           -2.46202114508709       -0.21712222521069        2.11079332557589
H           -3.26686250771657        2.29515281021638       -1.78244016117768
H           -1.88022625894743        3.10341060683578       -1.02016920382794
H           -1.23141686287594        1.40672004911923        1.08085892134068
H           -1.94427359317687        0.27823457086723       -2.16799497987750
H            0.25818566502424        2.12380163150508       -1.06544097062030
H            0.42732038528629        0.97236322586257       -2.41827939906679
H            2.03344279783156       -0.36343183283056        0.70447283400994
H            2.06664480960918        1.28345748293581        0.06021953582693
H            2.59625137042482        0.37286750175535       -2.20937024124448
H            2.59069168844609       -1.27017935678262       -1.54041353811372
H            4.37192330522104        1.95807462249296       -1.63379619574798
H            6.67516665924131        2.27490390837132       -0.90574831146363
H            8.44021490570396        2.41232558736933        0.67685263776727
H            9.00061726138891        1.75893129996489       -0.88956130060195
H            9.86629209948622        1.34762056677580        0.61163672424396
H            7.14524560292148       -3.67070104832659        1.61254773109416
H            5.49586901099487       -3.02038668303274        1.77644451775677
H            6.07116151703895       -3.62101571103735        0.19336005581997
H            4.36784410333902       -2.00153815709920       -0.05099685887033
H            0.12613110993880       -1.56877398712093       -1.69169321814985
H           -1.14936990033542       -1.19225963563658       -0.51376930974183
H            0.39405883807925       -1.85736277249947        0.04071000139822
H           -4.97153599761085        2.50567559976099       -0.04262723281931
H           -3.92327249056598        2.75185181568752        2.80009293109974
H           -4.92553425537683        1.42113885755392        2.20069028301810
H           -5.57170044615063        3.06101618269136        2.25564521263921
H           -2.99548969195077        4.49144774529303        1.14366954351669
H           -3.60440865037146        4.49076536771030       -0.52215983649692
H           -4.69573279710642        4.81653945616878        0.81408457907160
H           -0.86618691385686        2.92210711689826        2.62303810577710

          :  Hamiltonian                  GFN2-xTB          :
         :: total energy            -102.022170686454 Eh    ::
         :: gradient norm              0.003540198262 Eh/a0 ::
         :: HOMO-LUMO gap              0.894856952851 eV    ::
         :: SCC energy              -100.758849018609 Eh    ::
         :: -> dispersion             -0.075133689784 Eh    ::
         :: repulsion energy           1.549720650114 Eh    ::

    * Orbital Energies and Occupations

         #    Occupation            Energy/Eh            Energy/eV
      -------------------------------------------------------------
         1        2.0000           -0.8149581             -22.1761
       ...           ...                  ...                  ...
        78        1.9971           -0.5324975             -14.4900
        79        1.9969           -0.5313890             -14.4598
        80        1.9958           -0.5263933             -14.3239
        81        1.9947           -0.5227458             -14.2246
        82        1.9936           -0.5196219             -14.1396
        83        1.9925           -0.5172164             -14.0742
        84        1.9914           -0.5149226             -14.0118
        85        1.9684           -0.4941919             -13.4476
        86        1.9664           -0.4932290             -13.4214
        87        1.8802           -0.4723808             -12.8541
        88        1.8607           -0.4698192             -12.7844
        89        1.7960           -0.4632254             -12.6050
        90        1.7123           -0.4570218             -12.4362 (HOMO)
        91        0.8544           -0.4241364             -11.5413 (LUMO)
        92        0.0109           -0.3463316              -9.4242
        93        0.0021           -0.3202036              -8.7132
        94        0.0018           -0.3175807              -8.6418
        95        0.0016           -0.3157673              -8.5925
        96        0.0014           -0.3138673              -8.5408
        97        0.0000           -0.1952527              -5.3131
        98        0.0000           -0.1912796              -5.2050
        99                         -0.0948897              -2.5821
       100                         -0.0686687              -1.8686
       101                         -0.0650545              -1.7702
       ...                                ...                  ...
       171                          1.4955473              40.6959
      -------------------------------------------------------------
                  HL-Gap            0.0328854 Eh            0.8949 eV

     #   Z          covCN         q      C6AA      α(0)
     1   7 N        1.776    -0.276    27.990     7.835
     2   6 C        2.831     0.074    26.347     8.411
     3   6 C        3.906     0.011    20.336     6.410
     4   6 C        2.973     0.004    27.933     8.669
     5   6 C        2.920    -0.076    29.907     8.968
     6   6 C        2.862     0.133    25.079     8.209
     7   8 O        1.706    -0.221    17.669     5.675
     8   6 C        3.645     0.026    20.478     6.504
     9   6 C        2.864     0.133    25.087     8.210
    10   8 O        1.706    -0.219    17.631     5.669
    11   6 C        3.645     0.024    20.499     6.507
    12   6 C        2.913    -0.070    29.733     8.942
    13   6 C        2.921    -0.047    29.163     8.856
    14   6 C        3.809    -0.061    21.663     6.625
    15   6 C        2.887    -0.051    29.260     8.868
    16   6 C        3.749     0.001    20.627     6.478
    17   7 N        2.724    -0.130    23.809     7.247
    18   6 C        3.752    -0.002    20.668     6.483
    19   6 C        3.806    -0.070    21.838     6.652
    20   6 C        2.968     0.009    27.819     8.651
    21   6 C        2.922    -0.044    29.087     8.844
    22   6 C        2.912    -0.065    29.616     8.924
    23   6 C        2.864     0.136    25.027     8.200
    24   8 O        1.706    -0.213    17.543     5.655
    25   6 C        3.645     0.023    20.525     6.511
    26   6 C        2.862     0.136    25.027     8.200
    27   8 O        1.706    -0.217    17.600     5.664
    28   6 C        3.645     0.025    20.490     6.506
    29   6 C        2.919    -0.076    29.900     8.967
    30   6 C        3.699    -0.046    21.560     6.641
    31   6 C        3.853    -0.007    20.664     6.465
    32   6 C        3.756    -0.117    22.803     6.809
    33   6 C        3.755    -0.123    22.909     6.825
    34   1 H        0.926     0.055     2.256     2.349
    35   1 H        0.924     0.056     2.247     2.344
    36   1 H        0.925     0.084     1.937     2.176
    37   1 H        0.924     0.052     2.294     2.369
    38   1 H        0.924     0.058     2.220     2.330
    39   1 H        0.925     0.084     1.936     2.176
    40   1 H        0.924     0.054     2.271     2.357
    41   1 H        0.926     0.058     2.225     2.332
    42   1 H        0.926     0.048     2.346     2.395
    43   1 H        0.924     0.070     2.085     2.258
    44   1 H        0.924     0.067     2.117     2.275
    45   1 H        0.931     0.094     1.836     2.119
    46   1 H        0.926     0.050     2.318     2.381
    47   1 H        0.924     0.055     2.263     2.352
    48   1 H        0.922     0.058     2.224     2.332
    49   1 H        0.924     0.054     2.274     2.358
    50   1 H        0.924     0.049     2.326     2.385
    51   1 H        0.924     0.049     2.327     2.386
    52   1 H        0.924     0.052     2.300     2.372
    53   1 H        0.926     0.052     2.298     2.370
    54   1 H        0.926     0.062     2.180     2.309
    55   1 H        0.924     0.059     2.216     2.328
    56   1 H        0.924     0.060     2.202     2.320
    57   1 H        0.925     0.085     1.925     2.170
    58   1 H        0.925     0.084     1.934     2.175
    59   1 H        0.924     0.054     2.275     2.359
    60   1 H        0.924     0.057     2.240     2.341
    61   1 H        0.926     0.053     2.282     2.362
    62   1 H        0.924     0.043     2.412     2.429
    63   1 H        0.924     0.054     2.270     2.356
    64   1 H        0.925     0.056     2.251     2.346
    65   1 H        0.924     0.042     2.425     2.435
    66   1 H        0.925     0.068     2.106     2.270
    67   1 H        0.925     0.037     2.490     2.468
    68   1 H        0.925     0.055     2.257     2.350
    69   1 H        0.925     0.072     2.061     2.245
    70   1 H        0.925     0.040     2.443     2.444
    71   1 H        0.925     0.058     2.228     2.334
    72   1 H        0.860     0.158     1.351     1.821

Wiberg/Mayer (AO) data.
largest (>0.10) Wiberg bond orders for each atom

     #   Z sym  total        # sym  WBO       # sym  WBO       # sym  WBO
 ---------------------------------------------------------------------------
     1   7 N    2.959 --     2 C    1.926    72 H    0.939
     2   6 C    3.936 --     1 N    1.926     3 C    0.978    45 H    0.965
     3   6 C    3.889 --     4 C    0.984     2 C    0.978    31 C    0.951
                            14 C    0.862
     4   6 C    3.932 --    13 C    1.398     5 C    1.375     3 C    0.984
     5   6 C    3.952 --     6 C    1.394     4 C    1.375    34 H    0.956
     6   6 C    3.889 --     5 C    1.394     9 C    1.211     7 O    1.109
     7   8 O    2.252 --     6 C    1.109     8 C    0.976
     8   6 C    3.928 --     7 O    0.976    36 H    0.976    35 H    0.972
                            37 H    0.972
     9   6 C    3.883 --    12 C    1.382     6 C    1.211    10 O    1.113
    10   8 O    2.251 --     9 C    1.113    11 C    0.975
    11   6 C    3.926 --    39 H    0.976    10 O    0.975    40 H    0.972
                            38 H    0.972
    12   6 C    3.953 --    13 C    1.413     9 C    1.382    41 H    0.963
    13   6 C    3.936 --    12 C    1.413     4 C    1.398    42 H    0.962
    14   6 C    3.976 --    15 C    1.114    44 H    0.957    43 H    0.948
                             3 C    0.862
    15   6 C    3.240 --    14 C    1.114    16 C    1.069    46 H    0.970
    16   6 C    3.972 --    15 C    1.069    17 N    0.965    47 H    0.965
                            48 H    0.920
    17   7 N    3.077 --    30 C    1.017    18 C    1.015    16 C    0.965
    18   6 C    3.962 --    17 N    1.015    50 H    0.969    49 H    0.964
                            19 C    0.955
    19   6 C    3.968 --    20 C    1.018    52 H    0.970    51 H    0.967
                            18 C    0.955
    20   6 C    3.924 --    21 C    1.386    29 C    1.382    19 C    1.018
    21   6 C    3.924 --    22 C    1.428    20 C    1.386    53 H    0.967
    22   6 C    3.948 --    21 C    1.428    23 C    1.371    54 H    0.962
    23   6 C    3.868 --    22 C    1.371    26 C    1.206    24 O    1.120
    24   8 O    2.248 --    23 C    1.120    25 C    0.974
    25   6 C    3.923 --    57 H    0.976    24 O    0.974    56 H    0.971
                            55 H    0.971
    26   6 C    3.878 --    29 C    1.388    23 C    1.206    27 O    1.113
    27   8 O    2.250 --    26 C    1.113    28 C    0.976
    28   6 C    3.927 --    27 O    0.976    58 H    0.976    59 H    0.972
                            60 H    0.972
    29   6 C    3.948 --    26 C    1.388    20 C    1.382    61 H    0.961
    30   6 C    3.968 --    17 N    1.017    64 H    0.980    63 H    0.970
                            62 H    0.965
    31   6 C    3.964 --    33 C    1.008    32 C    1.001    65 H    0.956
                             3 C    0.951
    32   6 C    3.969 --    31 C    1.001    67 H    0.981    68 H    0.979
                            66 H    0.973
    33   6 C    3.970 --    31 C    1.008    70 H    0.980    71 H    0.977
                            69 H    0.969
    34   1 H    0.995 --     5 C    0.956
    35   1 H    0.991 --     8 C    0.972
    36   1 H    0.992 --     8 C    0.976
    37   1 H    0.991 --     8 C    0.972
    38   1 H    0.990 --    11 C    0.972
    39   1 H    0.992 --    11 C    0.976
    40   1 H    0.991 --    11 C    0.972
    41   1 H    0.994 --    12 C    0.963
    42   1 H    0.997 --    13 C    0.962
    43   1 H    0.979 --    14 C    0.948
    44   1 H    0.984 --    14 C    0.957
    45   1 H    0.978 --     2 C    0.965
    46   1 H    0.997 --    15 C    0.970
    47   1 H    0.994 --    16 C    0.965
    48   1 H    0.949 --    16 C    0.920
    49   1 H    0.989 --    18 C    0.964
    50   1 H    0.995 --    18 C    0.969
    51   1 H    0.995 --    19 C    0.967
    52   1 H    0.995 --    19 C    0.970
    53   1 H    0.996 --    21 C    0.967
    54   1 H    0.994 --    22 C    0.962
    55   1 H    0.989 --    25 C    0.971
    56   1 H    0.989 --    25 C    0.971
    57   1 H    0.992 --    25 C    0.976
    58   1 H    0.992 --    28 C    0.976
    59   1 H    0.990 --    28 C    0.972
    60   1 H    0.990 --    28 C    0.972
    61   1 H    0.995 --    29 C    0.961
    62   1 H    0.980 --    30 C    0.965
    63   1 H    0.991 --    30 C    0.970
    64   1 H    0.996 --    30 C    0.980
    65   1 H    0.987 --    31 C    0.956
    66   1 H    0.989 --    32 C    0.973
    67   1 H    0.996 --    32 C    0.981
    68   1 H    0.992 --    32 C    0.979
    69   1 H    0.988 --    33 C    0.969
    70   1 H    0.995 --    33 C    0.980
    71   1 H    0.991 --    33 C    0.977
    72   1 H    0.965 --     1 N    0.939
 ---------------------------------------------------------------------------

molecular dipole:
                 x           y           z       tot (Debye)
 q only:        0.449       0.106      -0.291
   full:        0.810      -0.159      -0.572       2.553

           -------------------------------------------------
          | TOTAL ENERGY             -102.022170686454 Eh   |
          | GRADIENT NORM               0.003540198262 Eh/α |
          | HOMO-LUMO GAP               0.894856952851 eV   |
           -------------------------------------------------

 * finished run on 2024/04/06 at 11:15:35.750
