   * xtb version 6.6.1 (8d0f1dd) compiled by 'conda@1efc2f54142f' on 2023-08-01
          program call               : xtb xtbopt.xyz --opt crude --input .xc2 --gfn2

   ID    Z sym.   atoms
    1    7 N      1, 17
    2    6 C      2-6, 8, 9, 11-16, 18-23, 25, 26, 28-33
    3    8 O      7, 10, 24, 27
    4    1 H      34-72
########################################################################
[WARNING] Please study the warnings concerning your input carefully
-1- readin_getIntValue: could not parse ''
########################################################################

          :  Hamiltonian                  GFN2-xTB          :
 * total energy  :   -99.2079096 Eh     change       -0.1057288E-10 Eh
 * total energy  :   -99.3685176 Eh     change       -0.1606080E+00 Eh
 * total energy  :   -99.3703566 Eh     change       -0.1839069E-02 Eh
 * total energy  :   -99.3712949 Eh     change       -0.9382307E-03 Eh
 * total energy  :   -99.3715751 Eh     change       -0.2801870E-03 Eh
   *** GEOMETRY OPTIMIZATION CONVERGED AFTER 5 ITERATIONS ***

 final structure:
================
72
 xtb: 6.6.1 (8d0f1dd)
N           -1.69530212168254        2.84494654619703        2.08936549603082
C           -1.79728514502432        1.94016676123603        1.22843817811215
C           -2.99149028823119        1.80893836694169        0.32137598575364
C           -3.50539042039935        0.38319215112800        0.33203511373632
C           -4.40488364331143       -0.04403224031260       -0.64472713805388
C           -4.92868829947701       -1.32695062183164       -0.63687676940881
O           -5.81115237665130       -1.81385267297130       -1.52953238675122
C           -6.33431370687123       -0.96375885981042       -2.52333148058528
C           -4.53419746584178       -2.23846231753269        0.38287556446617
O           -5.08660178718228       -3.46205775900527        0.30996422176164
C           -4.79676997417465       -4.41071863558755        1.31073800430339
C           -3.64400632070058       -1.80392973340377        1.35390029575712
C           -3.14499770047218       -0.50977996274375        1.33231904449200
C           -2.41014379632887        2.16119965098239       -1.11244673831642
C           -1.52708053552426        1.11955923315067       -1.64019262694851
C           -0.06133894310577        1.13589846791250       -1.45659753835238
N            0.42775917911389        0.15514627939290       -0.48038429658546
C            1.83582723296574        0.25233465758411       -0.18843734174332
C            2.78824103578060       -0.21969882819283       -1.31348613992101
C            4.21277561790103       -0.04240416178808       -0.88754382704331
C            4.87601909707134        1.15659462924917       -1.11676912971603
C            6.18581098866163        1.33649296398452       -0.70527760559812
C            6.86569508312707        0.31929741430225       -0.04689507601349
O            8.13319991769669        0.37880399892756        0.39331927614303
C            8.88722776007689        1.54975241934200        0.17753856611701
C            6.19336752926536       -0.91305278196942        0.19930565231579
O            6.92487651682559       -1.84308788950530        0.83878729675083
C            6.36018268815345       -3.10403471594784        1.11079271373313
C            4.88105582066799       -1.06740817187132       -0.22254914545313
C           -0.06838142117699       -1.18642345298739       -0.67626920986538
C           -4.17691306768728        2.75579351516303        0.65907434146229
C           -4.70047659420034        2.48184474150398        2.06874856469051
C           -3.84468358905989        4.23747622454416        0.51068922064407
H           -4.70908360212476        0.63937978576544       -1.42028079221421
H           -6.84307087362088       -0.10019856478940       -2.08442639873495
H           -7.05617311934582       -1.56611871221625       -3.07141351353956
H           -5.55494161883114       -0.62062271737418       -3.21106466534268
H           -5.10212267421802       -4.05523637018030        2.29922665929656
H           -5.37502943903469       -5.29509700079620        1.05045612061485
H           -3.73244281878591       -4.66464823541997        1.32597873253368
H           -3.33831021825737       -2.46682142375507        2.14683110992675
H           -2.48124113658421       -0.20027037142063        2.12415480997578
H           -3.26653420908840        2.30539504319603       -1.77262659258979
H           -1.87482565652077        3.10611911997687       -1.01069611603776
H           -1.01758464600583        1.20417644300368        1.01372205469882
H           -1.96524234642812        0.27598314049038       -2.14659609148903
H            0.26689910476464        2.11986573589131       -1.10855118926191
H            0.40775768296784        0.93947230780066       -2.43842344442167
H            2.02904128317173       -0.34856006421935        0.70513116140926
H            2.06341789861694        1.29463168087547        0.05071564888431
H            2.59802022568692        0.36995409731720       -2.21169569845240
H            2.58980103382940       -1.26944145986344       -1.53302986637470
H            4.37151236614554        1.95952200123452       -1.63230615406695
H            6.67532843669779        2.27550561354422       -0.90551756527528
H            8.43830224556597        2.41277116487444        0.67825167438330
H            8.99793666269163        1.76274060501167       -0.88979734285749
H            9.86598223679821        1.35044379635076        0.60965496708047
H            7.14157612105688       -3.67191368848801        1.61212323156081
H            5.49260136091478       -3.01997301261858        1.77267575005074
H            6.07091275368010       -3.62040344197344        0.19045187472119
H            4.36567047726165       -1.99877245095125       -0.04735176334596
H            0.12900673509882       -1.57219602687557       -1.68411220000446
H           -1.14631282648934       -1.19419737815090       -0.50917488444309
H            0.39887531471316       -1.84824841949136        0.05001016233642
H           -4.98000813599959        2.51483603664364       -0.04803829730493
H           -3.95218082168037        2.76352411570496        2.80357130848550
H           -4.94755959358187        1.43067253799627        2.19863490034015
H           -5.59768949147363        3.06885501474499        2.24678099880623
H           -3.00534874949457        4.49833664392770        1.14815881158967
H           -3.61339054346599        4.50007779145868       -0.51833665173299
H           -4.70439154822000        4.82807474722180        0.81747185468542
H           -0.84058354361896        2.88873622197022        2.63275115279756

          :  Hamiltonian                  GFN2-xTB          :
         :: total energy             -99.371575058406 Eh    ::
         :: gradient norm              0.007138911774 Eh/a0 ::
         :: HOMO-LUMO gap              0.888745918968 eV    ::
         :: SCC energy              -100.736424470055 Eh    ::
         :: -> dispersion             -0.075173865973 Eh    ::
         :: repulsion energy           1.363624101945 Eh    ::

    * Orbital Energies and Occupations

         #    Occupation            Energy/Eh            Energy/eV
      -------------------------------------------------------------
         1        2.0000           -0.8150502             -22.1786
       ...           ...                  ...                  ...
        78        1.9972           -0.5329801             -14.5031
        79        1.9969           -0.5314955             -14.4627
        80        1.9958           -0.5264179             -14.3246
        81        1.9947           -0.5228313             -14.2270
        82        1.9936           -0.5198789             -14.1466
        83        1.9923           -0.5169012             -14.0656
        84        1.9914           -0.5151412             -14.0177
        85        1.9682           -0.4942487             -13.4492
        86        1.9664           -0.4933858             -13.4257
        87        1.9039           -0.4762133             -12.9584
        88        1.8471           -0.4683846             -12.7454
        89        1.7952           -0.4633083             -12.6073
        90        1.7084           -0.4569232             -12.4335 (HOMO)
        91        0.8536           -0.4242624             -11.5448 (LUMO)
        92        0.0068           -0.3389050              -9.2221
        93        0.0021           -0.3202074              -8.7133
        94        0.0017           -0.3173716              -8.6361
        95        0.0016           -0.3158728              -8.5953
        96        0.0014           -0.3139701              -8.5436
        97        0.0000           -0.1951785              -5.3111
        98        0.0000           -0.1913994              -5.2082
        99                         -0.0952621              -2.5922
       100                         -0.0687986              -1.8721
       101                         -0.0651332              -1.7724
       ...                                ...                  ...
       171                          0.5701193              15.5137
      -------------------------------------------------------------
                  HL-Gap            0.0326608 Eh            0.8887 eV

     #   Z          covCN         q      C6AA      α(0)
     1   7 N        1.775    -0.263    27.665     7.789
     2   6 C        2.829     0.097    25.846     8.331
     3   6 C        3.906     0.015    20.262     6.398
     4   6 C        2.973     0.006    27.892     8.663
     5   6 C        2.920    -0.076    29.902     8.967
     6   6 C        2.862     0.133    25.082     8.209
     7   8 O        1.706    -0.221    17.671     5.676
     8   6 C        3.644     0.026    20.482     6.505
     9   6 C        2.864     0.133    25.086     8.210
    10   8 O        1.706    -0.218    17.626     5.668
    11   6 C        3.645     0.024    20.503     6.508
    12   6 C        2.913    -0.069    29.728     8.941
    13   6 C        2.922    -0.046    29.144     8.853
    14   6 C        3.810    -0.060    21.638     6.621
    15   6 C        2.887    -0.049    29.222     8.863
    16   6 C        3.749     0.002    20.611     6.475
    17   7 N        2.725    -0.127    23.756     7.239
    18   6 C        3.752    -0.001    20.653     6.481
    19   6 C        3.806    -0.070    21.844     6.653
    20   6 C        2.968     0.009    27.818     8.651
    21   6 C        2.922    -0.044    29.085     8.844
    22   6 C        2.912    -0.065    29.614     8.924
    23   6 C        2.864     0.136    25.026     8.200
    24   8 O        1.706    -0.213    17.542     5.655
    25   6 C        3.645     0.023    20.525     6.511
    26   6 C        2.862     0.136    25.025     8.200
    27   8 O        1.706    -0.217    17.599     5.664
    28   6 C        3.645     0.025    20.491     6.506
    29   6 C        2.919    -0.076    29.900     8.967
    30   6 C        3.699    -0.045    21.541     6.638
    31   6 C        3.852    -0.007    20.663     6.465
    32   6 C        3.756    -0.116    22.780     6.805
    33   6 C        3.755    -0.121    22.877     6.820
    34   1 H        0.926     0.055     2.255     2.348
    35   1 H        0.924     0.056     2.246     2.344
    36   1 H        0.925     0.084     1.935     2.175
    37   1 H        0.924     0.052     2.293     2.368
    38   1 H        0.924     0.058     2.218     2.329
    39   1 H        0.925     0.084     1.934     2.175
    40   1 H        0.924     0.054     2.268     2.355
    41   1 H        0.926     0.058     2.219     2.329
    42   1 H        0.926     0.049     2.332     2.388
    43   1 H        0.924     0.071     2.079     2.255
    44   1 H        0.924     0.066     2.125     2.280
    45   1 H        0.924     0.040     2.444     2.445
    46   1 H        0.926     0.050     2.315     2.380
    47   1 H        0.924     0.056     2.249     2.345
    48   1 H        0.922     0.057     2.236     2.339
    49   1 H        0.924     0.053     2.277     2.360
    50   1 H        0.924     0.050     2.325     2.384
    51   1 H        0.924     0.050     2.325     2.384
    52   1 H        0.924     0.052     2.300     2.372
    53   1 H        0.926     0.052     2.296     2.370
    54   1 H        0.926     0.062     2.179     2.309
    55   1 H        0.924     0.059     2.216     2.328
    56   1 H        0.924     0.060     2.201     2.320
    57   1 H        0.925     0.085     1.924     2.169
    58   1 H        0.925     0.084     1.933     2.174
    59   1 H        0.924     0.054     2.274     2.358
    60   1 H        0.924     0.057     2.240     2.340
    61   1 H        0.926     0.053     2.281     2.362
    62   1 H        0.924     0.042     2.418     2.432
    63   1 H        0.924     0.054     2.271     2.357
    64   1 H        0.925     0.056     2.252     2.347
    65   1 H        0.924     0.041     2.435     2.440
    66   1 H        0.925     0.067     2.119     2.276
    67   1 H        0.925     0.036     2.497     2.471
    68   1 H        0.925     0.055     2.263     2.353
    69   1 H        0.925     0.070     2.090     2.261
    70   1 H        0.925     0.040     2.451     2.448
    71   1 H        0.925     0.057     2.233     2.337
    72   1 H        0.860     0.161     1.329     1.806

Wiberg/Mayer (AO) data.
largest (>0.10) Wiberg bond orders for each atom

     #   Z sym  total        # sym  WBO       # sym  WBO       # sym  WBO
 ---------------------------------------------------------------------------
     1   7 N    2.996 --     2 C    1.946    72 H    0.939
     2   6 C    3.930 --     1 N    1.946     3 C    0.994    45 H    0.921
     3   6 C    3.895 --     2 C    0.994     4 C    0.983    31 C    0.947
                            14 C    0.861
     4   6 C    3.932 --    13 C    1.398     5 C    1.376     3 C    0.983
     5   6 C    3.953 --     6 C    1.394     4 C    1.376    34 H    0.956
     6   6 C    3.889 --     5 C    1.394     9 C    1.211     7 O    1.109
     7   8 O    2.251 --     6 C    1.109     8 C    0.976
     8   6 C    3.928 --     7 O    0.976    36 H    0.976    35 H    0.972
                            37 H    0.972
     9   6 C    3.883 --    12 C    1.381     6 C    1.211    10 O    1.113
    10   8 O    2.251 --     9 C    1.113    11 C    0.975
    11   6 C    3.926 --    39 H    0.976    10 O    0.975    40 H    0.972
                            38 H    0.972
    12   6 C    3.952 --    13 C    1.414     9 C    1.381    41 H    0.963
    13   6 C    3.936 --    12 C    1.414     4 C    1.398    42 H    0.962
    14   6 C    3.977 --    15 C    1.114    44 H    0.958    43 H    0.947
                             3 C    0.861
    15   6 C    3.239 --    14 C    1.114    16 C    1.069    46 H    0.970
    16   6 C    3.972 --    15 C    1.069    47 H    0.965    17 N    0.963
                            48 H    0.922
    17   7 N    3.084 --    30 C    1.016    18 C    1.015    16 C    0.963
    18   6 C    3.962 --    17 N    1.015    50 H    0.969    49 H    0.964
                            19 C    0.955
    19   6 C    3.968 --    20 C    1.019    52 H    0.970    51 H    0.967
                            18 C    0.955
    20   6 C    3.924 --    21 C    1.385    29 C    1.382    19 C    1.019
    21   6 C    3.924 --    22 C    1.428    20 C    1.385    53 H    0.967
    22   6 C    3.947 --    21 C    1.428    23 C    1.370    54 H    0.962
    23   6 C    3.868 --    22 C    1.370    26 C    1.206    24 O    1.120
    24   8 O    2.248 --    23 C    1.120    25 C    0.974
    25   6 C    3.923 --    57 H    0.976    24 O    0.974    55 H    0.971
                            56 H    0.971
    26   6 C    3.877 --    29 C    1.388    23 C    1.206    27 O    1.114
    27   8 O    2.250 --    26 C    1.114    28 C    0.976
    28   6 C    3.927 --    27 O    0.976    58 H    0.976    59 H    0.972
                            60 H    0.972
    29   6 C    3.948 --    26 C    1.388    20 C    1.382    61 H    0.961
    30   6 C    3.968 --    17 N    1.016    64 H    0.980    63 H    0.970
                            62 H    0.965
    31   6 C    3.965 --    33 C    1.008    32 C    1.001    65 H    0.957
                             3 C    0.947
    32   6 C    3.970 --    31 C    1.001    67 H    0.981    68 H    0.980
                            66 H    0.974
    33   6 C    3.972 --    31 C    1.008    70 H    0.980    71 H    0.978
                            69 H    0.971
    34   1 H    0.995 --     5 C    0.956
    35   1 H    0.991 --     8 C    0.972
    36   1 H    0.992 --     8 C    0.976
    37   1 H    0.991 --     8 C    0.972
    38   1 H    0.990 --    11 C    0.972
    39   1 H    0.992 --    11 C    0.976
    40   1 H    0.990 --    11 C    0.972
    41   1 H    0.994 --    12 C    0.963
    42   1 H    0.996 --    13 C    0.962
    43   1 H    0.979 --    14 C    0.947
    44   1 H    0.985 --    14 C    0.958
    45   1 H    0.972 --     2 C    0.921
    46   1 H    0.997 --    15 C    0.970
    47   1 H    0.994 --    16 C    0.965
    48   1 H    0.951 --    16 C    0.922
    49   1 H    0.990 --    18 C    0.964
    50   1 H    0.995 --    18 C    0.969
    51   1 H    0.994 --    19 C    0.967
    52   1 H    0.995 --    19 C    0.970
    53   1 H    0.996 --    21 C    0.967
    54   1 H    0.994 --    22 C    0.962
    55   1 H    0.989 --    25 C    0.971
    56   1 H    0.989 --    25 C    0.971
    57   1 H    0.992 --    25 C    0.976
    58   1 H    0.992 --    28 C    0.976
    59   1 H    0.990 --    28 C    0.972
    60   1 H    0.990 --    28 C    0.972
    61   1 H    0.995 --    29 C    0.961
    62   1 H    0.980 --    30 C    0.965
    63   1 H    0.991 --    30 C    0.970
    64   1 H    0.996 --    30 C    0.980
    65   1 H    0.988 --    31 C    0.957
    66   1 H    0.990 --    32 C    0.974
    67   1 H    0.996 --    32 C    0.981
    68   1 H    0.992 --    32 C    0.980
    69   1 H    0.989 --    33 C    0.971
    70   1 H    0.995 --    33 C    0.980
    71   1 H    0.991 --    33 C    0.978
    72   1 H    0.965 --     1 N    0.939
 ---------------------------------------------------------------------------

molecular dipole:
                 x           y           z       tot (Debye)
 q only:        0.421       0.116      -0.305
   full:        0.784      -0.144      -0.591       2.522

           -------------------------------------------------
          | TOTAL ENERGY              -99.371575058406 Eh   |
          | GRADIENT NORM               0.007138911774 Eh/α |
          | HOMO-LUMO GAP               0.888745918968 eV   |
           -------------------------------------------------

 * finished run on 2024/04/06 at 11:15:36.879
