   * xtb version 6.6.1 (8d0f1dd) compiled by 'conda@1efc2f54142f' on 2023-08-01
          program call               : xtb struc.xyz --opt loose --input .xc1 --gfn2

   ID    Z sym.   atoms
    1    7 N      1, 17
    2    6 C      2-6, 8, 9, 11-16, 18-23, 25, 26, 28-33
    3    8 O      7, 10, 24, 27
    4    1 H      34-72
constraining bond 21 23 to    5.0000000 Å, actual value:    2.4085354 Å

          :  Hamiltonian                  GFN2-xTB          :
 * total energy  :   -98.2050231 Eh     change       -0.4035485E-08 Eh
 * total energy  :   -98.4561666 Eh     change       -0.2511435E+00 Eh
 * total energy  :   -98.6153441 Eh     change       -0.1591774E+00 Eh
 * total energy  :   -98.7070148 Eh     change       -0.9167074E-01 Eh
 * total energy  :   -98.7665404 Eh     change       -0.5952556E-01 Eh
 * total energy  :   -98.8073149 Eh     change       -0.4077457E-01 Eh
 * total energy  :   -98.8346689 Eh     change       -0.2735399E-01 Eh
 * total energy  :   -98.8469213 Eh     change       -0.1225240E-01 Eh
 * total energy  :   -98.8548632 Eh     change       -0.7941823E-02 Eh
 * total energy  :   -98.8635710 Eh     change       -0.8707860E-02 Eh
 * total energy  :   -99.2750908 Eh     change       -0.1036650E-03 Eh
 * total energy  :   -99.2751968 Eh     change       -0.1059595E-03 Eh
 * total energy  :   -99.2752958 Eh     change       -0.9904542E-04 Eh
 * total energy  :   -99.2753853 Eh     change       -0.8945012E-04 Eh
 * total energy  :   -99.2754650 Eh     change       -0.7972245E-04 Eh
 * total energy  :   -99.2755327 Eh     change       -0.6772852E-04 Eh
 * total energy  :   -99.2755908 Eh     change       -0.5809051E-04 Eh
 * total energy  :   -99.2756434 Eh     change       -0.5258135E-04 Eh
 * total energy  :   -99.2756912 Eh     change       -0.4784394E-04 Eh
   *** GEOMETRY OPTIMIZATION CONVERGED AFTER 146 ITERATIONS ***

 final structure:
================
72
 xtb: 6.6.1 (8d0f1dd)
N           -2.07542897169506        3.61141905732199        1.69548948674556
C           -2.31643237085943        2.50495631425611        1.23862139552996
C           -2.94788930393400        1.98678165341001        0.02418798916560
C           -3.42146589101027        0.55871369349805        0.24777128314056
C           -3.98641987761516       -0.16983965428659       -0.79980765306308
C           -4.42433789664385       -1.47014441339481       -0.61662044689053
O           -4.99045656205670       -2.24255542747063       -1.56978139437711
C           -5.29704778877948       -1.67379640683804       -2.82119665774447
C           -4.28463544226614       -2.08380102039264        0.65619254627195
O           -4.72300798915587       -3.35799098757464        0.73859727820415
C           -4.68580243679056       -4.01285247514149        1.98460716603257
C           -3.72780712623876       -1.35248433158668        1.69148046747986
C           -3.30511512008694       -0.04528989988992        1.48695911159232
C           -1.87930621152513        2.02850365496945       -1.10528349554569
C           -0.86288570433949        0.88480617452776       -1.05658420344697
C           -0.00756041846169        0.95858479787233        0.20343187406582
N            0.88191907744047       -0.21692789668754        0.44036098382327
C            1.74698880712696        0.04895646407249        1.64455946489777
C            3.15023782440674        0.02320725460244        1.13545195571905
C            3.15864064942950       -0.25796997728076       -0.21521593302875
C            1.82139050027814       -0.39837441163775       -0.65971849369390
C            6.39049950362868        1.16607448564888        0.89524720947940
C            6.60920938826780        0.05569359409696        0.18817797697950
O            7.64569690637960       -0.79482725112649        0.29527856630515
C            8.70174944894803       -0.44551233950875        1.15823747824256
C            5.67621020254121       -0.37058949124183       -0.92640792045874
O            6.49897970402902       -0.71483814358589       -1.94853392327499
C            6.02050678448108       -1.28525803617022       -3.14121615085207
C            4.32059567857112       -0.42984318344595       -1.07279872654786
C            0.08762261870740       -1.44374429735577        0.64347682772118
C           -4.18323808144068        2.87647785204409       -0.35735941039548
C           -5.22744952823926        2.84933711740049        0.75455892611778
C           -3.80803366873501        4.31334328403622       -0.69583945674068
H           -4.09005749473944        0.28989702929881       -1.76891061765522
H           -5.95302956315199       -0.80400394666990       -2.71610249259230
H           -5.81826356448289       -2.45187310990611       -3.37549162466963
H           -4.39245009229400       -1.38778284197148       -3.36811021799816
H           -5.28143898738930       -3.48400860542546        2.73419290792592
H           -5.11726512358702       -4.99652884470536        1.81115127974326
H           -3.65931108462077       -4.12791994106029        2.34742698636504
H           -3.63084585504042       -1.78535729459387        2.67381447431340
H           -2.89767849049899        0.51566785898798        2.31757055293006
H           -2.40099362113832        1.97534131959614       -2.06108750585388
H           -1.35662059196049        2.98468937016428       -1.06270878813906
H           -1.40464403553743       -0.05975622440387       -1.10000047177262
H           -0.22559525685992        0.96056452994490       -1.93837325351737
H           -0.66638124229636        1.06713831304395        1.07346047249299
H            0.64062669368818        1.83615846174781        0.13785537709150
H            1.56985781415423       -0.71868853528900        2.40427188049912
H            1.48359079248339        1.01191496582741        2.09222900255022
H            3.99649707322746        0.16934146883368        1.77216521239462
H            5.52921288659767        1.77193049258293        0.69425803614849
H            1.45174154739279       -0.70386960955875       -1.61251123496886
H            7.06564732785091        1.51268927776026        1.65480662885776
H            8.37162946691451       -0.41657320007676        2.20080988304541
H            9.12990549207560        0.52389375550267        0.88705669837813
H            9.45239356343861       -1.22285534534047        1.03702414684517
H            6.91112739252073       -1.56006671326383       -3.70437678951150
H            5.42380388405266       -2.18223063637078       -2.94674808962432
H            5.43368959004509       -0.56980712624366       -3.72613833976414
H            4.00212141981471       -0.71817523859932       -2.06663425859527
H           -0.42037369136542       -1.72232862058223       -0.27697235011589
H           -0.65502057597995       -1.29338968611722        1.42673826217195
H            0.75969806686033       -2.25527134463436        0.91684405586240
H           -4.62008591134591        2.41395853572051       -1.24789047511501
H           -4.84562999685882        3.32773602620485        1.65300569918635
H           -5.51488473828730        1.82895434500227        0.99778836776524
H           -6.11652447849150        3.38773868162208        0.43686277457714
H           -3.29016776197861        4.78306767095157        0.13675075771941
H           -3.17870431467136        4.36981656824656       -1.57942515611250
H           -4.71330933734078        4.88177713393954       -0.89271195535068
H           -1.62167830849246        3.81213482925850        2.57305088567386

          :  Hamiltonian                  GFN2-xTB          :
         :: total energy             -99.275691226398 Eh    ::
         :: gradient norm              0.003100758238 Eh/a0 ::
         :: HOMO-LUMO gap              0.596260950554 eV    ::
         :: SCC energy              -100.640920471315 Eh    ::
         :: -> dispersion             -0.076245426172 Eh    ::
         :: repulsion energy           1.361302577362 Eh    ::

    * Orbital Energies and Occupations

         #    Occupation            Energy/Eh            Energy/eV
      -------------------------------------------------------------
         1        2.0000           -0.8135564             -22.1380
       ...           ...                  ...                  ...
        78        1.9994           -0.5336730             -14.5220
        79        1.9994           -0.5334517             -14.5160
        80        1.9993           -0.5299077             -14.4195
        81        1.9991           -0.5258401             -14.3088
        82        1.9989           -0.5237749             -14.2526
        83        1.9988           -0.5216423             -14.1946
        84        1.9985           -0.5183528             -14.1051
        85        1.9983           -0.5158669             -14.0375
        86        1.9911           -0.4899972             -13.3335
        87        1.9627           -0.4670299             -12.7085
        88        1.9366           -0.4584181             -12.4742
        89        1.9228           -0.4551765             -12.3860
        90        1.3893           -0.4172801             -11.3548 (HOMO)
        91        0.7262           -0.3953679             -10.7585 (LUMO)
        92        0.0443           -0.3442964              -9.3688
        93        0.0247           -0.3348607              -9.1120
        94        0.0074           -0.3157353              -8.5916
        95        0.0061           -0.3126916              -8.5088
        96        0.0004           -0.2674601              -7.2780
        97        0.0000           -0.2146734              -5.8416
        98        0.0000           -0.1896844              -5.1616
        99        0.0000           -0.1891175              -5.1461
       100                         -0.1217313              -3.3125
       101                         -0.1031479              -2.8068
       ...                                ...                  ...
       171                          0.6085117              16.5584
      -------------------------------------------------------------
                  HL-Gap            0.0219122 Eh            0.5963 eV

     #   Z          covCN         q      C6AA      α(0)
     1   7 N        1.772    -0.195    26.012     7.552
     2   6 C        1.914     0.039    30.098     8.860
     3   6 C        3.906     0.024    20.110     6.374
     4   6 C        2.976    -0.005    28.134     8.700
     5   6 C        2.920    -0.082    30.059     8.991
     6   6 C        2.863     0.127    25.213     8.231
     7   8 O        1.706    -0.237    17.930     5.717
     8   6 C        3.644     0.030    20.412     6.494
     9   6 C        2.865     0.126    25.224     8.232
    10   8 O        1.706    -0.235    17.901     5.712
    11   6 C        3.645     0.029    20.423     6.495
    12   6 C        2.914    -0.077    29.928     8.971
    13   6 C        2.922    -0.057    29.406     8.893
    14   6 C        3.813    -0.063    21.696     6.630
    15   6 C        3.800    -0.070    21.837     6.653
    16   6 C        3.758    -0.030    21.152     6.557
    17   7 N        3.638     0.121    19.168     6.503
    18   6 C        3.807    -0.020    20.927     6.512
    19   6 C        2.967    -0.097    30.449     9.051
    20   6 C        2.979     0.022    27.520     8.605
    21   6 C        2.945    -0.099    30.484     9.055
    22   6 C        2.838    -0.142    31.629     9.216
    23   6 C        2.843     0.146    24.811     8.163
    24   8 O        1.706    -0.230    17.806     5.697
    25   6 C        3.651     0.027    20.434     6.493
    26   6 C        2.829     0.136    25.022     8.197
    27   8 O        1.710    -0.226    17.741     5.687
    28   6 C        3.635     0.025    20.529     6.520
    29   6 C        2.890    -0.093    30.343     9.031
    30   6 C        3.713    -0.078    22.130     6.722
    31   6 C        3.854    -0.007    20.668     6.466
    32   6 C        3.755    -0.112    22.690     6.792
    33   6 C        3.755    -0.120    22.852     6.816
    34   1 H        0.926     0.047     2.359     2.402
    35   1 H        0.924     0.050     2.316     2.380
    36   1 H        0.925     0.079     1.988     2.205
    37   1 H        0.924     0.044     2.395     2.420
    38   1 H        0.924     0.052     2.293     2.368
    39   1 H        0.925     0.079     1.988     2.205
    40   1 H        0.924     0.044     2.392     2.419
    41   1 H        0.926     0.048     2.350     2.397
    42   1 H        0.925     0.033     2.548     2.496
    43   1 H        0.925     0.065     2.143     2.289
    44   1 H        0.924     0.057     2.233     2.337
    45   1 H        0.925     0.057     2.235     2.338
    46   1 H        0.924     0.062     2.173     2.305
    47   1 H        0.924     0.071     2.076     2.253
    48   1 H        0.924     0.076     2.019     2.222
    49   1 H        0.924     0.073     2.049     2.238
    50   1 H        0.924     0.067     2.114     2.274
    51   1 H        0.927     0.055     2.257     2.349
    52   1 H        0.926     0.051     2.309     2.376
    53   1 H        0.927     0.043     2.407     2.426
    54   1 H        0.926     0.059     2.207     2.323
    55   1 H        0.924     0.050     2.318     2.381
    56   1 H        0.924     0.055     2.260     2.351
    57   1 H        0.925     0.076     2.016     2.220
    58   1 H        0.925     0.082     1.958     2.188
    59   1 H        0.924     0.052     2.297     2.370
    60   1 H        0.924     0.050     2.314     2.379
    61   1 H        0.925     0.053     2.279     2.361
    62   1 H        0.925     0.085     1.926     2.170
    63   1 H        0.925     0.077     2.008     2.216
    64   1 H        0.925     0.090     1.875     2.142
    65   1 H        0.924     0.048     2.349     2.397
    66   1 H        0.925     0.045     2.389     2.417
    67   1 H        0.925     0.040     2.445     2.445
    68   1 H        0.925     0.053     2.279     2.361
    69   1 H        0.925     0.058     2.219     2.329
    70   1 H        0.925     0.040     2.444     2.445
    71   1 H        0.925     0.057     2.234     2.337
    72   1 H        0.860     0.193     1.141     1.674

Wiberg/Mayer (AO) data.
largest (>0.10) Wiberg bond orders for each atom

     #   Z sym  total        # sym  WBO       # sym  WBO       # sym  WBO
 ---------------------------------------------------------------------------
     1   7 N    3.118 --     2 C    2.088    72 H    0.913
     2   6 C    3.241 --     1 N    2.088     3 C    1.031
     3   6 C    3.952 --     2 C    1.031     4 C    0.971    14 C    0.937
                            31 C    0.902
     4   6 C    3.953 --    13 C    1.427     5 C    1.366     3 C    0.971
     5   6 C    3.969 --     6 C    1.406     4 C    1.366    34 H    0.959
     6   6 C    3.919 --     5 C    1.406     9 C    1.231     7 O    1.092
     7   8 O    2.258 --     6 C    1.092     8 C    0.979
     8   6 C    3.935 --     7 O    0.979    36 H    0.977    35 H    0.975
                            37 H    0.975
     9   6 C    3.917 --    12 C    1.399     6 C    1.231    10 O    1.095
    10   8 O    2.259 --     9 C    1.095    11 C    0.979
    11   6 C    3.935 --    10 O    0.979    39 H    0.977    40 H    0.975
                            38 H    0.975
    12   6 C    3.969 --     9 C    1.399    13 C    1.398    41 H    0.964
    13   6 C    3.959 --     4 C    1.427    12 C    1.398    42 H    0.956
    14   6 C    3.981 --    15 C    1.004    44 H    0.973    43 H    0.965
                             3 C    0.937
    15   6 C    3.989 --    16 C    1.008    14 C    1.004    46 H    0.971
                            45 H    0.964
    16   6 C    3.924 --    15 C    1.008    48 H    0.970    47 H    0.945
                            17 N    0.931
    17   7 N    3.800 --    30 C    0.961    16 C    0.931    21 C    0.929
                            18 C    0.925
    18   6 C    3.932 --    19 C    1.030    50 H    0.956    49 H    0.954
                            17 N    0.925
    19   6 C    3.555 --    20 C    1.436    18 C    1.030    51 H    0.966
    20   6 C    3.977 --    19 C    1.436    21 C    1.345    29 C    1.119
    21   6 C    3.396 --    20 C    1.345    53 H    0.970    17 N    0.929
    22   6 C    3.916 --    23 C    1.755    52 H    0.975    54 H    0.969
                            24 O    0.130
    23   6 C    3.920 --    22 C    1.755    24 O    1.101    26 C    0.988
    24   8 O    2.265 --    23 C    1.101    25 C    0.976    22 C    0.130
    25   6 C    3.933 --    57 H    0.978    24 O    0.976    56 H    0.974
                            55 H    0.974
    26   6 C    3.891 --    29 C    1.630    27 O    1.108    23 C    0.988
    27   8 O    2.284 --    26 C    1.108    28 C    0.979    29 C    0.106
    28   6 C    3.935 --    27 O    0.979    58 H    0.974    59 H    0.972
                            60 H    0.971
    29   6 C    3.916 --    26 C    1.630    20 C    1.119    61 H    0.951
                            27 O    0.106
    30   6 C    3.934 --    64 H    0.977    63 H    0.975    62 H    0.973
                            17 N    0.961
    31   6 C    3.950 --    33 C    1.014    32 C    1.011    65 H    0.954
                             3 C    0.902
    32   6 C    3.992 --    31 C    1.011    66 H    0.984    67 H    0.983
                            68 H    0.982
    33   6 C    3.987 --    31 C    1.014    70 H    0.984    71 H    0.978
                            69 H    0.974
    34   1 H    0.997 --     5 C    0.959
    35   1 H    0.996 --     8 C    0.975
    36   1 H    0.993 --     8 C    0.977
    37   1 H    0.996 --     8 C    0.975
    38   1 H    0.995 --    11 C    0.975
    39   1 H    0.993 --    11 C    0.977
    40   1 H    0.996 --    11 C    0.975
    41   1 H    0.996 --    12 C    0.964
    42   1 H    0.999 --    13 C    0.956
    43   1 H    0.993 --    14 C    0.965
    44   1 H    0.996 --    14 C    0.973
    45   1 H    0.997 --    15 C    0.964
    46   1 H    0.995 --    15 C    0.971
    47   1 H    0.993 --    16 C    0.945
    48   1 H    0.994 --    16 C    0.970
    49   1 H    0.977 --    18 C    0.954
    50   1 H    0.979 --    18 C    0.956
    51   1 H    0.997 --    19 C    0.966
    52   1 H    0.997 --    22 C    0.975
    53   1 H    0.998 --    21 C    0.970
    54   1 H    0.995 --    22 C    0.969
    55   1 H    0.994 --    25 C    0.974
    56   1 H    0.994 --    25 C    0.974
    57   1 H    0.993 --    25 C    0.978
    58   1 H    0.992 --    28 C    0.974
    59   1 H    0.995 --    28 C    0.972
    60   1 H    0.994 --    28 C    0.971
    61   1 H    0.995 --    29 C    0.951
    62   1 H    0.993 --    30 C    0.973
    63   1 H    0.992 --    30 C    0.975
    64   1 H    0.992 --    30 C    0.977
    65   1 H    0.990 --    31 C    0.954
    66   1 H    0.997 --    32 C    0.984
    67   1 H    0.998 --    32 C    0.983
    68   1 H    0.995 --    32 C    0.982
    69   1 H    0.996 --    33 C    0.974
    70   1 H    0.998 --    33 C    0.984
    71   1 H    0.994 --    33 C    0.978
    72   1 H    0.936 --     1 N    0.913
 ---------------------------------------------------------------------------

molecular dipole:
                 x           y           z       tot (Debye)
 q only:        0.267       0.421       0.510
   full:        0.058       0.480       0.775       2.322

           -------------------------------------------------
          | TOTAL ENERGY              -99.275691226398 Eh   |
          | GRADIENT NORM               0.003100758238 Eh/α |
          | HOMO-LUMO GAP               0.596260950554 eV   |
           -------------------------------------------------

 * finished run on 2024/04/06 at 11:14:22.603
