   * xtb version 6.6.1 (8d0f1dd) compiled by 'conda@1efc2f54142f' on 2023-08-01
          program call               : xtb xtbopt.xyz --opt crude --input .xc2 --gfn2

   ID    Z sym.   atoms
    1    7 N      1, 17
    2    6 C      2-6, 8, 9, 11-16, 18-23, 25, 26, 28-33
    3    8 O      7, 10, 24, 27
    4    1 H      34-72
########################################################################
[WARNING] Please study the warnings concerning your input carefully
-1- readin_getIntValue: could not parse ''
########################################################################

          :  Hamiltonian                  GFN2-xTB          :
 * total energy  :   -99.2781157 Eh     change       -0.1300293E-10 Eh
 * total energy  :   -99.2812280 Eh     change       -0.3112362E-02 Eh
 * total energy  :   -99.2829061 Eh     change       -0.1678071E-02 Eh
 * total energy  :   -99.2835293 Eh     change       -0.6232014E-03 Eh
 * total energy  :   -99.2840855 Eh     change       -0.5562154E-03 Eh
 * total energy  :   -99.2844394 Eh     change       -0.3539260E-03 Eh
   *** GEOMETRY OPTIMIZATION CONVERGED AFTER 6 ITERATIONS ***

 final structure:
================
72
 xtb: 6.6.1 (8d0f1dd)
N           -2.04738528353783        3.60446375088780        1.70662168260253
C           -2.29744360882822        2.49907046541311        1.25044409221172
C           -2.91650588601398        1.98026664880667        0.03136549871244
C           -3.39234367196184        0.55086646504414        0.24938976340602
C           -3.96099376554177       -0.17355871683797       -0.79932759456223
C           -4.40782347560331       -1.47088835634759       -0.61523384769645
O           -4.97892981792860       -2.24200631582233       -1.56639926716945
C           -5.27680216548240       -1.67825604062385       -2.82158719745715
C           -4.27317274015488       -2.08472692707856        0.65820833326365
O           -4.72216380924363       -3.35515053618979        0.73882322879786
C           -4.69332023158330       -4.01169715202818        1.98429419403842
C           -3.71032256372085       -1.35803082357975        1.69394686983400
C           -3.27877027385159       -0.05400870071488        1.48853545377536
C           -1.83648317182372        2.02591046165746       -1.08616499135778
C           -0.81564436146366        0.88593219424421       -1.02235460743963
C            0.05043289210147        0.98023921646396        0.23052654594829
N            0.95567677935067       -0.18283803199876        0.46216657508577
C            1.82807003774850        0.07389549471661        1.66269009004739
C            3.23597525557469        0.00318863885991        1.15717980674010
C            3.22534438859513       -0.25095265895402       -0.20164152191960
C            1.90309232956712       -0.34363017555174       -0.63348480665448
C            6.15436352888826        1.15356148032113        0.83837229636414
C            6.39767197032991        0.02474661830980        0.16872224538924
O            7.42605084150767       -0.83286863989618        0.38582179107781
C            8.48515665279488       -0.42996086035351        1.22003397153687
C            5.62412666072968       -0.40566887109023       -1.02405594997301
O            6.49422758544525       -0.73894093826843       -1.99811522796050
C            6.03209818618690       -1.29129676675056       -3.20722583766465
C            4.28129609982271       -0.45830237695311       -1.16296890872205
C            0.18014052847466       -1.42423849117798        0.64821989993456
C           -4.15316417616010        2.86563587011908       -0.35736339716866
C           -5.19783209722170        2.84036816267405        0.75527495599614
C           -3.78397187061735        4.30262444929878       -0.70124174316384
H           -4.06212674059499        0.28672517274687       -1.76866214154029
H           -5.93406169966079       -0.80860743065442       -2.72513554679484
H           -5.79355222376402       -2.45892436317469       -3.37637332136918
H           -4.36867710972799       -1.39385523484081       -3.36355145943193
H           -5.28765000573029       -3.47921653908153        2.73277142359273
H           -5.13133025161092       -4.99198672986666        1.80769690759059
H           -3.66875991197421       -4.13475453902707        2.35045382562638
H           -3.61671689856887       -1.79152018829168        2.67642374264558
H           -2.86690735464825        0.50460854629094        2.31881939719564
H           -2.34662709607969        1.96638183780759       -2.04768214901467
H           -1.31893082947911        2.98422590375382       -1.04016153291927
H           -1.35801475499360       -0.05856119728455       -1.04680677168767
H           -0.18552492301611        0.94773532163034       -1.91059423436985
H           -0.60148277269102        1.08616659299013        1.10597453341683
H            0.68642604259462        1.86532438915093        0.15220302193912
H            1.62817724711963       -0.67677869968177        2.43417846789396
H            1.59092374461433        1.05161666380232        2.09539360431874
H            4.07638746423429        0.10127205496110        1.80940018314021
H            5.33741719817149        1.79064621765244        0.55555214628712
H            1.53126150112413       -0.61735294812386       -1.59670278132460
H            6.76614130615645        1.47326120634762        1.66288694732913
H            8.17563760336562       -0.36157414521753        2.26664684649750
H            8.89297316245281        0.53235354186824        0.89734293626075
H            9.24495008650395       -1.20268353700648        1.11726634350218
H            6.92694622191882       -1.55674232239338       -3.76727868531952
H            5.43230595288326       -2.18909164591296       -3.03126632061230
H            5.44850264038358       -0.56588091281765       -3.78245655410882
H            3.89303371141886       -0.74045996291640       -2.13046727655030
H           -0.31507815341663       -1.69838578874818       -0.27985834028241
H           -0.56945730047836       -1.29453405363270        1.42823974736655
H            0.86361503939764       -2.22795981055680        0.91566422153956
H           -4.58820996057376        2.39811107043285       -1.24610028637985
H           -4.81869485025505        3.32958454143139        1.64905008841905
H           -5.47785245415116        1.82035612280064        1.00794445386577
H           -6.09081774704961        3.36938598113256        0.43303934568351
H           -3.26996570024169        4.77865294331272        0.12999297285066
H           -3.15440552818887        4.35906041133457       -1.58480344588327
H           -4.69263685572112        4.86466391177714       -0.90153427525624
H           -1.60135296902996        3.79912860396999        2.59028641266704

          :  Hamiltonian                  GFN2-xTB          :
         :: total energy             -99.284439448290 Eh    ::
         :: gradient norm              0.006204475245 Eh/a0 ::
         :: HOMO-LUMO gap              0.591803081220 eV    ::
         :: SCC energy              -100.657839108809 Eh    ::
         :: -> dispersion             -0.076625322871 Eh    ::
         :: repulsion energy           1.371899087775 Eh    ::

    * Orbital Energies and Occupations

         #    Occupation            Energy/Eh            Energy/eV
      -------------------------------------------------------------
         1        2.0000           -0.8141012             -22.1528
       ...           ...                  ...                  ...
        78        1.9995           -0.5348660             -14.5544
        79        1.9994           -0.5337382             -14.5238
        80        1.9992           -0.5288222             -14.3900
        81        1.9991           -0.5258661             -14.3095
        82        1.9989           -0.5239059             -14.2562
        83        1.9988           -0.5218632             -14.2006
        84        1.9985           -0.5184179             -14.1069
        85        1.9983           -0.5164875             -14.0543
        86        1.9910           -0.4899496             -13.3322
        87        1.9668           -0.4690285             -12.7629
        88        1.9355           -0.4582849             -12.4706
        89        1.9266           -0.4561540             -12.4126
        90        1.3840           -0.4172313             -11.3534 (HOMO)
        91        0.7252           -0.3954830             -10.7616 (LUMO)
        92        0.0448           -0.3446179              -9.3775
        93        0.0238           -0.3344686              -9.1014
        94        0.0073           -0.3156897              -8.5904
        95        0.0060           -0.3126061              -8.5064
        96        0.0004           -0.2683451              -7.3020
        97        0.0000           -0.2113155              -5.7502
        98        0.0000           -0.1896936              -5.1618
        99        0.0000           -0.1894270              -5.1546
       100                         -0.1200208              -3.2659
       101                         -0.1017322              -2.7683
       ...                                ...                  ...
       171                          0.6069536              16.5160
      -------------------------------------------------------------
                  HL-Gap            0.0217484 Eh            0.5918 eV

     #   Z          covCN         q      C6AA      α(0)
     1   7 N        1.772    -0.195    26.028     7.555
     2   6 C        1.914     0.040    30.075     8.857
     3   6 C        3.906     0.024    20.110     6.374
     4   6 C        2.976    -0.005    28.138     8.701
     5   6 C        2.920    -0.082    30.057     8.990
     6   6 C        2.863     0.127    25.210     8.230
     7   8 O        1.706    -0.237    17.923     5.716
     8   6 C        3.644     0.030    20.411     6.494
     9   6 C        2.865     0.127    25.220     8.232
    10   8 O        1.706    -0.235    17.895     5.712
    11   6 C        3.645     0.029    20.425     6.495
    12   6 C        2.914    -0.077    29.921     8.970
    13   6 C        2.922    -0.056    29.402     8.892
    14   6 C        3.813    -0.063    21.695     6.630
    15   6 C        3.800    -0.070    21.849     6.655
    16   6 C        3.757    -0.029    21.149     6.557
    17   7 N        3.638     0.120    19.191     6.506
    18   6 C        3.812    -0.020    20.930     6.512
    19   6 C        2.975    -0.100    30.505     9.060
    20   6 C        2.982     0.023    27.482     8.599
    21   6 C        2.970    -0.096    30.410     9.045
    22   6 C        2.838    -0.138    31.524     9.201
    23   6 C        2.838     0.142    24.898     8.177
    24   8 O        1.706    -0.239    17.965     5.723
    25   6 C        3.644     0.028    20.440     6.498
    26   6 C        2.840     0.142    24.894     8.177
    27   8 O        1.708    -0.222    17.681     5.677
    28   6 C        3.642     0.024    20.513     6.512
    29   6 C        2.899    -0.095    30.399     9.040
    30   6 C        3.714    -0.079    22.138     6.723
    31   6 C        3.854    -0.007    20.670     6.466
    32   6 C        3.755    -0.112    22.692     6.792
    33   6 C        3.755    -0.120    22.848     6.816
    34   1 H        0.926     0.047     2.361     2.403
    35   1 H        0.924     0.050     2.316     2.380
    36   1 H        0.925     0.079     1.988     2.205
    37   1 H        0.924     0.044     2.396     2.421
    38   1 H        0.924     0.052     2.293     2.368
    39   1 H        0.925     0.079     1.987     2.205
    40   1 H        0.924     0.045     2.389     2.417
    41   1 H        0.926     0.048     2.347     2.396
    42   1 H        0.925     0.033     2.546     2.495
    43   1 H        0.925     0.065     2.141     2.288
    44   1 H        0.925     0.057     2.230     2.335
    45   1 H        0.925     0.058     2.227     2.334
    46   1 H        0.924     0.062     2.177     2.307
    47   1 H        0.924     0.071     2.080     2.255
    48   1 H        0.924     0.077     2.015     2.220
    49   1 H        0.924     0.073     2.052     2.240
    50   1 H        0.924     0.068     2.108     2.271
    51   1 H        0.927     0.055     2.257     2.349
    52   1 H        0.926     0.052     2.299     2.371
    53   1 H        0.927     0.043     2.412     2.429
    54   1 H        0.926     0.060     2.194     2.316
    55   1 H        0.924     0.049     2.336     2.390
    56   1 H        0.924     0.053     2.278     2.360
    57   1 H        0.925     0.076     2.019     2.222
    58   1 H        0.925     0.082     1.959     2.189
    59   1 H        0.924     0.053     2.284     2.364
    60   1 H        0.924     0.051     2.303     2.373
    61   1 H        0.926     0.051     2.305     2.374
    62   1 H        0.925     0.086     1.922     2.168
    63   1 H        0.925     0.078     2.005     2.214
    64   1 H        0.925     0.091     1.868     2.138
    65   1 H        0.924     0.048     2.347     2.396
    66   1 H        0.925     0.045     2.389     2.417
    67   1 H        0.925     0.040     2.445     2.445
    68   1 H        0.925     0.053     2.279     2.361
    69   1 H        0.925     0.058     2.223     2.332
    70   1 H        0.925     0.040     2.443     2.444
    71   1 H        0.925     0.057     2.233     2.337
    72   1 H        0.860     0.193     1.141     1.674

Wiberg/Mayer (AO) data.
largest (>0.10) Wiberg bond orders for each atom

     #   Z sym  total        # sym  WBO       # sym  WBO       # sym  WBO
 ---------------------------------------------------------------------------
     1   7 N    3.117 --     2 C    2.088    72 H    0.913
     2   6 C    3.241 --     1 N    2.088     3 C    1.033
     3   6 C    3.953 --     2 C    1.033     4 C    0.970    14 C    0.937
                            31 C    0.901
     4   6 C    3.952 --    13 C    1.427     5 C    1.366     3 C    0.970
     5   6 C    3.969 --     6 C    1.406     4 C    1.366    34 H    0.959
     6   6 C    3.919 --     5 C    1.406     9 C    1.230     7 O    1.092
     7   8 O    2.259 --     6 C    1.092     8 C    0.979
     8   6 C    3.935 --     7 O    0.979    36 H    0.977    35 H    0.975
                            37 H    0.974
     9   6 C    3.917 --    12 C    1.398     6 C    1.230    10 O    1.095
    10   8 O    2.259 --     9 C    1.095    11 C    0.979
    11   6 C    3.935 --    10 O    0.979    39 H    0.977    40 H    0.975
                            38 H    0.975
    12   6 C    3.969 --    13 C    1.399     9 C    1.398    41 H    0.964
    13   6 C    3.959 --     4 C    1.427    12 C    1.399    42 H    0.956
    14   6 C    3.980 --    15 C    1.004    44 H    0.973    43 H    0.965
                             3 C    0.937
    15   6 C    3.989 --    16 C    1.007    14 C    1.004    46 H    0.970
                            45 H    0.964
    16   6 C    3.926 --    15 C    1.007    48 H    0.970    47 H    0.947
                            17 N    0.932
    17   7 N    3.799 --    30 C    0.960    16 C    0.932    21 C    0.927
                            18 C    0.925
    18   6 C    3.931 --    19 C    1.028    49 H    0.956    50 H    0.955
                            17 N    0.925
    19   6 C    3.530 --    20 C    1.414    18 C    1.028    51 H    0.965
    20   6 C    3.978 --    19 C    1.414    21 C    1.370    29 C    1.117
    21   6 C    3.423 --    20 C    1.370    53 H    0.968    17 N    0.927
    22   6 C    3.919 --    23 C    1.757    52 H    0.975    54 H    0.970
                            24 O    0.124
    23   6 C    3.921 --    22 C    1.757    24 O    1.087    26 C    1.000
    24   8 O    2.250 --    23 C    1.087    25 C    0.978    22 C    0.124
    25   6 C    3.934 --    24 O    0.978    57 H    0.977    56 H    0.975
                            55 H    0.974
    26   6 C    3.903 --    29 C    1.630    27 O    1.114    23 C    1.000
    27   8 O    2.289 --    26 C    1.114    28 C    0.977    29 C    0.108
    28   6 C    3.934 --    27 O    0.977    58 H    0.976    59 H    0.973
                            60 H    0.972
    29   6 C    3.921 --    26 C    1.630    20 C    1.117    61 H    0.955
                            27 O    0.108
    30   6 C    3.933 --    64 H    0.977    63 H    0.976    62 H    0.973
                            17 N    0.960
    31   6 C    3.950 --    33 C    1.015    32 C    1.011    65 H    0.954
                             3 C    0.901
    32   6 C    3.992 --    31 C    1.011    66 H    0.984    67 H    0.983
                            68 H    0.982
    33   6 C    3.987 --    31 C    1.015    70 H    0.984    71 H    0.978
                            69 H    0.975
    34   1 H    0.997 --     5 C    0.959
    35   1 H    0.995 --     8 C    0.975
    36   1 H    0.993 --     8 C    0.977
    37   1 H    0.996 --     8 C    0.974
    38   1 H    0.995 --    11 C    0.975
    39   1 H    0.993 --    11 C    0.977
    40   1 H    0.996 --    11 C    0.975
    41   1 H    0.996 --    12 C    0.964
    42   1 H    0.999 --    13 C    0.956
    43   1 H    0.993 --    14 C    0.965
    44   1 H    0.996 --    14 C    0.973
    45   1 H    0.997 --    15 C    0.964
    46   1 H    0.996 --    15 C    0.970
    47   1 H    0.993 --    16 C    0.947
    48   1 H    0.994 --    16 C    0.970
    49   1 H    0.978 --    18 C    0.956
    50   1 H    0.978 --    18 C    0.955
    51   1 H    0.996 --    19 C    0.965
    52   1 H    0.997 --    22 C    0.975
    53   1 H    0.998 --    21 C    0.968
    54   1 H    0.995 --    22 C    0.970
    55   1 H    0.994 --    25 C    0.974
    56   1 H    0.995 --    25 C    0.975
    57   1 H    0.993 --    25 C    0.977
    58   1 H    0.992 --    28 C    0.976
    59   1 H    0.995 --    28 C    0.973
    60   1 H    0.994 --    28 C    0.972
    61   1 H    0.996 --    29 C    0.955
    62   1 H    0.993 --    30 C    0.973
    63   1 H    0.992 --    30 C    0.976
    64   1 H    0.992 --    30 C    0.977
    65   1 H    0.990 --    31 C    0.954
    66   1 H    0.997 --    32 C    0.984
    67   1 H    0.998 --    32 C    0.983
    68   1 H    0.995 --    32 C    0.982
    69   1 H    0.996 --    33 C    0.975
    70   1 H    0.998 --    33 C    0.984
    71   1 H    0.994 --    33 C    0.978
    72   1 H    0.936 --     1 N    0.913
 ---------------------------------------------------------------------------

molecular dipole:
                 x           y           z       tot (Debye)
 q only:        0.225       0.464       0.455
   full:        0.021       0.530       0.723       2.280

           -------------------------------------------------
          | TOTAL ENERGY              -99.284439448290 Eh   |
          | GRADIENT NORM               0.006204475245 Eh/α |
          | HOMO-LUMO GAP               0.591803081220 eV   |
           -------------------------------------------------

 * finished run on 2024/04/06 at 11:14:23.886
