   * xtb version 6.6.1 (8d0f1dd) compiled by 'conda@1efc2f54142f' on 2023-08-01
          program call               : xtb xtbopt.xyz --opt crude --input .xc2 --gfn2

   ID    Z sym.   atoms
    1    7 N      1, 17
    2    6 C      2-6, 8, 9, 11-16, 18-23, 25, 26, 28-33
    3    8 O      7, 10, 24, 27
    4    1 H      34-72

          :  Hamiltonian                  GFN2-xTB          :
 * total energy  :   -99.2763185 Eh     change       -0.5883294E-11 Eh
   *** GEOMETRY OPTIMIZATION CONVERGED AFTER 1 ITERATIONS ***

 final structure:
================
72
 xtb: 6.6.1 (8d0f1dd)
N           -1.93305367441152        2.76445450845953        2.27444608912573
C           -1.89162776506906        2.05513217068097        1.24837353278941
C           -3.02356906635202        1.89806888630123        0.26920566676967
C           -3.54136006401728        0.46914484673093        0.31050293169032
C           -4.47531618868630        0.03895608548233       -0.63352592616666
C           -4.99758157152998       -1.24493926675810       -0.60553683491388
O           -5.89932469671038       -1.74112252562109       -1.47284826220956
C           -6.41031992317366       -0.91233852220634       -2.49249027070616
C           -4.55533487340815       -2.14765281627118        0.40005427963532
O           -5.13716499332764       -3.37179906042097        0.37156073959624
C           -4.84085479832518       -4.35813067416859        1.16861194981308
C           -3.60599926690348       -1.72207514007751        1.32555176747326
C           -3.11449594553729       -0.43138075801280        1.28120415596742
C           -2.41922480812738        2.19565055019989       -1.12793993313261
C           -1.48228243301369        1.09582722384384       -1.65774042075529
C           -0.16306444804372        1.06372051374852       -0.98523700810373
N            0.49491250569930       -0.03359007301620       -0.63308006769721
C            1.87571333006924        0.04351250163176       -0.21665980707444
C            2.83464429138174       -0.34534547490414       -1.35907794073790
C            4.25995531450510       -0.14345638510885       -0.92631601768541
C            4.89761810504442        1.06792333203452       -1.14125080511487
C            6.20400536963370        1.26749746526687       -0.72281042824554
C            6.89923975017283        0.25747609048931       -0.07323223237107
O            8.16490399666441        0.33714402438162        0.37475397326203
C            8.88951023811957        1.53088626684464        0.18589569765366
C            6.25185426015336       -0.98931607681272        0.15514985185284
O            6.99985206816103       -1.91372531879906        0.78722244642913
C            6.45882686003920       -3.18967336591744        1.03496643496801
C            4.94475524511319       -1.16459449002544       -0.27187314210253
C           -0.09994603010031       -1.34552259121014       -0.72275514821771
C           -4.21771391790964        2.85795847542774        0.55274434163904
C           -4.88607626034706        2.53380589097108        1.88693261333864
C           -3.82565073749519        4.33233513219012        0.51672776701394
H           -4.81225116347636        0.72334406461706       -1.39376978156662
H           -6.91753483784285       -0.03628277277575       -2.08030601422402
H           -7.13037706050151       -1.52499957474712       -3.03113222641322
H           -5.62168519108188       -0.59325668913937       -3.18020069131730
H           -4.05017858675537       -4.31835575435526        1.90326226318884
H           -5.42521211273572       -5.24735506887196        1.01754485771492
H           -2.20190836581184       -3.71994286460768        2.90124103152218
H           -3.22511742670686       -2.39945965694859        2.08704222048031
H           -2.40938484986362       -0.12308583973624        2.03673250112470
H           -3.23265877950850        2.32227261735906       -1.84153902179266
H           -1.87255979485025        3.13800832017828       -1.08129762767420
H           -1.98294568530136        0.13027495890858       -1.60631086190201
H           -1.29967511161687        1.31975329628654       -2.71722203703663
H           -0.99054555412513        1.50260621088482        0.91739854161443
H            0.38218357206691        1.99390513683548       -0.91872505628360
H            2.03272913832932       -0.62285318238755        0.63524357069433
H            2.10139493280712        1.06368573204506        0.10065111666238
H            2.61872541447358        0.28239768777688       -2.22546269218054
H            2.66941599825603       -1.38696036474305       -1.63676255959755
H            4.38200310593798        1.86707561882336       -1.65188143788858
H            6.67625985230975        2.21721576186463       -0.91313506243622
H            8.40966333650285        2.37498514900787        0.69034060398996
H            9.01201362958508        1.76100709679884       -0.87668678690228
H            9.86630638771569        1.35251674074985        0.63130678747655
H            7.24895603229343       -3.75034220579750        1.53043768439329
H            5.58702514961548       -3.13492352782932        1.69455735721038
H            6.18436487532611       -3.69647307770920        0.10471849518832
H            4.44817623079031       -2.10850465762278       -0.11022367963629
H           -0.26157561473538       -1.63646289449682       -1.76283838035150
H           -1.05795564384115       -1.36743804549527       -0.19787130598504
H            0.56063696425698       -2.07264389540030       -0.25814018747097
H           -4.95147328499918        2.68519865585640       -0.24277139970522
H           -4.19221590320520        2.70801200205063        2.70274525730953
H           -5.21839602839416        1.49912875808437        1.92109613796607
H           -5.75149139594389        3.17593691186336        2.02625199857970
H           -3.07254114235133        4.54151815439283        1.26969827747210
H           -3.45198598935244        4.63019512417531       -0.45928550685648
H           -4.70089859740825        4.93795855552495        0.73570052437962
H           -1.09860077514663        2.82165161572211        2.84932793907015

          :  Hamiltonian                  GFN2-xTB          :
         :: total energy             -99.276318531417 Eh    ::
         :: gradient norm              0.002340326014 Eh/a0 ::
         :: HOMO-LUMO gap              0.558009861492 eV    ::
         :: SCC energy              -100.650502996987 Eh    ::
         :: -> dispersion             -0.076055894041 Eh    ::
         :: repulsion energy           1.372924773815 Eh    ::

    * Orbital Energies and Occupations

         #    Occupation            Energy/Eh            Energy/eV
      -------------------------------------------------------------
         1        2.0000           -0.8496732             -23.1208
       ...           ...                  ...                  ...
        78        1.9983           -0.5314809             -14.4623
        79        1.9982           -0.5300422             -14.4232
        80        1.9981           -0.5291204             -14.3981
        81        1.9972           -0.5234847             -14.2447
        82        1.9968           -0.5210565             -14.1787
        83        1.9956           -0.5161678             -14.0456
        84        1.9952           -0.5145696             -14.0022
        85        1.9920           -0.5065352             -13.7835
        86        1.9767           -0.4895187             -13.3205
        87        1.9739           -0.4876760             -13.2703
        88        1.9400           -0.4742433             -12.9048
        89        1.8309           -0.4569130             -12.4332
        90        1.2598           -0.4276136             -11.6360 (HOMO)
        91        0.6359           -0.4071071             -11.0779 (LUMO)
        92        0.3898           -0.3967350             -10.7957
        93        0.0154           -0.3422173              -9.3122
        94        0.0053           -0.3253504              -8.8532
        95        0.0041           -0.3212747              -8.7423
        96        0.0025           -0.3135832              -8.5330
        97        0.0022           -0.3112495              -8.4695
        98        0.0000           -0.2015472              -5.4844
        99        0.0000           -0.1888008              -5.1375
       100                         -0.1380234              -3.7558
       101                         -0.0751213              -2.0442
       ...                                ...                  ...
       171                          0.5753569              15.6563
      -------------------------------------------------------------
                  HL-Gap            0.0205065 Eh            0.5580 eV

     #   Z          covCN         q      C6AA      α(0)
     1   7 N        1.774    -0.266    27.716     7.796
     2   6 C        2.826     0.100    25.774     8.319
     3   6 C        3.907     0.007    20.411     6.422
     4   6 C        2.974     0.010    27.792     8.647
     5   6 C        2.920    -0.080    29.989     8.980
     6   6 C        2.860     0.137    25.015     8.198
     7   8 O        1.706    -0.231    17.835     5.702
     8   6 C        3.644     0.025    20.485     6.506
     9   6 C        2.871     0.102    25.746     8.318
    10   8 O        1.710    -0.095    15.764     5.361
    11   6 C        2.735     0.036    27.173     8.535
    12   6 C        2.910    -0.061    29.507     8.907
    13   6 C        2.921    -0.049    29.226     8.865
    14   6 C        3.813    -0.066    21.746     6.637
    15   6 C        3.802    -0.069    21.817     6.650
    16   6 C        2.844     0.007    27.864     8.651
    17   7 N        2.729     0.013    21.028     6.811
    18   6 C        3.756    -0.017    20.936     6.524
    19   6 C        3.808    -0.070    21.842     6.653
    20   6 C        2.969     0.000    28.014     8.682
    21   6 C        2.922    -0.048    29.199     8.861
    22   6 C        2.914    -0.067    29.672     8.932
    23   6 C        2.865     0.134    25.066     8.207
    24   8 O        1.706    -0.220    17.648     5.672
    25   6 C        3.645     0.024    20.498     6.507
    26   6 C        2.863     0.134    25.068     8.207
    27   8 O        1.706    -0.222    17.689     5.679
    28   6 C        3.645     0.026    20.469     6.503
    29   6 C        2.919    -0.079    29.976     8.978
    30   6 C        3.700    -0.070    22.014     6.710
    31   6 C        3.853    -0.007    20.671     6.467
    32   6 C        3.756    -0.119    22.842     6.815
    33   6 C        3.755    -0.119    22.841     6.815
    34   1 H        0.926     0.057     2.237     2.339
    35   1 H        0.924     0.057     2.239     2.340
    36   1 H        0.925     0.083     1.943     2.180
    37   1 H        0.924     0.050     2.321     2.382
    38   1 H        0.926     0.093     1.854     2.130
    39   1 H        0.926     0.101     1.778     2.085
    40   1 H        0.000    -0.248    38.068    11.282
    41   1 H        0.925     0.088     1.895     2.153
    42   1 H        0.926     0.050     2.325     2.384
    43   1 H        0.925     0.060     2.198     2.318
    44   1 H        0.924     0.056     2.246     2.344
    45   1 H        0.925     0.064     2.149     2.292
    46   1 H        0.923     0.080     1.978     2.199
    47   1 H        0.922     0.009     2.907     2.666
    48   1 H        0.926     0.070     2.082     2.256
    49   1 H        0.924     0.071     2.079     2.255
    50   1 H        0.924     0.068     2.110     2.272
    51   1 H        0.924     0.055     2.262     2.352
    52   1 H        0.924     0.057     2.236     2.339
    53   1 H        0.926     0.046     2.374     2.410
    54   1 H        0.926     0.059     2.208     2.324
    55   1 H        0.924     0.055     2.259     2.350
    56   1 H        0.924     0.057     2.238     2.339
    57   1 H        0.925     0.083     1.946     2.182
    58   1 H        0.925     0.083     1.949     2.183
    59   1 H        0.924     0.051     2.310     2.377
    60   1 H        0.924     0.053     2.277     2.360
    61   1 H        0.926     0.049     2.333     2.388
    62   1 H        0.924     0.076     2.025     2.225
    63   1 H        0.924     0.079     1.986     2.204
    64   1 H        0.925     0.084     1.935     2.175
    65   1 H        0.924     0.037     2.491     2.468
    66   1 H        0.925     0.071     2.079     2.255
    67   1 H        0.925     0.034     2.526     2.485
    68   1 H        0.925     0.052     2.290     2.366
    69   1 H        0.925     0.062     2.176     2.307
    70   1 H        0.925     0.035     2.516     2.480
    71   1 H        0.925     0.056     2.250     2.346
    72   1 H        0.860     0.160     1.338     1.812

Wiberg/Mayer (AO) data.
largest (>0.10) Wiberg bond orders for each atom

     #   Z sym  total        # sym  WBO       # sym  WBO       # sym  WBO
 ---------------------------------------------------------------------------
     1   7 N    3.043 --     2 C    1.959    72 H    0.941
     2   6 C    3.928 --     1 N    1.959     3 C    0.993    47 H    0.896
     3   6 C    3.976 --     2 C    0.993     4 C    0.973    14 C    0.956
                            31 C    0.941
     4   6 C    3.912 --    13 C    1.388     5 C    1.378     3 C    0.973
     5   6 C    3.961 --     6 C    1.392     4 C    1.378    34 H    0.957
     6   6 C    3.891 --     5 C    1.392     9 C    1.225     7 O    1.110
     7   8 O    2.269 --     6 C    1.110     8 C    0.973
     8   6 C    3.929 --    36 H    0.977    37 H    0.975    35 H    0.974
                             7 O    0.973
     9   6 C    3.888 --    12 C    1.355     6 C    1.225    10 O    1.052
    10   8 O    2.435 --    11 C    1.294     9 C    1.052
    11   6 C    3.346 --    10 O    1.294    39 H    0.964    38 H    0.950
    12   6 C    3.875 --    13 C    1.441     9 C    1.355    41 H    0.917
    13   6 C    3.970 --    12 C    1.441     4 C    1.388    42 H    0.960
    14   6 C    3.974 --    15 C    0.984    44 H    0.972    43 H    0.969
                             3 C    0.956
    15   6 C    3.987 --    16 C    1.058    14 C    0.984    45 H    0.961
                            46 H    0.927
    16   6 C    3.600 --    17 N    1.405    15 C    1.058    48 H    0.957
    17   7 N    3.483 --    16 C    1.405    30 C    0.998    18 C    0.988
    18   6 C    3.954 --    17 N    0.988    50 H    0.968    19 C    0.966
                            49 H    0.964
    19   6 C    3.976 --    20 C    1.008    51 H    0.972    52 H    0.971
                            18 C    0.966
    20   6 C    3.942 --    21 C    1.408    29 C    1.381    19 C    1.008
    21   6 C    3.947 --    22 C    1.417    20 C    1.408    53 H    0.968
    22   6 C    3.958 --    21 C    1.417    23 C    1.382    54 H    0.963
    23   6 C    3.892 --    22 C    1.382    26 C    1.216    24 O    1.113
    24   8 O    2.255 --    23 C    1.113    25 C    0.975
    25   6 C    3.927 --    57 H    0.977    24 O    0.975    55 H    0.972
                            56 H    0.972
    26   6 C    3.896 --    29 C    1.394    23 C    1.216    27 O    1.107
    27   8 O    2.255 --    26 C    1.107    28 C    0.977
    28   6 C    3.930 --    27 O    0.977    58 H    0.977    59 H    0.973
                            60 H    0.973
    29   6 C    3.957 --    26 C    1.394    20 C    1.381    61 H    0.962
    30   6 C    3.957 --    17 N    0.998    64 H    0.977    62 H    0.966
                            63 H    0.962
    31   6 C    3.972 --    33 C    1.009    32 C    1.008    65 H    0.960
                             3 C    0.941
    32   6 C    3.979 --    31 C    1.008    67 H    0.982    68 H    0.981
                            66 H    0.974
    33   6 C    3.983 --    31 C    1.009    70 H    0.983    71 H    0.980
                            69 H    0.976
    34   1 H    0.995 --     5 C    0.957
    35   1 H    0.994 --     8 C    0.974
    36   1 H    0.992 --     8 C    0.977
    37   1 H    0.995 --     8 C    0.975
    38   1 H    0.991 --    11 C    0.950
    39   1 H    0.988 --    11 C    0.964
    40   1 H    0.064
    41   1 H    0.991 --    12 C    0.917
    42   1 H    0.997 --    13 C    0.960
    43   1 H    0.995 --    14 C    0.969
    44   1 H    0.996 --    14 C    0.972
    45   1 H    0.995 --    15 C    0.961
    46   1 H    0.970 --    15 C    0.927
    47   1 H    0.987 --     2 C    0.896
    48   1 H    0.995 --    16 C    0.957
    49   1 H    0.990 --    18 C    0.964
    50   1 H    0.994 --    18 C    0.968
    51   1 H    0.996 --    19 C    0.972
    52   1 H    0.995 --    19 C    0.971
    53   1 H    0.997 --    21 C    0.968
    54   1 H    0.995 --    22 C    0.963
    55   1 H    0.991 --    25 C    0.972
    56   1 H    0.991 --    25 C    0.972
    57   1 H    0.992 --    25 C    0.977
    58   1 H    0.992 --    28 C    0.977
    59   1 H    0.992 --    28 C    0.973
    60   1 H    0.992 --    28 C    0.973
    61   1 H    0.996 --    29 C    0.962
    62   1 H    0.985 --    30 C    0.966
    63   1 H    0.987 --    30 C    0.962
    64   1 H    0.993 --    30 C    0.977
    65   1 H    0.993 --    31 C    0.960
    66   1 H    0.991 --    32 C    0.974
    67   1 H    0.997 --    32 C    0.982
    68   1 H    0.994 --    32 C    0.981
    69   1 H    0.993 --    33 C    0.976
    70   1 H    0.997 --    33 C    0.983
    71   1 H    0.994 --    33 C    0.980
    72   1 H    0.969 --     1 N    0.941
 ---------------------------------------------------------------------------

molecular dipole:
                 x           y           z       tot (Debye)
 q only:        0.082       0.490      -1.879
   full:        0.334       0.359      -2.086       5.447

           -------------------------------------------------
          | TOTAL ENERGY              -99.276318531417 Eh   |
          | GRADIENT NORM               0.002340326014 Eh/α |
          | HOMO-LUMO GAP               0.558009861492 eV   |
           -------------------------------------------------

 * finished run on 2024/04/06 at 11:12:59.833
