   * xtb version 6.6.1 (8d0f1dd) compiled by 'conda@1efc2f54142f' on 2023-08-01
          program call               : xtb struc.xyz --opt loose --input .xc1 --gfn2

   ID    Z sym.   atoms
    1    6 C      1, 3, 5-7, 10, 11, 14
    2    7 N      2, 4, 9, 13
    3    8 O      8, 12
    4    1 H      15-25
constraining bond 6 14 to    6.0000000 Å, actual value:    3.7374765 Å

          :  Hamiltonian                  GFN2-xTB          :
 * total energy  :   -23.9675362 Eh     change       -0.6650680E-10 Eh
 * total energy  :   -32.3771257 Eh     change       -0.8409589E+01 Eh
 * total energy  :   -37.8347707 Eh     change       -0.5457645E+01 Eh
 * total energy  :   -40.7349447 Eh     change       -0.2900174E+01 Eh
 * total energy  :   -41.6224976 Eh     change       -0.8875529E+00 Eh
 * total energy  :   -41.7005624 Eh     change       -0.7806480E-01 Eh
 * total energy  :   -41.7188576 Eh     change       -0.1829523E-01 Eh
 * total energy  :   -41.7614318 Eh     change       -0.4257419E-01 Eh
 * total energy  :   -41.7889115 Eh     change       -0.2747972E-01 Eh
 * total energy  :   -41.8037829 Eh     change       -0.1487136E-01 Eh
 * total energy  :   -42.1551149 Eh     change       -0.2900037E-02 Eh
 * total energy  :   -42.1538566 Eh     change        0.1258291E-02 Eh
 * total energy  :   -42.1581071 Eh     change       -0.4250451E-02 Eh
 * total energy  :   -42.1589822 Eh     change       -0.8750879E-03 Eh
 * total energy  :   -42.1600107 Eh     change       -0.1028554E-02 Eh
 * total energy  :   -42.1601688 Eh     change       -0.1580493E-03 Eh
 * total energy  :   -42.1602664 Eh     change       -0.9766080E-04 Eh
 * total energy  :   -42.1605342 Eh     change       -0.2677101E-03 Eh
 * total energy  :   -42.1605682 Eh     change       -0.3409803E-04 Eh
   *** GEOMETRY OPTIMIZATION CONVERGED AFTER 63 ITERATIONS ***

 final structure:
================
25
 xtb: 6.6.1 (8d0f1dd)
C            3.51638509650773        1.80942852035178        0.00687990861977
N            2.80727820592732        0.55655391811803        0.01694002702474
C            3.32523298092937       -0.67072336318896        0.02189744486966
N            2.34782049272876       -1.59541558394434        0.03302293540118
C            1.13279483857235       -0.96202723700928        0.03530946477330
C            1.46122638001007        0.42886381944261        0.03250872506220
C            0.22850408160912        1.22922769617489        0.00045906564214
O            0.18525286917742        2.43475695774007       -0.03568848779340
N           -1.00795613842534        0.46890077601183        0.00734355339265
C           -2.21871610910374        1.27739250252561       -0.00956929846971
C           -1.17970721062847       -0.92251998775043        0.01380710878626
O           -2.44750002295114       -1.31087477440867        0.01001026076810
N           -0.04725668989061       -1.61820584461296        0.02786497610734
C           -3.71588437173155       -2.56630938356933       -0.03167910232863
H            4.06877385402490        1.94249798125001        0.93796332090508
H            4.21843772836606        1.84117373704084       -0.82627193937479
H            2.79238667449954        2.61694948946980       -0.09641697338181
H            4.37588548911949       -0.88658907218968        0.01511982884155
H           -1.93742083531842        2.32770135903803       -0.01210882637631
H           -2.80158075102281        1.04764739635086       -0.90052226780582
H           -2.81914486107590        1.05489078910611        0.87169133922283
H           -3.51842871759929       -3.16718470092408        0.84036912511419
H           -3.53836398471654       -3.03861289275978       -0.98686827253244
H           -4.54388682054460       -1.88116858517471        0.02500447048143
H            2.47629933564021       -2.59811497547992        0.03410523095310

          :  Hamiltonian                  GFN2-xTB          :
         :: total energy             -42.160568250927 Eh    ::
         :: gradient norm              0.003620484556 Eh/a0 ::
         :: HOMO-LUMO gap              3.154281485757 eV    ::
         :: SCC energy               -42.652385950384 Eh    ::
         :: -> dispersion             -0.021218292043 Eh    ::
         :: repulsion energy           0.490578797349 Eh    ::

    * Orbital Energies and Occupations

         #    Occupation            Energy/Eh            Energy/eV
      -------------------------------------------------------------
         1        2.0000           -0.8898468             -24.2140
       ...           ...                  ...                  ...
        25        2.0000           -0.6488428             -17.6559
        26        1.9999           -0.6411752             -17.4473
        27        1.9999           -0.6408367             -17.4381
        28        1.9999           -0.6268235             -17.0567
        29        1.9998           -0.6244384             -16.9918
        30        1.9996           -0.6095981             -16.5880
        31        1.9993           -0.6002834             -16.3345
        32        1.9992           -0.5991883             -16.3047
        33        1.9986           -0.5891666             -16.0320
        34        1.9884           -0.5559209             -15.1274
        35        1.9880           -0.5552621             -15.1094
        36        1.9670           -0.5391324             -14.6705
        37        1.9547           -0.5340200             -14.5314 (HOMO)
        38        0.0555           -0.4181023             -11.3771 (LUMO)
        39        0.0351           -0.4106710             -11.1749
        40        0.0137           -0.3956198             -10.7654
        41        0.0014           -0.3588785              -9.7656
        42        0.0000           -0.2777065              -7.5568
        43                         -0.1987684              -5.4088
        44                         -0.1676496              -4.5620
        45                         -0.1344137              -3.6576
        46                         -0.0694159              -1.8889
        47                         -0.0421935              -1.1481
        48                         -0.0322117              -0.8765
       ...                                ...                  ...
        67                          0.5247961              14.2804
      -------------------------------------------------------------
                  HL-Gap            0.1159177 Eh            3.1543 eV

     #   Z          covCN         q      C6AA      α(0)
     1   6 C        3.692    -0.088    22.369     6.768
     2   7 N        2.810     0.092    19.649     6.583
     3   6 C        3.068     0.054    26.724     8.477
     4   7 N        2.793    -0.049    22.190     6.996
     5   6 C        3.039     0.132    25.076     8.213
     6   6 C        3.134    -0.023    28.352     8.716
     7   6 C        2.775     0.273    22.395     7.751
     8   8 O        0.857    -0.362    20.945     6.136
     9   7 N        2.740    -0.083    22.861     7.101
    10   6 C        3.700    -0.062    21.859     6.686
    11   6 C        2.733     0.323    21.517     7.594
    12   8 O        1.390    -0.316    19.575     5.957
    13   7 N        1.835    -0.286    28.273     7.880
    14   6 C        3.311     0.004    25.944     8.129
    15   1 H        0.924     0.105     1.737     2.061
    16   1 H        0.925     0.103     1.754     2.071
    17   1 H        0.925     0.126     1.565     1.956
    18   1 H        0.926     0.121     1.609     1.983
    19   1 H        0.925     0.114     1.661     2.016
    20   1 H        0.925     0.087     1.910     2.161
    21   1 H        0.925     0.087     1.907     2.160
    22   1 H        0.926     0.134     1.504     1.918
    23   1 H        0.926     0.134     1.504     1.918
    24   1 H        0.926     0.146     1.419     1.863
    25   1 H        0.860     0.235     0.945     1.523

Wiberg/Mayer (AO) data.
largest (>0.10) Wiberg bond orders for each atom

     #   Z sym  total        # sym  WBO       # sym  WBO       # sym  WBO
 ---------------------------------------------------------------------------
     1   6 C    3.923 --     2 N    0.984    17 H    0.969    16 H    0.964
                            15 H    0.960
     2   7 N    3.700 --     3 C    1.371     6 C    1.197     1 C    0.984
     3   6 C    3.883 --     2 N    1.371     4 N    1.312    18 H    0.953
     4   7 N    3.614 --     3 C    1.312     5 C    1.183    25 H    0.916
     5   6 C    3.947 --     6 C    1.294    13 N    1.283     4 N    1.183
     6   6 C    3.914 --     5 C    1.294     2 N    1.197     7 C    1.083
     7   6 C    3.941 --     8 O    1.705     6 C    1.083     9 N    1.051
     8   8 O    2.050 --     7 C    1.705     9 N    0.148
     9   7 N    3.547 --    11 C    1.156     7 C    1.051    10 C    0.982
                             8 O    0.148
    10   6 C    3.925 --     9 N    0.982    21 H    0.965    20 H    0.965
                            19 H    0.964
    11   6 C    3.930 --    13 N    1.365    12 O    1.265     9 N    1.156
    12   8 O    2.234 --    11 C    1.265    14 C    0.722    13 N    0.107
    13   7 N    2.993 --    11 C    1.365     5 C    1.283    12 O    0.107
    14   6 C    3.711 --    22 H    0.978    23 H    0.978    24 H    0.974
                            12 O    0.722
    15   1 H    0.987 --     1 C    0.960
    16   1 H    0.987 --     1 C    0.964
    17   1 H    0.984 --     1 C    0.969
    18   1 H    0.984 --     3 C    0.953
    19   1 H    0.985 --    10 C    0.964
    20   1 H    0.988 --    10 C    0.965
    21   1 H    0.988 --    10 C    0.965
    22   1 H    0.981 --    14 C    0.978
    23   1 H    0.981 --    14 C    0.978
    24   1 H    0.978 --    14 C    0.974
    25   1 H    0.944 --     4 N    0.916
 ---------------------------------------------------------------------------

molecular dipole:
                 x           y           z       tot (Debye)
 q only:        1.401      -1.794       0.004
   full:        1.714      -2.033       0.012       6.758

           -------------------------------------------------
          | TOTAL ENERGY              -42.160568250927 Eh   |
          | GRADIENT NORM               0.003620484556 Eh/α |
          | HOMO-LUMO GAP               3.154281485757 eV   |
           -------------------------------------------------

 * finished run on 2024/06/05 at 19:59:14.728
