   * xtb version 6.6.1 (8d0f1dd) compiled by 'conda@1efc2f54142f' on 2023-08-01
          program call               : xtb xtbopt.xyz --opt crude --input .xc2 --gfn2

   ID    Z sym.   atoms
    1    6 C      1, 3, 5-7, 10, 11, 14
    2    7 N      2, 4, 9, 13
    3    8 O      8, 12
    4    1 H      15-25
########################################################################
[WARNING] Please study the warnings concerning your input carefully
-1- readin_getIntValue: could not parse ''
########################################################################

          :  Hamiltonian                  GFN2-xTB          :
 * total energy  :   -42.1617979 Eh     change       -0.2771117E-12 Eh
 * total energy  :   -42.1913952 Eh     change       -0.2959730E-01 Eh
 * total energy  :   -42.2164485 Eh     change       -0.2505329E-01 Eh
 * total energy  :   -42.2259374 Eh     change       -0.9488915E-02 Eh
 * total energy  :   -42.2316867 Eh     change       -0.5749250E-02 Eh
 * total energy  :   -42.2364506 Eh     change       -0.4763955E-02 Eh
 * total energy  :   -42.2398595 Eh     change       -0.3408811E-02 Eh
 * total energy  :   -42.2420288 Eh     change       -0.2169354E-02 Eh
 * total energy  :   -42.2432904 Eh     change       -0.1261632E-02 Eh
 * total energy  :   -42.2439640 Eh     change       -0.6735814E-03 Eh
 * total energy  :   -42.2443129 Eh     change       -0.3489090E-03 Eh
   *** GEOMETRY OPTIMIZATION CONVERGED AFTER 11 ITERATIONS ***

 final structure:
================
25
 xtb: 6.6.1 (8d0f1dd)
C            3.28320243781607        1.62601626476229        0.01561329271980
N            2.56856386488997        0.37560455287513        0.01120810035199
C            3.06794941920692       -0.85432934605891        0.01911253957433
N            2.06929927083706       -1.75938843379986        0.01807573149914
C            0.88326613498543       -1.08682424192336        0.00902815058353
C            1.19999356255717        0.26874361923777        0.00513407657678
C            0.16293652826395        1.27175766094261       -0.00611770279893
O            0.31634129885265        2.46936040830571       -0.01559402336639
N           -1.10726598910397        0.66990427700707       -0.00621384733963
C           -2.26290067639552        1.54979202607294       -0.01303556058693
C           -1.30839754477431       -0.67924841085171       -0.00275711334384
O           -2.56670469378672       -1.03223492352620       -0.00351617290890
N           -0.35436089112640       -1.58249769032734        0.00367354734951
C           -2.88824969537765       -2.43082177383952       -0.01467086494797
H            3.83429792702272        1.74766242189396        0.94894879147341
H            3.98667252275123        1.66873164622926       -0.81504701686760
H            2.55819446890191        2.43426142910838       -0.07772231249584
H            4.11303638454281       -1.09664185158956        0.02486276888245
H           -1.89598379764933        2.57481427081695       -0.01489597695447
H           -2.86588731825308        1.36911020568349       -0.90159084963518
H           -2.87210938223445        1.37413202420644        0.87223067150319
H           -2.44665926233244       -2.92600217670542        0.85450089058466
H           -2.52078671170688       -2.90702543065973       -0.92661286896815
H           -3.97239429477420       -2.46231525151670        0.02399849224758
H            2.17837795099090       -2.76432273473510        0.02255887477047

          :  Hamiltonian                  GFN2-xTB          :
         :: total energy             -42.244312933862 Eh    ::
         :: gradient norm              0.008827224145 Eh/a0 ::
         :: HOMO-LUMO gap              3.326109129856 eV    ::
         :: SCC energy               -42.763587983485 Eh    ::
         :: -> dispersion             -0.022024857550 Eh    ::
         :: repulsion energy           0.519216935036 Eh    ::

    * Orbital Energies and Occupations

         #    Occupation            Energy/Eh            Energy/eV
      -------------------------------------------------------------
         1        2.0000           -0.8996124             -24.4797
       ...           ...                  ...                  ...
        25        2.0000           -0.6660506             -18.1242
        26        2.0000           -0.6540603             -17.7979
        27        1.9999           -0.6473193             -17.6145
        28        1.9999           -0.6372883             -17.3415
        29        1.9998           -0.6295402             -17.1307
        30        1.9994           -0.6109730             -16.6254
        31        1.9994           -0.6098037             -16.5936
        32        1.9989           -0.6011544             -16.3582
        33        1.9988           -0.5990531             -16.3011
        34        1.9914           -0.5684001             -15.4670
        35        1.9890           -0.5644110             -15.3584
        36        1.9827           -0.5572442             -15.1634
        37        1.9700           -0.5484097             -14.9230 (HOMO)
        38        0.0567           -0.4261774             -11.5969 (LUMO)
        39        0.0125           -0.4018264             -10.9343
        40        0.0016           -0.3693506             -10.0505
        41        0.0000           -0.2744310              -7.4676
        42                         -0.1872828              -5.0962
        43                         -0.1746604              -4.7528
        44                         -0.1385608              -3.7704
        45                         -0.1163258              -3.1654
        46                         -0.0648450              -1.7645
        47                         -0.0353653              -0.9623
        48                         -0.0190540              -0.5185
       ...                                ...                  ...
        67                          0.5410207              14.7219
      -------------------------------------------------------------
                  HL-Gap            0.1222323 Eh            3.3261 eV

     #   Z          covCN         q      C6AA      α(0)
     1   6 C        3.691    -0.093    22.480     6.785
     2   7 N        2.829     0.082    19.819     6.612
     3   6 C        3.063     0.058    26.629     8.462
     4   7 N        2.799    -0.052    22.244     7.005
     5   6 C        3.117     0.143    24.735     8.146
     6   6 C        3.133    -0.029    28.493     8.738
     7   6 C        2.769     0.273    22.387     7.749
     8   8 O        0.858    -0.373    21.154     6.167
     9   7 N        2.748    -0.068    22.563     7.055
    10   6 C        3.703    -0.067    21.946     6.698
    11   6 C        2.834     0.303    21.867     7.663
    12   8 O        1.707    -0.191    17.196     5.599
    13   7 N        1.831    -0.294    28.456     7.905
    14   6 C        3.649     0.004    20.839     6.558
    15   1 H        0.924     0.106     1.729     2.056
    16   1 H        0.925     0.104     1.745     2.066
    17   1 H        0.925     0.135     1.496     1.913
    18   1 H        0.926     0.124     1.580     1.966
    19   1 H        0.925     0.119     1.622     1.992
    20   1 H        0.925     0.094     1.837     2.119
    21   1 H        0.925     0.094     1.836     2.119
    22   1 H        0.924     0.090     1.880     2.144
    23   1 H        0.924     0.090     1.881     2.145
    24   1 H        0.925     0.110     1.693     2.035
    25   1 H        0.860     0.236     0.939     1.518

Wiberg/Mayer (AO) data.
largest (>0.10) Wiberg bond orders for each atom

     #   Z sym  total        # sym  WBO       # sym  WBO       # sym  WBO
 ---------------------------------------------------------------------------
     1   6 C    3.917 --     2 N    0.984    16 H    0.962    17 H    0.961
                            15 H    0.958
     2   7 N    3.698 --     3 C    1.398     6 C    1.166     1 C    0.984
     3   6 C    3.885 --     2 N    1.398     4 N    1.301    18 H    0.952
     4   7 N    3.609 --     3 C    1.301     5 C    1.184    25 H    0.917
     5   6 C    3.955 --     6 C    1.328    13 N    1.266     4 N    1.184
     6   6 C    3.921 --     5 C    1.328     2 N    1.166     7 C    1.093
     7   6 C    3.950 --     8 O    1.685     6 C    1.093     9 N    1.074
     8   8 O    2.040 --     7 C    1.685     9 N    0.144
     9   7 N    3.586 --    11 C    1.200     7 C    1.074    10 C    0.973
                             8 O    0.144
    10   6 C    3.919 --     9 N    0.973    19 H    0.966    21 H    0.965
                            20 H    0.965
    11   6 C    3.941 --    13 N    1.383    12 O    1.208     9 N    1.200
    12   8 O    2.361 --    11 C    1.208    14 C    0.929
    13   7 N    2.995 --    11 C    1.383     5 C    1.266
    14   6 C    3.881 --    24 H    0.974    22 H    0.972    23 H    0.972
                            12 O    0.929
    15   1 H    0.987 --     1 C    0.958
    16   1 H    0.987 --     1 C    0.962
    17   1 H    0.981 --     1 C    0.961
    18   1 H    0.984 --     3 C    0.952
    19   1 H    0.985 --    10 C    0.966
    20   1 H    0.988 --    10 C    0.965
    21   1 H    0.988 --    10 C    0.965
    22   1 H    0.990 --    14 C    0.972
    23   1 H    0.990 --    14 C    0.972
    24   1 H    0.987 --    14 C    0.974
    25   1 H    0.944 --     4 N    0.917
 ---------------------------------------------------------------------------

molecular dipole:
                 x           y           z       tot (Debye)
 q only:        1.797      -1.609       0.019
   full:        2.103      -1.825       0.023       7.078

           -------------------------------------------------
          | TOTAL ENERGY              -42.244312933862 Eh   |
          | GRADIENT NORM               0.008827224145 Eh/α |
          | HOMO-LUMO GAP               3.326109129856 eV   |
           -------------------------------------------------

 * finished run on 2024/06/05 at 19:59:15.167
