   * xtb version 6.6.1 (8d0f1dd) compiled by 'conda@1efc2f54142f' on 2023-08-01
          program call               : xtb xtbopt.xyz --opt crude --input .xc2 --gfn2

   ID    Z sym.   atoms
    1    6 C      1, 3, 5-7, 10, 11, 14
    2    7 N      2, 4, 9, 13
    3    8 O      8, 12
    4    1 H      15-25

          :  Hamiltonian                  GFN2-xTB          :
 * total energy  :   -42.1085421 Eh     change       -0.8526513E-12 Eh
   *** GEOMETRY OPTIMIZATION CONVERGED AFTER 1 ITERATIONS ***

 final structure:
================
25
 xtb: 6.6.1 (8d0f1dd)
C            3.17892802510575        0.89417456771724       -0.22374627176333
N            2.27857975947722       -0.08090621676032       -0.16878989510974
C            2.49672927316232       -1.41650332297955       -0.18404400172630
N            1.31006525168693       -2.08002249579488       -0.12427505775247
C            0.31087674396000       -1.15991579981908       -0.06554866174902
C            0.89756306647331        0.09413568958360       -0.08956012207897
C            0.11597576323521        1.30881705425224       -0.04166568639892
O            0.55659109638348        2.43363851865148       -0.04251797641036
N           -1.25062138336441        1.02756791853043        0.01109471105672
C           -2.16773682710275        2.15806036708739        0.04502086710913
C           -1.86242302951241       -0.21198131931256        0.02607559287676
O           -3.05364912609239       -0.34089534657889        0.06464254409177
N           -1.01834887622635       -1.34534316368600       -0.00372302690495
C           -1.61894390262046       -2.66452279615720        0.01100848477690
H            3.81676058699833        3.26828656949462        1.46912334884832
H            4.22300807529911        0.65050482206627       -0.28182367161635
H            2.83154543452841        1.91211505392672       -0.21517660931025
H            3.45650707808652       -1.88446317562978       -0.24657193539242
H           -1.57913700437442        3.07195643280052        0.06859934663157
H           -2.80673703501561        2.14276103680181       -0.83831369397592
H           -2.80389389282591        2.09150207828303        0.92740801019387
H           -1.30463265467493       -3.21914812462695        0.89572746445229
H           -1.35373541006546       -3.21549985842306       -0.89204754829094
H           -2.69993263398172       -2.53184645873953        0.04118408621446
H            1.20709313556014       -3.08423348908760       -0.11090867987182

          :  Hamiltonian                  GFN2-xTB          :
         :: total energy             -42.108542088452 Eh    ::
         :: gradient norm              0.002394732042 Eh/a0 ::
         :: HOMO-LUMO gap              0.344076559772 eV    ::
         :: SCC energy               -42.631393560600 Eh    ::
         :: -> dispersion             -0.022835781247 Eh    ::
         :: repulsion energy           0.522744601777 Eh    ::

    * Orbital Energies and Occupations

         #    Occupation            Energy/Eh            Energy/eV
      -------------------------------------------------------------
         1        2.0000           -0.9102384             -24.7688
       ...           ...                  ...                  ...
        25        1.9999           -0.6678180             -18.1723
        26        1.9999           -0.6674597             -18.1625
        27        1.9999           -0.6584781             -17.9181
        28        1.9996           -0.6367656             -17.3273
        29        1.9994           -0.6321700             -17.2022
        30        1.9992           -0.6265951             -17.0505
        31        1.9986           -0.6188480             -16.8397
        32        1.9956           -0.6003420             -16.3361
        33        1.9852           -0.5810959             -15.8124
        34        1.9577           -0.5642828             -15.3549
        35        1.9520           -0.5622588             -15.2998
        36        1.9455           -0.5601964             -15.2437
        37        1.2750           -0.5125140             -13.9462 (HOMO)
        38        0.8835           -0.4998694             -13.6021 (LUMO)
        39        0.0057           -0.4107480             -11.1770
        40        0.0031           -0.4011653             -10.9163
        41        0.0004           -0.3681877             -10.0189
        42        0.0000           -0.2864906              -7.7958
        43                         -0.2071381              -5.6365
        44                         -0.1858157              -5.0563
        45                         -0.1441786              -3.9233
        46                         -0.1156715              -3.1476
        47                         -0.0827878              -2.2528
        48                         -0.0488497              -1.3293
       ...                                ...                  ...
        67                          0.5540819              15.0773
      -------------------------------------------------------------
                  HL-Gap            0.0126446 Eh            0.3441 eV

     #   Z          covCN         q      C6AA      α(0)
     1   6 C        2.790    -0.071    29.747     8.934
     2   7 N        2.809     0.129    19.038     6.480
     3   6 C        3.037     0.026    27.394     8.585
     4   7 N        2.780    -0.058    22.362     7.023
     5   6 C        3.022     0.119    25.355     8.260
     6   6 C        3.109    -0.039    28.809     8.794
     7   6 C        2.764     0.275    22.356     7.743
     8   8 O        0.858    -0.360    20.906     6.130
     9   7 N        2.746    -0.081    22.816     7.094
    10   6 C        3.710    -0.062    21.835     6.678
    11   6 C        2.727     0.318    21.593     7.607
    12   8 O        0.860    -0.350    20.707     6.101
    13   7 N        2.738    -0.054    22.282     7.011
    14   6 C        3.696    -0.073    22.071     6.720
    15   1 H        0.000     0.064     5.378     4.240
    16   1 H        0.926     0.108     1.710     2.045
    17   1 H        0.926     0.138     1.474     1.899
    18   1 H        0.927     0.121     1.602     1.979
    19   1 H        0.925     0.116     1.649     2.008
    20   1 H        0.924     0.102     1.763     2.076
    21   1 H        0.925     0.103     1.754     2.071
    22   1 H        0.924     0.086     1.921     2.168
    23   1 H        0.924     0.085     1.929     2.172
    24   1 H        0.925     0.129     1.543     1.942
    25   1 H        0.860     0.228     0.974     1.546

Wiberg/Mayer (AO) data.
largest (>0.10) Wiberg bond orders for each atom

     #   Z sym  total        # sym  WBO       # sym  WBO       # sym  WBO
 ---------------------------------------------------------------------------
     1   6 C    3.405 --     2 N    1.331    16 H    0.967    17 H    0.950
     2   7 N    3.764 --     1 C    1.331     3 C    1.247     6 C    1.088
     3   6 C    3.643 --     2 N    1.247     4 N    1.240    18 H    0.955
     4   7 N    3.527 --     3 C    1.240     5 C    1.195    25 H    0.920
     5   6 C    3.938 --     6 C    1.349    13 N    1.217     4 N    1.195
     6   6 C    3.846 --     5 C    1.349     2 N    1.088     7 C    1.085
     7   6 C    3.959 --     8 O    1.684     9 N    1.094     6 C    1.085
     8   8 O    2.019 --     7 C    1.684     9 N    0.139
     9   7 N    3.533 --    11 C    1.126     7 C    1.094    10 C    0.972
                             8 O    0.139    12 O    0.133
    10   6 C    3.899 --     9 N    0.972    19 H    0.966    21 H    0.959
                            20 H    0.957
    11   6 C    3.958 --    12 O    1.706     9 N    1.126    13 N    1.035
    12   8 O    2.047 --    11 C    1.706     9 N    0.133    13 N    0.118
    13   7 N    3.531 --     5 C    1.217    11 C    1.035    14 C    0.975
                            12 O    0.118
    14   6 C    3.919 --    13 N    0.975    23 H    0.968    22 H    0.968
                            24 H    0.963
    15   1 H    0.026
    16   1 H    0.987 --     1 C    0.967
    17   1 H    0.980 --     1 C    0.950
    18   1 H    0.984 --     3 C    0.955
    19   1 H    0.983 --    10 C    0.966
    20   1 H    0.977 --    10 C    0.957
    21   1 H    0.978 --    10 C    0.959
    22   1 H    0.986 --    14 C    0.968
    23   1 H    0.986 --    14 C    0.968
    24   1 H    0.982 --    14 C    0.963
    25   1 H    0.947 --     4 N    0.920
 ---------------------------------------------------------------------------

molecular dipole:
                 x           y           z       tot (Debye)
 q only:        2.319      -1.931      -0.039
   full:        2.585      -2.409      -0.053       8.981

           -------------------------------------------------
          | TOTAL ENERGY              -42.108542088452 Eh   |
          | GRADIENT NORM               0.002394732042 Eh/α |
          | HOMO-LUMO GAP               0.344076559772 eV   |
           -------------------------------------------------

 * finished run on 2024/06/05 at 19:57:52.282
