   * xtb version 6.6.1 (8d0f1dd) compiled by 'conda@1efc2f54142f' on 2023-08-01
          program call               : xtb struc.xyz --opt loose --input .xc1 --gfn2

   ID    Z sym.   atoms
    1    6 C      1, 3, 5-7, 10, 11, 14
    2    7 N      2, 4, 9, 13
    3    8 O      8, 12
    4    1 H      15-25
constraining bond 4 5 to    3.9200000 Å, actual value:    1.3653241 Å

          :  Hamiltonian                  GFN2-xTB          :
 * total energy  :   -18.9417758 Eh     change       -0.6650680E-10 Eh
 * total energy  :   -28.7690345 Eh     change       -0.9827259E+01 Eh
 * total energy  :   -35.6159563 Eh     change       -0.6846922E+01 Eh
 * total energy  :   -39.7800029 Eh     change       -0.4164047E+01 Eh
 * total energy  :   -41.4615297 Eh     change       -0.1681527E+01 Eh
 * total energy  :   -41.7086711 Eh     change       -0.2471414E+00 Eh
 * total energy  :   -41.7296300 Eh     change       -0.2095893E-01 Eh
 * total energy  :   -41.7676407 Eh     change       -0.3801064E-01 Eh
 * total energy  :   -41.8045133 Eh     change       -0.3687262E-01 Eh
 * total energy  :   -41.8451537 Eh     change       -0.4064039E-01 Eh
 * total energy  :   -42.0976461 Eh     change       -0.2642950E-03 Eh
 * total energy  :   -42.0978677 Eh     change       -0.2216458E-03 Eh
 * total energy  :   -42.0979726 Eh     change       -0.1049014E-03 Eh
 * total energy  :   -42.0980346 Eh     change       -0.6203714E-04 Eh
 * total energy  :   -42.0980904 Eh     change       -0.5572921E-04 Eh
 * total energy  :   -42.0981336 Eh     change       -0.4322484E-04 Eh
 * total energy  :   -42.0981969 Eh     change       -0.6335257E-04 Eh
 * total energy  :   -42.0982326 Eh     change       -0.3565496E-04 Eh
 * total energy  :   -42.0982704 Eh     change       -0.3779119E-04 Eh
   *** GEOMETRY OPTIMIZATION CONVERGED AFTER 83 ITERATIONS ***

 final structure:
================
25
 xtb: 6.6.1 (8d0f1dd)
C            2.28024247658910       -0.16078297368137        1.31305512615374
N            1.82192322754962       -0.37189876497422       -0.04452150183454
C            2.55994963292272       -1.10101927413906       -0.93749383704947
N            2.38314957056182       -1.27159214961229       -2.16659904816349
C           -0.57594000693086        0.17049721425385       -0.03863981395395
C            0.72596569445201        0.44152631876411       -0.48037574895334
C            1.01589414408197        1.47803394936202       -1.29099787786809
O            1.35472988240387        2.31153467327920       -2.00560109267448
N           -1.77159268435378        0.81936936247798       -0.19906181537607
C           -2.19755043836247        2.11236349708569       -0.64637579663862
C           -2.39537667997983       -0.20756041264659        0.57422341350121
O           -3.48844172483692       -0.43139527999187        0.94118859561665
N           -1.12212013314112       -0.83763366732446        0.71576577330947
C           -0.73584317706433       -2.16443834252494        1.10067856564225
H            2.89072778158574       -1.00491979994302        1.62671040745492
H            2.88159297587482        0.74927777290700        1.39128428250823
H            1.42808492123095       -0.06765366465848        1.98463917084011
H            3.40054716904865       -1.61663050356089       -0.48354569782425
H           -1.80183633524605        2.32165899827734       -1.64085215094150
H           -3.28572536730330        2.10145423751136       -0.68916368328686
H           -1.87874710001615        2.89841071126611        0.04393965280030
H            0.11432333618396       -2.13959602478624        1.78397402749226
H           -0.47953726639645       -2.77191677239193        0.22913810502794
H           -1.58693815942051       -2.61332908792061        1.61174679436972
H            1.62294977467217       -0.82552147543159       -2.66194423224629

          :  Hamiltonian                  GFN2-xTB          :
         :: total energy             -42.098270393209 Eh    ::
         :: gradient norm              0.002486009184 Eh/a0 ::
         :: HOMO-LUMO gap              1.839688119473 eV    ::
         :: SCC energy               -42.654092082346 Eh    ::
         :: -> dispersion             -0.021881888243 Eh    ::
         :: repulsion energy           0.555538483025 Eh    ::

    * Orbital Energies and Occupations

         #    Occupation            Energy/Eh            Energy/eV
      -------------------------------------------------------------
         1        2.0000           -0.9542984             -25.9678
       ...           ...                  ...                  ...
        25        2.0000           -0.6872793             -18.7018
        26        2.0000           -0.6803761             -18.5140
        27        1.9997           -0.6497465             -17.6805
        28        1.9996           -0.6479273             -17.6310
        29        1.9994           -0.6405911             -17.4314
        30        1.9993           -0.6396496             -17.4058
        31        1.9993           -0.6375577             -17.3488
        32        1.9991           -0.6341216             -17.2553
        33        1.9941           -0.6047621             -16.4564
        34        1.9892           -0.5951562             -16.1950
        35        1.9493           -0.5703555             -15.5202
        36        1.8939           -0.5582246             -15.1901
        37        1.8176           -0.5489898             -14.9388 (HOMO)
        38        0.2447           -0.4813825             -13.0991 (LUMO)
        39        0.1141           -0.4681642             -12.7394
        40        0.0007           -0.3857511             -10.4968
        41        0.0003           -0.3733567             -10.1596
        42        0.0000           -0.3314332              -9.0188
        43                         -0.2185347              -5.9466
        44                         -0.1989764              -5.4144
        45                         -0.1654447              -4.5020
        46                         -0.1295790              -3.5260
        47                         -0.0897452              -2.4421
        48                         -0.0664679              -1.8087
       ...                                ...                  ...
        67                          0.9100429              24.7635
      -------------------------------------------------------------
                  HL-Gap            0.0676073 Eh            1.8397 eV

     #   Z          covCN         q      C6AA      α(0)
     1   6 C        3.697    -0.070    22.009     6.710
     2   7 N        2.741    -0.047    22.150     6.990
     3   6 C        2.763     0.122    25.303     8.238
     4   7 N        1.774    -0.252    27.374     7.748
     5   6 C        3.397     0.140    21.539     7.178
     6   6 C        2.888     0.005    27.906     8.661
     7   6 C        1.860     0.259    25.185     8.106
     8   8 O        0.856    -0.078    16.190     5.395
     9   7 N        2.995    -0.088    22.952     7.115
    10   6 C        3.682    -0.062    21.919     6.704
    11   6 C        3.253     0.342    20.398     7.308
    12   8 O        0.856    -0.250    18.907     5.830
    13   7 N        2.995    -0.080    22.784     7.089
    14   6 C        3.682    -0.063    21.921     6.704
    15   1 H        0.925     0.097     1.814     2.106
    16   1 H        0.924     0.083     1.944     2.181
    17   1 H        0.925     0.079     1.992     2.207
    18   1 H        0.925     0.108     1.714     2.047
    19   1 H        0.924     0.087     1.912     2.162
    20   1 H        0.925     0.116     1.646     2.006
    21   1 H        0.924     0.090     1.879     2.143
    22   1 H        0.924     0.092     1.863     2.135
    23   1 H        0.924     0.088     1.896     2.154
    24   1 H        0.925     0.112     1.680     2.027
    25   1 H        0.860     0.170     1.270     1.766

Wiberg/Mayer (AO) data.
largest (>0.10) Wiberg bond orders for each atom

     #   Z sym  total        # sym  WBO       # sym  WBO       # sym  WBO
 ---------------------------------------------------------------------------
     1   6 C    3.935 --     2 N    0.984    17 H    0.972    15 H    0.968
                            16 H    0.963
     2   7 N    3.381 --     3 C    1.173     1 C    0.984     6 C    0.968
                             4 N    0.146
     3   6 C    3.947 --     4 N    1.800     2 N    1.173    18 H    0.924
     4   7 N    2.921 --     3 C    1.800    25 H    0.929     2 N    0.146
     5   6 C    3.813 --     6 C    1.252     9 N    1.175    13 N    1.170
     6   6 C    3.907 --     7 C    1.396     5 C    1.252     2 N    0.968
                             8 O    0.139
     7   6 C    3.687 --     8 O    2.149     6 C    1.396
     8   8 O    2.409 --     7 C    2.149     6 C    0.139
     9   7 N    3.473 --     5 C    1.175    10 C    0.992    11 C    0.974
                            13 N    0.120    12 O    0.107
    10   6 C    3.929 --     9 N    0.992    20 H    0.966    19 H    0.966
                            21 H    0.958
    11   6 C    3.901 --    12 O    1.859    13 N    0.976     9 N    0.974
    12   8 O    2.151 --    11 C    1.859     9 N    0.107    13 N    0.106
    13   7 N    3.469 --     5 C    1.170    14 C    0.990    11 C    0.976
                             9 N    0.120    12 O    0.106
    14   6 C    3.927 --    13 N    0.990    24 H    0.968    22 H    0.962
                            23 H    0.961
    15   1 H    0.988 --     1 C    0.968
    16   1 H    0.980 --     1 C    0.963
    17   1 H    0.988 --     1 C    0.972
    18   1 H    0.974 --     3 C    0.924
    19   1 H    0.987 --    10 C    0.966
    20   1 H    0.985 --    10 C    0.966
    21   1 H    0.982 --    10 C    0.958
    22   1 H    0.984 --    14 C    0.962
    23   1 H    0.982 --    14 C    0.961
    24   1 H    0.986 --    14 C    0.968
    25   1 H    0.961 --     4 N    0.929
 ---------------------------------------------------------------------------

molecular dipole:
                 x           y           z       tot (Debye)
 q only:        0.741       0.181       0.224
   full:        0.767       0.444       0.310       2.387

           -------------------------------------------------
          | TOTAL ENERGY              -42.098270393209 Eh   |
          | GRADIENT NORM               0.002486009184 Eh/α |
          | HOMO-LUMO GAP               1.839688119473 eV   |
           -------------------------------------------------

 * finished run on 2024/06/05 at 19:59:10.888
