   * xtb version 6.6.1 (8d0f1dd) compiled by 'conda@1efc2f54142f' on 2023-08-01
          program call               : xtb xtbopt.xyz --opt crude --input .xc2 --gfn2

   ID    Z sym.   atoms
    1    6 C      1, 3, 5-7, 10, 11, 14
    2    7 N      2, 4, 9, 13
    3    8 O      8, 12
    4    1 H      15-25
########################################################################
[WARNING] Please study the warnings concerning your input carefully
-1- readin_getIntValue: could not parse ''
########################################################################

          :  Hamiltonian                  GFN2-xTB          :
 * total energy  :   -42.0982707 Eh     change        0.7105427E-13 Eh
 * total energy  :   -42.0983197 Eh     change       -0.4895345E-04 Eh
   *** GEOMETRY OPTIMIZATION CONVERGED AFTER 2 ITERATIONS ***

 final structure:
================
25
 xtb: 6.6.1 (8d0f1dd)
C            2.28327421203750       -0.15765387242958        1.31476794291564
N            1.82132651437716       -0.37071978890912       -0.04150850342374
C            2.55523329253121       -1.10071795862476       -0.93555989879404
N            2.37270644258971       -1.27075101354030       -2.16355544056716
C           -0.57439603060627        0.16936039691258       -0.04006959130766
C            0.72711287882695        0.44325163618344       -0.47918368098867
C            1.01739738451912        1.47917919967343       -1.29048356695030
O            1.35756274330964        2.31344138463403       -2.00343904599033
N           -1.77049207352432        0.81816503620034       -0.19980280332414
C           -2.19603105112079        2.11116581563135       -0.64693866208473
C           -2.39421632609712       -0.20952389802181        0.57204744143208
O           -3.48728113691059       -0.43576401614329        0.93734913913353
N           -1.12037988279940       -0.83899009564804        0.71414082777742
C           -0.73579881188136       -2.16598623820420        1.09933071944267
H            2.89093618630263       -1.00375091164219        1.62870343129409
H            2.88791942178029        0.75083742841487        1.38962713020424
H            1.43229890705100       -0.06052447289035        1.98790852527084
H            3.39606556988413       -1.61841056686644       -0.48495570454107
H           -1.80370849158925        2.31730671504931       -1.64304781309113
H           -3.28430029456433        2.10258264482748       -0.68623677847938
H           -1.87312279233856        2.89781300533024        0.04023679438524
H            0.11157125595319       -2.14148180139722        1.78498523661995
H           -0.47760086027856       -2.77313903970693        0.22866806542118
H           -1.58847752967432       -2.61454909022059        1.60673694145048
H            1.61283198632796       -0.82290195701515       -2.65854908789916

          :  Hamiltonian                  GFN2-xTB          :
         :: total energy             -42.098319669012 Eh    ::
         :: gradient norm              0.001946617555 Eh/a0 ::
         :: HOMO-LUMO gap              1.838174493762 eV    ::
         :: SCC energy               -42.654810439966 Eh    ::
         :: -> dispersion             -0.021892607071 Eh    ::
         :: repulsion energy           0.556207253589 Eh    ::

    * Orbital Energies and Occupations

         #    Occupation            Energy/Eh            Energy/eV
      -------------------------------------------------------------
         1        2.0000           -0.9543487             -25.9692
       ...           ...                  ...                  ...
        25        2.0000           -0.6872719             -18.7016
        26        2.0000           -0.6804017             -18.5147
        27        1.9997           -0.6497183             -17.6797
        28        1.9996           -0.6479020             -17.6303
        29        1.9994           -0.6406800             -17.4338
        30        1.9993           -0.6396628             -17.4061
        31        1.9993           -0.6376983             -17.3527
        32        1.9991           -0.6341210             -17.2553
        33        1.9941           -0.6046995             -16.4547
        34        1.9892           -0.5950819             -16.1930
        35        1.9492           -0.5703070             -15.5188
        36        1.8945           -0.5582936             -15.1919
        37        1.8170           -0.5489074             -14.9365 (HOMO)
        38        0.2445           -0.4813558             -13.0984 (LUMO)
        39        0.1145           -0.4682036             -12.7405
        40        0.0007           -0.3856606             -10.4944
        41        0.0003           -0.3732270             -10.1560
        42        0.0000           -0.3313664              -9.0169
        43                         -0.2181016              -5.9348
        44                         -0.1987995              -5.4096
        45                         -0.1652433              -4.4965
        46                         -0.1295500              -3.5252
        47                         -0.0895122              -2.4358
        48                         -0.0664209              -1.8074
       ...                                ...                  ...
        67                          0.9103877              24.7729
      -------------------------------------------------------------
                  HL-Gap            0.0675517 Eh            1.8382 eV

     #   Z          covCN         q      C6AA      α(0)
     1   6 C        3.697    -0.070    22.010     6.711
     2   7 N        2.741    -0.047    22.148     6.990
     3   6 C        2.763     0.122    25.299     8.237
     4   7 N        1.774    -0.252    27.382     7.749
     5   6 C        3.397     0.140    21.549     7.181
     6   6 C        2.889     0.005    27.904     8.661
     7   6 C        1.860     0.259    25.185     8.106
     8   8 O        0.856    -0.078    16.188     5.394
     9   7 N        2.995    -0.088    22.953     7.116
    10   6 C        3.683    -0.063    21.919     6.704
    11   6 C        3.252     0.342    20.404     7.309
    12   8 O        0.856    -0.250    18.907     5.830
    13   7 N        2.995    -0.080    22.785     7.090
    14   6 C        3.683    -0.063    21.921     6.704
    15   1 H        0.925     0.097     1.813     2.106
    16   1 H        0.924     0.083     1.944     2.180
    17   1 H        0.925     0.079     1.992     2.207
    18   1 H        0.925     0.108     1.714     2.047
    19   1 H        0.924     0.087     1.912     2.162
    20   1 H        0.925     0.116     1.646     2.006
    21   1 H        0.924     0.090     1.879     2.144
    22   1 H        0.924     0.092     1.862     2.134
    23   1 H        0.924     0.088     1.896     2.153
    24   1 H        0.925     0.112     1.679     2.027
    25   1 H        0.860     0.170     1.271     1.766

Wiberg/Mayer (AO) data.
largest (>0.10) Wiberg bond orders for each atom

     #   Z sym  total        # sym  WBO       # sym  WBO       # sym  WBO
 ---------------------------------------------------------------------------
     1   6 C    3.934 --     2 N    0.984    17 H    0.972    15 H    0.968
                            16 H    0.963
     2   7 N    3.381 --     3 C    1.174     1 C    0.984     6 C    0.968
                             4 N    0.146
     3   6 C    3.947 --     4 N    1.799     2 N    1.174    18 H    0.924
     4   7 N    2.921 --     3 C    1.799    25 H    0.929     2 N    0.146
     5   6 C    3.813 --     6 C    1.253     9 N    1.174    13 N    1.171
     6   6 C    3.908 --     7 C    1.395     5 C    1.253     2 N    0.968
                             8 O    0.139
     7   6 C    3.686 --     8 O    2.149     6 C    1.395
     8   8 O    2.409 --     7 C    2.149     6 C    0.139
     9   7 N    3.473 --     5 C    1.174    10 C    0.992    11 C    0.975
                            13 N    0.120    12 O    0.107
    10   6 C    3.929 --     9 N    0.992    20 H    0.966    19 H    0.966
                            21 H    0.958
    11   6 C    3.901 --    12 O    1.859    13 N    0.976     9 N    0.975
    12   8 O    2.151 --    11 C    1.859     9 N    0.107    13 N    0.106
    13   7 N    3.469 --     5 C    1.171    14 C    0.990    11 C    0.976
                             9 N    0.120    12 O    0.106
    14   6 C    3.927 --    13 N    0.990    24 H    0.968    22 H    0.963
                            23 H    0.961
    15   1 H    0.988 --     1 C    0.968
    16   1 H    0.980 --     1 C    0.963
    17   1 H    0.988 --     1 C    0.972
    18   1 H    0.974 --     3 C    0.924
    19   1 H    0.987 --    10 C    0.966
    20   1 H    0.985 --    10 C    0.966
    21   1 H    0.982 --    10 C    0.958
    22   1 H    0.984 --    14 C    0.963
    23   1 H    0.982 --    14 C    0.961
    24   1 H    0.986 --    14 C    0.968
    25   1 H    0.961 --     4 N    0.929
 ---------------------------------------------------------------------------

molecular dipole:
                 x           y           z       tot (Debye)
 q only:        0.745       0.182       0.225
   full:        0.772       0.446       0.310       2.400

           -------------------------------------------------
          | TOTAL ENERGY              -42.098319669012 Eh   |
          | GRADIENT NORM               0.001946617555 Eh/α |
          | HOMO-LUMO GAP               1.838174493762 eV   |
           -------------------------------------------------

 * finished run on 2024/06/05 at 19:59:11.067
