   * xtb version 6.6.1 (8d0f1dd) compiled by 'conda@1efc2f54142f' on 2023-08-01
          program call               : xtb struc.xyz --opt loose --input .xc1 --gfn2

   ID    Z sym.   atoms
    1    6 C      1, 3, 5-7, 10, 11, 14
    2    7 N      2, 4, 9, 13
    3    8 O      8, 12
    4    1 H      15-25
constraining bond 6 16 to    3.7133300 Å, actual value:    3.2546852 Å

          :  Hamiltonian                  GFN2-xTB          :
 * total energy  :   -42.6234542 Eh     change       -0.6650680E-10 Eh
 * total energy  :   -44.5811841 Eh     change       -0.1957730E+01 Eh
 * total energy  :   -48.0884709 Eh     change       -0.3507287E+01 Eh
 * total energy  :   -53.4188499 Eh     change       -0.5330379E+01 Eh
 * total energy  :   -58.8214333 Eh     change       -0.5402583E+01 Eh
 * total energy  :   -58.7733282 Eh     change        0.4810509E-01 Eh
 * total energy  :   -58.8027542 Eh     change       -0.2942598E-01 Eh
 * total energy  :   -59.2009336 Eh     change       -0.3981795E+00 Eh
 * total energy  :   -59.3047051 Eh     change       -0.1037714E+00 Eh
 * total energy  :   -59.3426422 Eh     change       -0.3793715E-01 Eh
 * total energy  :   -59.7509746 Eh     change       -0.3961407E-03 Eh
 * total energy  :   -59.7512192 Eh     change       -0.2445734E-03 Eh
 * total energy  :   -59.7514471 Eh     change       -0.2279115E-03 Eh
 * total energy  :   -59.7515796 Eh     change       -0.1325490E-03 Eh
 * total energy  :   -59.7516252 Eh     change       -0.4558587E-04 Eh
 * total energy  :   -59.7517073 Eh     change       -0.8204076E-04 Eh
 * total energy  :   -59.7517447 Eh     change       -0.3741474E-04 Eh
 * total energy  :   -59.7517734 Eh     change       -0.2869981E-04 Eh
 * total energy  :   -59.7517954 Eh     change       -0.2203727E-04 Eh
   *** GEOMETRY OPTIMIZATION CONVERGED AFTER 43 ITERATIONS ***

 final structure:
================
25
 xtb: 6.6.1 (8d0f1dd)
C            3.27289266051676        1.15301197485164       -0.10828929393157
N            2.42204355210314        0.15985321135782       -0.04116398202562
C            2.55497623884302       -1.04585364059220        0.55031496905492
N            1.39306393652099       -1.75267433037839        0.44304875505343
C            0.47720872893726       -1.06585871424706       -0.25448350505068
C            1.08228724512632        0.24472564917986       -0.70900281654322
C            0.17416609051739        1.32367215859303        0.10315558006652
O            0.68297491159471        2.22933198113404        0.69192394442273
N           -1.14325260226579        1.06262159327902       -0.06341271877217
C           -2.10230818880843        2.11088227453282        0.28714135426197
C           -1.71688179489592       -0.16778506446919       -0.42169812724130
O           -2.87967681991962       -0.28697741525246       -0.67311736795551
N           -0.85178780248249       -1.27257690890078       -0.35401353164136
C           -1.43045919409338       -2.60343980992954       -0.27869176950466
H            4.23386334655583        1.06308567008600        0.36307229335411
H            1.08776632816959        0.35424206279428       -1.11896122055585
H            2.99626418493364        2.05851071989329       -0.61172480340560
H            3.42561711918111       -1.38337682984693        1.06830771871568
H           -1.57073757644615        3.05582341359848        0.36023661517647
H           -2.86259658133691        2.15855158677491       -0.49066828979491
H           -2.58131477749631        1.88395573581679        1.23871417267795
H           -1.35563133294680       -3.00216829542253        0.73416138141031
H           -0.93006163662298       -3.26833092439338       -0.97988961071592
H           -2.48138889218671       -2.52033812588233       -0.54817162413125
H            1.26340437060113       -2.67064943097838        0.84438349497480

          :  Hamiltonian                  GFN2-xTB          :
         :: total energy             -59.751795406299 Eh    ::
         :: gradient norm              0.003077342347 Eh/a0 ::
         :: HOMO-LUMO gap              1.609050263295 eV    ::
         :: SCC energy               -42.699332887862 Eh    ::
         :: -> dispersion             -0.023151350295 Eh    ::
         :: repulsion energy           2.261940343938 Eh    ::

    * Orbital Energies and Occupations

         #    Occupation            Energy/Eh            Energy/eV
      -------------------------------------------------------------
         1        2.0000           -0.9144861             -24.8844
       ...           ...                  ...                  ...
        25        2.0000           -0.6789289             -18.4746
        26        2.0000           -0.6733515             -18.3228
        27        2.0000           -0.6670036             -18.1501
        28        2.0000           -0.6634449             -18.0533
        29        1.9999           -0.6409841             -17.4421
        30        1.9998           -0.6330330             -17.2257
        31        1.9998           -0.6284453             -17.1009
        32        1.9994           -0.6112476             -16.6329
        33        1.9992           -0.6080345             -16.5455
        34        1.9973           -0.5882777             -16.0079
        35        1.9959           -0.5814933             -15.8232
        36        1.9928           -0.5725319             -15.5794
        37        1.7290           -0.5128609             -13.9557 (HOMO)
        38        0.2645           -0.4537294             -12.3466 (LUMO)
        39        0.0179           -0.4090007             -11.1295
        40        0.0042           -0.3860519             -10.5050
        41        0.0004           -0.3471959              -9.4477
        42        0.0000           -0.2398167              -6.5257
        43                         -0.2012411              -5.4760
        44                         -0.1973537              -5.3703
        45                         -0.1607422              -4.3740
        46                         -0.1329329              -3.6173
        47                         -0.0927174              -2.5230
        48                         -0.0638124              -1.7364
       ...                                ...                  ...
        67                         10.4551256             284.4984
      -------------------------------------------------------------
                  HL-Gap            0.0591315 Eh            1.6091 eV

     #   Z          covCN         q      C6AA      α(0)
     1   6 C        2.787    -0.067    29.650     8.919
     2   7 N        2.780     0.090    19.690     6.590
     3   6 C        2.913     0.001    28.009     8.678
     4   7 N        2.730    -0.050    22.208     6.999
     5   6 C        2.975     0.085    26.111     8.382
     6   6 C        3.838    -0.064    21.705     6.628
     7   6 C        2.756     0.268    22.479     7.764
     8   8 O        0.857    -0.319    20.123     6.014
     9   7 N        2.734    -0.087    22.941     7.114
    10   6 C        3.708    -0.061    21.830     6.678
    11   6 C        2.724     0.315    21.647     7.617
    12   8 O        0.859    -0.336    20.445     6.062
    13   7 N        2.734    -0.064    22.478     7.042
    14   6 C        3.697    -0.072    22.057     6.718
    15   1 H        0.926     0.108     1.710     2.045
    16   1 H        0.940     0.190     1.150     1.677
    17   1 H        0.926     0.117     1.635     2.000
    18   1 H        0.927     0.115     1.650     2.009
    19   1 H        0.925     0.104     1.750     2.069
    20   1 H        0.925     0.110     1.692     2.034
    21   1 H        0.925     0.094     1.844     2.124
    22   1 H        0.924     0.081     1.966     2.193
    23   1 H        0.925     0.088     1.897     2.154
    24   1 H        0.925     0.126     1.566     1.957
    25   1 H        0.860     0.229     0.970     1.543

Wiberg/Mayer (AO) data.
largest (>0.10) Wiberg bond orders for each atom

     #   Z sym  total        # sym  WBO       # sym  WBO       # sym  WBO
 ---------------------------------------------------------------------------
     1   6 C    3.672 --     2 N    1.435    17 H    0.965    15 H    0.962
                             3 C    0.162
     2   7 N    3.712 --     1 C    1.435     3 C    1.240     6 C    0.957
     3   6 C    3.708 --     2 N    1.240     4 N    1.194    18 H    0.954
                             1 C    0.162     5 C    0.103
     4   7 N    3.558 --     5 C    1.279     3 C    1.194    25 H    0.916
     5   6 C    3.765 --     4 N    1.279    13 N    1.208     6 C    1.012
                             3 C    0.103
     6   6 C    3.920 --     5 C    1.012     2 N    0.957    16 H    0.923
                             7 C    0.797
     7   6 C    3.907 --     8 O    1.778     9 N    1.208     6 C    0.797
     8   8 O    2.135 --     7 C    1.778     9 N    0.158
     9   7 N    3.551 --     7 C    1.208    11 C    1.053    10 C    0.951
                             8 O    0.158    12 O    0.109
    10   6 C    3.912 --    19 H    0.974    21 H    0.970    20 H    0.966
                             9 N    0.951
    11   6 C    3.916 --    12 O    1.726     9 N    1.053    13 N    1.047
    12   8 O    2.044 --    11 C    1.726    13 N    0.116     9 N    0.109
    13   7 N    3.508 --     5 C    1.208    11 C    1.047    14 C    0.966
                            12 O    0.116
    14   6 C    3.921 --    23 H    0.973    22 H    0.969    13 N    0.966
                            24 H    0.965
    15   1 H    0.987 --     1 C    0.962
    16   1 H    0.960 --     6 C    0.923
    17   1 H    0.986 --     1 C    0.965
    18   1 H    0.986 --     3 C    0.954
    19   1 H    0.988 --    10 C    0.974
    20   1 H    0.986 --    10 C    0.966
    21   1 H    0.989 --    10 C    0.970
    22   1 H    0.989 --    14 C    0.969
    23   1 H    0.988 --    14 C    0.973
    24   1 H    0.983 --    14 C    0.965
    25   1 H    0.948 --     4 N    0.916
 ---------------------------------------------------------------------------

molecular dipole:
                 x           y           z       tot (Debye)
 q only:        1.927      -1.535       0.023
   full:        2.189      -1.848       0.113       7.288

           -------------------------------------------------
          | TOTAL ENERGY              -59.751795406299 Eh   |
          | GRADIENT NORM               0.003077342347 Eh/α |
          | HOMO-LUMO GAP               1.609050263295 eV   |
           -------------------------------------------------

 * finished run on 2024/06/05 at 20:00:23.591
