   * xtb version 6.6.1 (8d0f1dd) compiled by 'conda@1efc2f54142f' on 2023-08-01
          program call               : xtb xtbopt.xyz --opt crude --input .xc2 --gfn2

   ID    Z sym.   atoms
    1    6 C      1, 3, 5-7, 10, 11, 14
    2    7 N      2, 4, 9, 13
    3    8 O      8, 12
    4    1 H      15-25

          :  Hamiltonian                  GFN2-xTB          :
 * total energy  :   -42.1368068 Eh     change       -0.4583001E-11 Eh
   *** GEOMETRY OPTIMIZATION CONVERGED AFTER 1 ITERATIONS ***

 final structure:
================
25
 xtb: 6.6.1 (8d0f1dd)
C            3.45008109957738        2.01784715658569        0.01658387164789
N            2.76514676972557        0.75130154286282        0.01456886667366
C            3.31987257659595       -0.45397282124024        0.02167590957588
N            2.37089543446258       -1.40506901780114        0.01447847663722
C            1.14527213063386       -0.78883327104050        0.00249726984773
C            1.40821125462529        0.58831538857193        0.00221854952395
C            0.31045395946916        1.53140293698933       -0.00248655021384
O            0.42530445639922        2.74151269743692       -0.00033870018434
N           -0.91103819417607        0.88248126985299       -0.00824127954701
C           -2.10921532590680        1.69602295237361       -0.00775413828547
C           -1.12137697397374       -0.52487360284747       -0.01314155466431
O           -2.25558434351775       -0.94720031244243       -0.02189152755378
N           -0.03900511305482       -1.34266570960308       -0.00606806294106
C           -4.02897254492652       -4.14947890358312       -0.01482709433809
H            4.07430377716383        2.10968492524368        0.90562968483914
H            4.08158973692254        2.10835070884776       -0.86747095840989
H            2.70640853191466        2.81489078657237        0.01268557532813
H            4.37674305123987       -0.64223525602564        0.03224145742941
H           -1.81199272154069        2.74300580943273        0.01166174256288
H           -2.70112090201419        1.48634113925455       -0.90009418264262
H           -2.71831178347944        1.45695435483198        0.86522031928851
H           -4.27304799226171       -4.63098595802421        0.91556423032538
H           -4.27114475441010       -4.63232934303043       -0.94146489314725
H           -3.54887324719991       -3.18704470028209       -0.01845148162609
H            2.51583263184619       -2.40518423131461        0.01837608778880

          :  Hamiltonian                  GFN2-xTB          :
         :: total energy             -42.136806834438 Eh    ::
         :: gradient norm              0.003033148258 Eh/a0 ::
         :: HOMO-LUMO gap              1.110870734799 eV    ::
         :: SCC energy               -42.663552795244 Eh    ::
         :: -> dispersion             -0.020246326466 Eh    ::
         :: repulsion energy           0.526744334354 Eh    ::

    * Orbital Energies and Occupations

         #    Occupation            Energy/Eh            Energy/eV
      -------------------------------------------------------------
         1        2.0000           -0.8998704             -24.4867
       ...           ...                  ...                  ...
        25        1.9998           -0.6514089             -17.7257
        26        1.9993           -0.6317502             -17.1908
        27        1.9993           -0.6308282             -17.1657
        28        1.9981           -0.6157397             -16.7551
        29        1.9980           -0.6146653             -16.7259
        30        1.9978           -0.6127954             -16.6750
        31        1.9970           -0.6079936             -16.5443
        32        1.9940           -0.5971747             -16.2500
        33        1.9642           -0.5686358             -15.4734
        34        1.9071           -0.5530712             -15.0498
        35        1.8955           -0.5511145             -14.9966
        36        1.8345           -0.5433094             -14.7842
        37        1.7363           -0.5350676             -14.5599 (HOMO)
        38        0.6665           -0.4942439             -13.4491 (LUMO)
        39        0.0119           -0.4241821             -11.5426
        40        0.0009           -0.3839059             -10.4466
        41        0.0001           -0.3513101              -9.5596
        42        0.0000           -0.2645150              -7.1978
        43                         -0.1817723              -4.9463
        44                         -0.1620517              -4.4097
        45                         -0.1203147              -3.2739
        46                         -0.0708437              -1.9278
        47                         -0.0244702              -0.6659
        48                         -0.0204151              -0.5555
       ...                                ...                  ...
        67                          0.5439273              14.8010
      -------------------------------------------------------------
                  HL-Gap            0.0408237 Eh            1.1109 eV

     #   Z          covCN         q      C6AA      α(0)
     1   6 C        3.692    -0.092    22.456     6.781
     2   7 N        2.827     0.086    19.743     6.599
     3   6 C        3.064     0.064    26.501     8.442
     4   7 N        2.794    -0.054    22.282     7.011
     5   6 C        3.067     0.149    24.711     8.151
     6   6 C        3.131    -0.021    28.319     8.712
     7   6 C        2.767     0.276    22.324     7.738
     8   8 O        0.858    -0.367    21.033     6.149
     9   7 N        2.746    -0.086    22.910     7.109
    10   6 C        3.704    -0.055    21.713     6.662
    11   6 C        2.755     0.339    21.248     7.548
    12   8 O        0.860    -0.353    20.764     6.109
    13   7 N        1.832    -0.253    27.434     7.762
    14   6 C        2.778    -0.072    29.776     8.938
    15   1 H        0.925     0.107     1.723     2.053
    16   1 H        0.925     0.107     1.722     2.052
    17   1 H        0.925     0.136     1.493     1.911
    18   1 H        0.926     0.125     1.573     1.961
    19   1 H        0.925     0.112     1.677     2.025
    20   1 H        0.924     0.103     1.759     2.074
    21   1 H        0.924     0.103     1.759     2.074
    22   1 H        0.926     0.131     1.529     1.934
    23   1 H        0.926     0.131     1.529     1.934
    24   1 H        0.926     0.147     1.414     1.859
    25   1 H        0.860     0.237     0.934     1.514

Wiberg/Mayer (AO) data.
largest (>0.10) Wiberg bond orders for each atom

     #   Z sym  total        # sym  WBO       # sym  WBO       # sym  WBO
 ---------------------------------------------------------------------------
     1   6 C    3.911 --     2 N    0.983    17 H    0.961    15 H    0.959
                            16 H    0.959
     2   7 N    3.710 --     3 C    1.393     6 C    1.182     1 C    0.983
     3   6 C    3.877 --     2 N    1.393     4 N    1.316    18 H    0.951
     4   7 N    3.595 --     3 C    1.316     5 C    1.152    25 H    0.916
     5   6 C    3.948 --    13 N    1.379     6 C    1.259     4 N    1.152
     6   6 C    3.807 --     5 C    1.259     2 N    1.182     7 C    1.076
     7   6 C    3.954 --     8 O    1.638     9 N    1.143     6 C    1.076
     8   8 O    1.942 --     7 C    1.638     9 N    0.140
     9   7 N    3.471 --     7 C    1.143    11 C    1.030    10 C    0.988
                             8 O    0.140
    10   6 C    3.889 --     9 N    0.988    19 H    0.961    21 H    0.950
                            20 H    0.950
    11   6 C    3.943 --    12 O    1.649    13 N    1.179     9 N    1.030
    12   8 O    1.912 --    11 C    1.649
    13   7 N    2.832 --     5 C    1.379    11 C    1.179
    14   6 C    2.935 --    23 H    0.980    22 H    0.980    24 H    0.973
    15   1 H    0.986 --     1 C    0.959
    16   1 H    0.986 --     1 C    0.959
    17   1 H    0.980 --     1 C    0.961
    18   1 H    0.983 --     3 C    0.951
    19   1 H    0.979 --    10 C    0.961
    20   1 H    0.968 --    10 C    0.950
    21   1 H    0.968 --    10 C    0.950
    22   1 H    0.982 --    14 C    0.980
    23   1 H    0.982 --    14 C    0.980
    24   1 H    0.977 --    14 C    0.973
    25   1 H    0.942 --     4 N    0.916
 ---------------------------------------------------------------------------

molecular dipole:
                 x           y           z       tot (Debye)
 q only:        1.835      -1.977       0.024
   full:        2.270      -2.075       0.026       7.817

           -------------------------------------------------
          | TOTAL ENERGY              -42.136806834438 Eh   |
          | GRADIENT NORM               0.003033148258 Eh/α |
          | HOMO-LUMO GAP               1.110870734799 eV   |
           -------------------------------------------------

 * finished run on 2024/06/05 at 19:58:00.474
