   * xtb version 6.6.1 (8d0f1dd) compiled by 'conda@1efc2f54142f' on 2023-08-01
          program call               : xtb xtbopt.xyz --opt crude --input .xc2 --gfn2

   ID    Z sym.   atoms
    1    7 N      1, 17
    2    6 C      2-6, 8, 9, 11-16, 18-23, 25, 26, 28-33
    3    8 O      7, 10, 24, 27
    4    1 H      34-72

          :  Hamiltonian                  GFN2-xTB          :
 * total energy  :   -99.2945811 Eh     change       -0.6454570E-10 Eh
   *** GEOMETRY OPTIMIZATION CONVERGED AFTER 1 ITERATIONS ***

 final structure:
================
72
 xtb: 6.6.1 (8d0f1dd)
N           -1.97479081923504        2.94275667140132        2.19163987271591
C           -1.94136130196346        2.21105193088009        1.18125851052319
C           -3.10386647316724        1.96753450172810        0.25905181842769
C           -3.50856955099397        0.50291803644029        0.32919827116271
C           -4.40079613730895       -0.01910979519971       -0.60941849775383
C           -4.82893649575111       -1.33513633648741       -0.54710403080151
O           -5.68939833574968       -1.91676335575898       -1.40658773290439
C           -6.29441715389303       -1.13996074013121       -2.41349991649580
C           -4.35088180243833       -2.17880200786479        0.49301700637551
O           -4.82776571890742       -3.43808405888048        0.48288129607227
C           -4.48721043487931       -4.30984005126810        1.53625601322834
C           -3.46133983185571       -1.65490220385943        1.41811237139430
C           -3.04776456665026       -0.33184881816909        1.33622800549183
C           -2.59496358762351        2.32028456195675       -1.16278884458809
C           -1.61485686713036        1.29533542257224       -1.75990277474285
C           -0.26841547274676        1.33592181568852       -1.14723329450261
N            0.46229773148220        0.27843480878706       -0.83114991658736
C            1.84264017666924        0.42770671445597       -0.43092643106761
C            2.80729700425710        0.09353805242599       -1.58352528050179
C            4.22945236169091        0.18741549499291       -1.09868346882462
C            4.97489074225573        1.35127644622062       -1.31297351755102
C            6.27868622914459        1.45216155435313       -0.85272939925155
C            6.87325600890253        0.41303338625822       -0.15603307199620
O            8.11473607253761        0.40688010525717        0.33264024128979
C            8.94973283916631        1.52811470423400        0.15388734068505
C            6.12605544294068       -0.82740711515954        0.10577686577568
O            6.62549422633980       -1.77097675961989        0.73342550193718
C            7.03229289256582       -5.20677403982279        1.93063793987793
C            4.79106752352093       -0.86119131734157       -0.41098199173010
C           -0.05638033784003       -1.06577353634140       -0.92463538856626
C           -4.35562135532241        2.82973820802040        0.60230039250054
C           -4.92307813617734        2.46961280718053        1.97319429651874
C           -4.08873668294943        4.33081883170598        0.53280990762162
H           -4.78063985916797        0.61842256487486       -1.39047833289789
H           -6.86242593976197       -0.30628479700129       -1.99001340648589
H           -6.97532586400550       -1.81297778261388       -2.93082800020009
H           -5.55605749115600       -0.75757537194409       -3.12586847176621
H           -4.80161848389563       -3.90871548258301        2.50423163780391
H           -5.02597956299798       -5.23383304070952        1.33609041957936
H           -3.41232065621025       -4.51497076136565        1.55684436622854
H           -3.09247736219368       -2.26682745288540        2.22506488047152
H           -2.38049355897509        0.04813620518801        2.09428609162583
H           -3.45173343020146        2.39847848633488       -1.83106438763684
H           -2.11341900248498        3.29815442413365       -1.13043461936981
H           -2.05076968653687        0.29901629781171       -1.70925427873836
H           -1.49506868472396        1.55419067665333       -2.82011899334219
H           -1.02771541148293        1.69600412079494        0.82481922402985
H            0.21904487117807        2.29814659369213       -1.08214641992066
H            2.04564641952773       -0.23800376704481        0.41210080970288
H            2.01754535571515        1.45519289047620       -0.10519810975447
H            2.64062585039797        0.79268437346629       -2.40448586411706
H            2.60776528353996       -0.91707078396153       -1.94227366136176
H            4.54142221473662        2.17803408892447       -1.85463945812730
H            6.82962412608031        2.35915319157295       -1.04956492990016
H            8.51647853768572        2.42412762424133        0.60835730888807
H            9.14325449813807        1.71370417936621       -0.90667015060842
H            9.88382376807735        1.28256551163137        0.65556229452374
H            7.84700950363938       -4.51718919060668        2.00416927377114
H            6.30954730530820       -5.26527764233931        2.71652379024206
H            6.91121771708881       -5.79728006624347        1.04748259577920
H            4.24076964232195       -1.77469404113177       -0.24031273127540
H           -0.25138034831341       -1.34226953089190       -1.96272126680709
H           -0.98581444685850       -1.15637021679819       -0.35685712025883
H            0.67058722212286       -1.76039884553964       -0.51206903322101
H           -5.11423133909584        2.58444566895939       -0.15004467632436
H           -4.20361935599866        2.71042247596074        2.74929260006484
H           -5.16786327383698        1.41187765806680        2.03295835025702
H           -5.82987059157072        3.04085862216958        2.15329070856950
H           -3.30046615419473        4.60647974868890        1.22650265501794
H           -3.81491682313176        4.64965097554746       -0.46938861211020
H           -4.99125050236900        4.86588820994505        0.81610236212590
H           -1.12113707837805        3.06027978895111        2.72787590447925

          :  Hamiltonian                  GFN2-xTB          :
         :: total energy             -99.294581134058 Eh    ::
         :: gradient norm              0.002203975311 Eh/a0 ::
         :: HOMO-LUMO gap              0.375666518305 eV    ::
         :: SCC energy              -100.679764118912 Eh    ::
         :: -> dispersion             -0.072570452844 Eh    ::
         :: repulsion energy           1.383991927971 Eh    ::

    * Orbital Energies and Occupations

         #    Occupation            Energy/Eh            Energy/eV
      -------------------------------------------------------------
         1        2.0000           -0.8130619             -22.1245
       ...           ...                  ...                  ...
        78        1.9980           -0.5324665             -14.4892
        79        1.9979           -0.5313876             -14.4598
        80        1.9970           -0.5259330             -14.3114
        81        1.9959           -0.5209794             -14.1766
        82        1.9952           -0.5187434             -14.1157
        83        1.9944           -0.5161403             -14.0449
        84        1.9933           -0.5133680             -13.9695
        85        1.9782           -0.4944898             -13.4558
        86        1.9553           -0.4829405             -13.1415
        87        1.9299           -0.4755942             -12.9416
        88        1.8520           -0.4631128             -12.6019
        89        1.8381           -0.4615767             -12.5601
        90        1.2665           -0.4317576             -11.7487 (HOMO)
        91        0.8386           -0.4179521             -11.3731 (LUMO)
        92        0.3611           -0.3991557             -10.8616
        93        0.0130           -0.3434625              -9.3461
        94        0.0031           -0.3204941              -8.7211
        95        0.0025           -0.3175593              -8.6412
        96        0.0013           -0.3072059              -8.3595
        97        0.0006           -0.2947468              -8.0205
        98        0.0000           -0.1950007              -5.3062
        99        0.0000           -0.1831152              -4.9828
       100                         -0.1402096              -3.8153
       101                         -0.0728722              -1.9830
       ...                                ...                  ...
       171                          0.6058650              16.4864
      -------------------------------------------------------------
                  HL-Gap            0.0138055 Eh            0.3757 eV

     #   Z          covCN         q      C6AA      α(0)
     1   7 N        1.774    -0.265    27.703     7.794
     2   6 C        2.827     0.102    25.743     8.314
     3   6 C        3.907     0.007    20.410     6.422
     4   6 C        2.974     0.002    27.982     8.677
     5   6 C        2.920    -0.080    30.004     8.983
     6   6 C        2.862     0.130    25.148     8.220
     7   8 O        1.706    -0.227    17.772     5.692
     8   6 C        3.644     0.027    20.461     6.502
     9   6 C        2.864     0.130    25.154     8.221
    10   8 O        1.706    -0.225    17.738     5.686
    11   6 C        3.645     0.026    20.475     6.503
    12   6 C        2.913    -0.073    29.830     8.956
    13   6 C        2.921    -0.052    29.296     8.876
    14   6 C        3.813    -0.065    21.740     6.637
    15   6 C        3.802    -0.070    21.839     6.653
    16   6 C        2.844     0.011    27.763     8.635
    17   7 N        2.729     0.018    20.948     6.798
    18   6 C        3.756    -0.018    20.946     6.525
    19   6 C        3.808    -0.071    21.846     6.653
    20   6 C        2.961     0.006    27.897     8.663
    21   6 C        2.920    -0.043    29.066     8.841
    22   6 C        2.905    -0.067    29.657     8.930
    23   6 C        2.858     0.130    25.154     8.220
    24   8 O        1.706    -0.192    17.214     5.602
    25   6 C        3.645     0.022    20.539     6.513
    26   6 C        2.827     0.200    23.745     7.985
    27   8 O        0.858    -0.372    21.136     6.164
    28   6 C        2.780    -0.108    30.712     9.077
    29   6 C        2.917    -0.076    29.893     8.966
    30   6 C        3.700    -0.072    22.037     6.713
    31   6 C        3.853    -0.007    20.671     6.466
    32   6 C        3.756    -0.119    22.831     6.813
    33   6 C        3.755    -0.119    22.844     6.815
    34   1 H        0.926     0.052     2.290     2.366
    35   1 H        0.924     0.055     2.261     2.351
    36   1 H        0.925     0.083     1.953     2.185
    37   1 H        0.924     0.048     2.345     2.395
    38   1 H        0.924     0.057     2.240     2.340
    39   1 H        0.925     0.083     1.952     2.185
    40   1 H        0.924     0.051     2.313     2.378
    41   1 H        0.926     0.055     2.264     2.353
    42   1 H        0.926     0.041     2.439     2.442
    43   1 H        0.925     0.062     2.179     2.308
    44   1 H        0.924     0.055     2.254     2.348
    45   1 H        0.925     0.068     2.108     2.270
    46   1 H        0.924     0.083     1.951     2.184
    47   1 H        0.922     0.007     2.939     2.681
    48   1 H        0.926     0.073     2.055     2.242
    49   1 H        0.924     0.074     2.046     2.237
    50   1 H        0.924     0.067     2.114     2.274
    51   1 H        0.924     0.055     2.263     2.353
    52   1 H        0.924     0.059     2.207     2.323
    53   1 H        0.926     0.046     2.373     2.409
    54   1 H        0.926     0.056     2.247     2.344
    55   1 H        0.924     0.060     2.205     2.322
    56   1 H        0.924     0.062     2.177     2.308
    57   1 H        0.925     0.087     1.912     2.162
    58   1 H        0.927     0.099     1.791     2.093
    59   1 H        0.927     0.085     1.926     2.170
    60   1 H        0.927     0.086     1.917     2.165
    61   1 H        0.926     0.056     2.251     2.346
    62   1 H        0.924     0.079     1.989     2.206
    63   1 H        0.924     0.079     1.985     2.203
    64   1 H        0.925     0.085     1.925     2.170
    65   1 H        0.924     0.038     2.472     2.459
    66   1 H        0.925     0.069     2.096     2.264
    67   1 H        0.925     0.036     2.504     2.475
    68   1 H        0.925     0.053     2.288     2.365
    69   1 H        0.925     0.062     2.176     2.307
    70   1 H        0.925     0.036     2.508     2.476
    71   1 H        0.925     0.056     2.245     2.343
    72   1 H        0.860     0.159     1.340     1.813

Wiberg/Mayer (AO) data.
largest (>0.10) Wiberg bond orders for each atom

     #   Z sym  total        # sym  WBO       # sym  WBO       # sym  WBO
 ---------------------------------------------------------------------------
     1   7 N    3.042 --     2 C    1.958    72 H    0.941
     2   6 C    3.930 --     1 N    1.958     3 C    0.994    47 H    0.898
     3   6 C    3.975 --     2 C    0.994     4 C    0.971    14 C    0.957
                            31 C    0.941
     4   6 C    3.945 --    13 C    1.411     5 C    1.370     3 C    0.971
     5   6 C    3.960 --     6 C    1.399     4 C    1.370    34 H    0.958
     6   6 C    3.901 --     5 C    1.399     9 C    1.219     7 O    1.102
     7   8 O    2.254 --     6 C    1.102     8 C    0.977
     8   6 C    3.931 --     7 O    0.977    36 H    0.976    35 H    0.973
                            37 H    0.973
     9   6 C    3.897 --    12 C    1.389     6 C    1.219    10 O    1.106
    10   8 O    2.253 --     9 C    1.106    11 C    0.976
    11   6 C    3.929 --    39 H    0.977    10 O    0.976    38 H    0.973
                            40 H    0.973
    12   6 C    3.960 --    13 C    1.407     9 C    1.389    41 H    0.963
    13   6 C    3.951 --     4 C    1.411    12 C    1.407    42 H    0.962
    14   6 C    3.974 --    15 C    0.983    44 H    0.972    43 H    0.968
                             3 C    0.957
    15   6 C    3.986 --    16 C    1.060    14 C    0.983    45 H    0.960
                            46 H    0.925
    16   6 C    3.619 --    17 N    1.421    15 C    1.060    48 H    0.956
    17   7 N    3.498 --    16 C    1.421    30 C    0.997    18 C    0.986
    18   6 C    3.952 --    17 N    0.986    50 H    0.968    19 C    0.967
                            49 H    0.962
    19   6 C    3.972 --    20 C    1.002    51 H    0.973    52 H    0.969
                            18 C    0.967
    20   6 C    3.935 --    29 C    1.492    21 C    1.324    19 C    1.002
    21   6 C    3.809 --    22 C    1.418    20 C    1.324    53 H    0.968
    22   6 C    3.941 --    21 C    1.418    23 C    1.388    54 H    0.959
    23   6 C    3.734 --    22 C    1.388    24 O    1.153    26 C    1.049
    24   8 O    2.256 --    23 C    1.153    25 C    0.972
    25   6 C    3.922 --    57 H    0.976    24 O    0.972    55 H    0.970
                            56 H    0.969
    26   6 C    3.883 --    27 O    1.576    29 C    1.166    23 C    1.049
    27   8 O    1.712 --    26 C    1.576
    28   6 C    2.969 --    59 H    0.990    60 H    0.990    58 H    0.988
    29   6 C    3.797 --    20 C    1.492    26 C    1.166    61 H    0.964
    30   6 C    3.956 --    17 N    0.997    64 H    0.977    62 H    0.966
                            63 H    0.963
    31   6 C    3.970 --    33 C    1.009    32 C    1.008    65 H    0.960
                             3 C    0.941
    32   6 C    3.977 --    31 C    1.008    67 H    0.981    68 H    0.981
                            66 H    0.973
    33   6 C    3.981 --    31 C    1.009    70 H    0.983    71 H    0.979
                            69 H    0.975
    34   1 H    0.996 --     5 C    0.958
    35   1 H    0.993 --     8 C    0.973
    36   1 H    0.992 --     8 C    0.976
    37   1 H    0.993 --     8 C    0.973
    38   1 H    0.992 --    11 C    0.973
    39   1 H    0.992 --    11 C    0.977
    40   1 H    0.992 --    11 C    0.973
    41   1 H    0.995 --    12 C    0.963
    42   1 H    0.998 --    13 C    0.962
    43   1 H    0.995 --    14 C    0.968
    44   1 H    0.996 --    14 C    0.972
    45   1 H    0.994 --    15 C    0.960
    46   1 H    0.971 --    15 C    0.925
    47   1 H    0.985 --     2 C    0.898
    48   1 H    0.994 --    16 C    0.956
    49   1 H    0.990 --    18 C    0.962
    50   1 H    0.994 --    18 C    0.968
    51   1 H    0.996 --    19 C    0.973
    52   1 H    0.995 --    19 C    0.969
    53   1 H    0.997 --    21 C    0.968
    54   1 H    0.991 --    22 C    0.959
    55   1 H    0.987 --    25 C    0.970
    56   1 H    0.987 --    25 C    0.969
    57   1 H    0.992 --    25 C    0.976
    58   1 H    0.990 --    28 C    0.988
    59   1 H    0.992 --    28 C    0.990
    60   1 H    0.992 --    28 C    0.990
    61   1 H    0.993 --    29 C    0.964
    62   1 H    0.985 --    30 C    0.966
    63   1 H    0.987 --    30 C    0.963
    64   1 H    0.993 --    30 C    0.977
    65   1 H    0.991 --    31 C    0.960
    66   1 H    0.990 --    32 C    0.973
    67   1 H    0.996 --    32 C    0.981
    68   1 H    0.994 --    32 C    0.981
    69   1 H    0.992 --    33 C    0.975
    70   1 H    0.997 --    33 C    0.983
    71   1 H    0.993 --    33 C    0.979
    72   1 H    0.969 --     1 N    0.941
 ---------------------------------------------------------------------------

molecular dipole:
                 x           y           z       tot (Debye)
 q only:       -0.102       0.396      -0.998
   full:        0.221       0.595      -1.257       3.578

           -------------------------------------------------
          | TOTAL ENERGY              -99.294581134058 Eh   |
          | GRADIENT NORM               0.002203975311 Eh/α |
          | HOMO-LUMO GAP               0.375666518305 eV   |
           -------------------------------------------------

 * finished run on 2024/04/06 at 11:14:21.713
