   * xtb version 6.6.1 (8d0f1dd) compiled by 'conda@1efc2f54142f' on 2023-08-01
          program call               : xtb struc.xyz --opt loose --input .xc1 --gfn2

   ID    Z sym.   atoms
    1    7 N      1, 17
    2    6 C      2-6, 8, 9, 11-16, 18-23, 25, 26, 28-33
    3    8 O      7, 10, 24, 27
    4    1 H      34-72
constraining bond 4 65 to    3.7133300 Å, actual value:    2.7123485 Å

          :  Hamiltonian                  GFN2-xTB          :
 * total energy  :   -99.5830348 Eh     change       -0.4035485E-08 Eh
 * total energy  :   -99.8462270 Eh     change       -0.2631922E+00 Eh
 * total energy  :  -100.1683620 Eh     change       -0.3221350E+00 Eh
 * total energy  :  -100.5240472 Eh     change       -0.3556852E+00 Eh
 * total energy  :  -100.5780230 Eh     change       -0.5397578E-01 Eh
 * total energy  :  -100.5903855 Eh     change       -0.1236256E-01 Eh
 * total energy  :  -100.6573680 Eh     change       -0.6698245E-01 Eh
 * total energy  :  -100.6785387 Eh     change       -0.2117068E-01 Eh
 * total energy  :  -100.6890963 Eh     change       -0.1055768E-01 Eh
 * total energy  :  -100.6977891 Eh     change       -0.8692762E-02 Eh
 * total energy  :  -100.7992221 Eh     change       -0.1128575E-03 Eh
 * total energy  :  -100.7992932 Eh     change       -0.7109597E-04 Eh
 * total energy  :  -100.7993514 Eh     change       -0.5823366E-04 Eh
 * total energy  :  -100.7994057 Eh     change       -0.5426484E-04 Eh
 * total energy  :  -100.7994518 Eh     change       -0.4615003E-04 Eh
 * total energy  :  -100.7995049 Eh     change       -0.5303647E-04 Eh
 * total energy  :  -100.7995724 Eh     change       -0.6757344E-04 Eh
 * total energy  :  -100.7996235 Eh     change       -0.5107834E-04 Eh
 * total energy  :  -100.7996561 Eh     change       -0.3253145E-04 Eh
   *** GEOMETRY OPTIMIZATION CONVERGED AFTER 91 ITERATIONS ***

 final structure:
================
72
 xtb: 6.6.1 (8d0f1dd)
N           -2.19318373851687        2.45929805945117        2.53499796088276
C           -1.90440313210845        2.21255126073441        1.33107356227519
C           -2.73877589592142        2.48175022732886        0.18600366509121
C           -4.47727967052135        0.19844619759645        1.64224919412367
C           -5.30821265151980        0.16657219290601        0.51617190142935
C           -5.30663668936250       -0.89397677103130       -0.37433954704016
O           -6.07498636873823       -0.99424722998167       -1.48246990682500
C           -7.06330767408193       -0.02152109172659       -1.72049368717468
C           -4.44416635066600       -1.99609688867317       -0.13614849793616
O           -4.51185990864074       -2.99234298129684       -1.04807855051857
C           -3.85231180936094       -4.20804362090817       -0.78309691447389
C           -3.61933488817166       -1.97652401623227        0.97828121724797
C           -3.63748537067905       -0.89153185020592        1.84509117243563
C           -2.30453488247711        1.84698528578071       -1.12050998014721
C           -1.51420312016206        0.54450210330660       -0.96022501029728
C           -0.12606810077532        0.76922211726643       -0.48844297019506
N            0.63707465459313       -0.17543933405020        0.05020340797858
C            2.04753902099376        0.04488675054350        0.26948459600345
C            2.89715407404901       -0.55398238563230       -0.86836138191956
C            4.35500558603189       -0.26848648890570       -0.63859230752092
C            4.89693321953413        0.95469764504204       -0.99943195115122
C            6.23592499343200        1.23311395767236       -0.77367785685957
C            7.06268737000725        0.29018595468469       -0.18026044926945
O            8.37346214646785        0.44850330810727        0.08292716335938
C            9.00488659115065        1.65730382140505       -0.27142701034665
C            6.51637969239299       -0.96858146104780        0.19268012979987
O            7.39090188966975       -1.82879987211754        0.75223861498512
C            6.95454937567906       -3.11560232904716        1.11862445972500
C            5.17278563760462       -1.22137062577032       -0.03657067274891
C            0.10315512786038       -1.48098054385829        0.34809929441625
C           -3.80643106652292        3.31944597124869        0.20791756673609
C           -4.31423496904585        3.99244405384573        1.43190676977941
C           -4.55114587243212        3.65277518046163       -1.04833334753326
H           -5.97484709815386        0.99955288729942        0.35577986673372
H           -7.75620587744834        0.06402404501134       -0.87796155565281
H           -7.60528918813492       -0.36281338062485       -2.60052562809619
H           -6.62338900180767        0.96006224292704       -1.92845841927523
H           -4.17192251694798       -4.63621348890490        0.17031227210484
H           -4.13735998603496       -4.87644481512224       -1.59267033609745
H           -2.76361116243699       -4.08773143525918       -0.78262640257633
H           -2.97392089759175       -2.81575569926432        1.18819867732374
H           -2.99246417219051       -0.89980951613993        2.71217760276886
H           -3.19316369753683        1.61386666188871       -1.70740364057691
H           -1.71388181978176        2.56385667401291       -1.69909077943772
H           -2.06194169553468       -0.12550417621005       -0.29374777455234
H           -1.46994248388759        0.05298375343701       -1.94158676475519
H           -0.93240517825876        1.75516749921028        1.04224098988645
H            0.37200748116144        1.68157390680123       -0.78188605788781
H            2.33823605677419       -0.40795654307221        1.22079161392248
H            2.23931508667257        1.11828415816199        0.33031878590282
H            2.57679509205334       -0.10961167027223       -1.81269372610938
H            2.72990612305785       -1.63052353947254       -0.92012804151302
H            4.27823829541812        1.70083120793538       -1.47460642505831
H            6.62968785711435        2.19103068761088       -1.07121295136835
H            8.56499761136452        2.50911419395250        0.25607944890075
H            8.95896437980895        1.83161711526917       -1.35070204278915
H           10.04398552222874        1.54340879273292        0.03148701902089
H            7.83532528751364       -3.62257868598941        1.50783409873519
H            6.18842033265159       -3.07260725690928        1.89959814183993
H            6.56957055911043       -3.66993913913809        0.25697662554147
H            4.75081142913638       -2.17501055086710        0.23966664586677
H           -0.23581447986902       -1.97909317653031       -0.56210147716692
H           -0.74483574666796       -1.39897470707248        1.03080437765671
H            0.87166829290202       -2.08877631654399        0.81658865167528
H           -4.49047600385681        0.80940930465455        2.13327898412221
H           -3.63145405105485        3.86997207912500        2.26681785236155
H           -5.27390485372747        3.55692461252138        1.71243887024772
H           -4.48201770553813        5.05070695041616        1.23371816789980
H           -3.88992002038352        4.11816055940647       -1.77903010143035
H           -4.96297735265982        2.75588135092824       -1.51212735387788
H           -5.36891482640972        4.33567368117018       -0.83998162896592
H           -1.49063121382576        2.25622465848803        3.23720662297269

          :  Hamiltonian                  GFN2-xTB          :
         :: total energy            -100.799656054585 Eh    ::
         :: gradient norm              0.003725559910 Eh/a0 ::
         :: HOMO-LUMO gap              1.724991259550 eV    ::
         :: SCC energy              -100.812876985848 Eh    ::
         :: -> dispersion             -0.073003199312 Eh    ::
         :: repulsion energy           1.543874935011 Eh    ::

    * Orbital Energies and Occupations

         #    Occupation            Energy/Eh            Energy/eV
      -------------------------------------------------------------
         1        2.0000           -0.8054120             -21.9164
       ...           ...                  ...                  ...
        78        1.9990           -0.5340291             -14.5317
        79        1.9988           -0.5307423             -14.4422
        80        1.9984           -0.5265645             -14.3285
        81        1.9982           -0.5240030             -14.2588
        82        1.9981           -0.5232572             -14.2386
        83        1.9972           -0.5174648             -14.0809
        84        1.9970           -0.5159240             -14.0390
        85        1.9808           -0.4866297             -13.2419
        86        1.9798           -0.4858081             -13.2195
        87        1.9645           -0.4767711             -12.9736
        88        1.9335           -0.4665676             -12.6960
        89        1.8747           -0.4560396             -12.4095
        90        1.8506           -0.4530551             -12.3283 (HOMO)
        91        0.3689           -0.3896628             -10.6033 (LUMO)
        92        0.0558           -0.3569682              -9.7136
        93        0.0030           -0.3103365              -8.4447
        94        0.0029           -0.3095035              -8.4220
        95        0.0025           -0.3074840              -8.3671
        96        0.0025           -0.3071313              -8.3575
        97        0.0001           -0.2524369              -6.8692
        98        0.0000           -0.1847126              -5.0263
        99        0.0000           -0.1829792              -4.9791
       100                         -0.1331839              -3.6241
       101                         -0.0617945              -1.6815
       ...                                ...                  ...
       171                          1.2431901              33.8289
      -------------------------------------------------------------
                  HL-Gap            0.0633923 Eh            1.7250 eV

     #   Z          covCN         q      C6AA      α(0)
     1   7 N        1.776    -0.293    28.415     7.894
     2   6 C        2.820     0.085    26.090     8.369
     3   6 C        2.950    -0.027    28.669     8.782
     4   6 C        2.911    -0.066    29.648     8.928
     5   6 C        2.920    -0.072    29.806     8.953
     6   6 C        2.860     0.128    25.188     8.226
     7   8 O        1.706    -0.236    17.910     5.714
     8   6 C        3.645     0.030    20.400     6.492
     9   6 C        2.865     0.128    25.200     8.229
    10   8 O        1.706    -0.237    17.925     5.716
    11   6 C        3.645     0.030    20.413     6.494
    12   6 C        2.911    -0.077    29.923     8.970
    13   6 C        2.922    -0.048    29.188     8.860
    14   6 C        3.810    -0.071    21.843     6.653
    15   6 C        3.803    -0.066    21.757     6.641
    16   6 C        2.845     0.009    27.800     8.641
    17   7 N        2.729     0.005    21.176     6.835
    18   6 C        3.753    -0.016    20.923     6.523
    19   6 C        3.808    -0.070    21.834     6.652
    20   6 C        2.969    -0.001    28.043     8.686
    21   6 C        2.922    -0.049    29.222     8.865
    22   6 C        2.914    -0.068    29.685     8.934
    23   6 C        2.865     0.133    25.087     8.210
    24   8 O        1.706    -0.223    17.700     5.680
    25   6 C        3.645     0.025    20.482     6.504
    26   6 C        2.863     0.133    25.094     8.211
    27   8 O        1.706    -0.225    17.740     5.687
    28   6 C        3.645     0.027    20.449     6.500
    29   6 C        2.919    -0.079    29.980     8.979
    30   6 C        3.702    -0.068    21.974     6.703
    31   6 C        2.946     0.040    27.109     8.539
    32   6 C        3.758    -0.134    23.120     6.855
    33   6 C        3.759    -0.119    22.819     6.810
    34   1 H        0.926     0.048     2.346     2.395
    35   1 H        0.924     0.054     2.270     2.356
    36   1 H        0.925     0.078     1.996     2.209
    37   1 H        0.924     0.042     2.420     2.433
    38   1 H        0.924     0.054     2.269     2.356
    39   1 H        0.925     0.079     1.994     2.208
    40   1 H        0.924     0.040     2.453     2.449
    41   1 H        0.926     0.041     2.438     2.442
    42   1 H        0.926     0.035     2.509     2.477
    43   1 H        0.925     0.060     2.195     2.317
    44   1 H        0.924     0.053     2.289     2.366
    45   1 H        0.924     0.068     2.102     2.267
    46   1 H        0.923     0.074     2.043     2.235
    47   1 H        0.921     0.013     2.838     2.635
    48   1 H        0.926     0.071     2.071     2.250
    49   1 H        0.924     0.068     2.112     2.273
    50   1 H        0.924     0.068     2.107     2.270
    51   1 H        0.924     0.055     2.264     2.353
    52   1 H        0.924     0.054     2.274     2.358
    53   1 H        0.926     0.043     2.404     2.425
    54   1 H        0.926     0.058     2.227     2.334
    55   1 H        0.924     0.054     2.274     2.358
    56   1 H        0.924     0.055     2.257     2.349
    57   1 H        0.925     0.082     1.961     2.190
    58   1 H        0.925     0.081     1.965     2.192
    59   1 H        0.924     0.049     2.334     2.389
    60   1 H        0.924     0.052     2.299     2.371
    61   1 H        0.926     0.047     2.356     2.400
    62   1 H        0.924     0.073     2.054     2.241
    63   1 H        0.924     0.080     1.981     2.201
    64   1 H        0.925     0.080     1.977     2.199
    65   1 H        0.930     0.101     1.774     2.083
    66   1 H        0.925     0.092     1.862     2.134
    67   1 H        0.924     0.074     2.039     2.233
    68   1 H        0.925     0.067     2.124     2.279
    69   1 H        0.925     0.061     2.184     2.311
    70   1 H        0.924     0.052     2.290     2.366
    71   1 H        0.925     0.063     2.163     2.300
    72   1 H        0.860     0.152     1.390     1.847

Wiberg/Mayer (AO) data.
largest (>0.10) Wiberg bond orders for each atom

     #   Z sym  total        # sym  WBO       # sym  WBO       # sym  WBO
 ---------------------------------------------------------------------------
     1   7 N    3.014 --     2 C    1.820    72 H    0.944
     2   6 C    3.917 --     1 N    1.820     3 C    1.136    47 H    0.874
     3   6 C    3.943 --    31 C    1.652     2 C    1.136    14 C    1.003
     4   6 C    3.956 --    13 C    1.437     5 C    1.401    65 H    0.974
     5   6 C    3.964 --     4 C    1.401     6 C    1.401    34 H    0.963
     6   6 C    3.902 --     5 C    1.401     9 C    1.231     7 O    1.091
     7   8 O    2.244 --     6 C    1.091     8 C    0.980
     8   6 C    3.934 --     7 O    0.980    36 H    0.977    35 H    0.974
                            37 H    0.971
     9   6 C    3.901 --    12 C    1.391     6 C    1.231    10 O    1.090
    10   8 O    2.243 --     9 C    1.090    11 C    0.980
    11   6 C    3.936 --    10 O    0.980    39 H    0.977    38 H    0.975
                            40 H    0.974
    12   6 C    3.965 --    13 C    1.410     9 C    1.391    41 H    0.964
    13   6 C    3.955 --     4 C    1.437    12 C    1.410    42 H    0.970
    14   6 C    3.987 --     3 C    1.003    15 C    0.997    43 H    0.964
                            44 H    0.959
    15   6 C    3.987 --    16 C    1.053    14 C    0.997    45 H    0.952
                            46 H    0.926
    16   6 C    3.617 --    17 N    1.392    15 C    1.053    48 H    0.956
    17   7 N    3.483 --    16 C    1.392    30 C    1.000    18 C    0.988
    18   6 C    3.955 --    17 N    0.988    50 H    0.968    19 C    0.967
                            49 H    0.965
    19   6 C    3.977 --    20 C    1.008    52 H    0.973    51 H    0.971
                            18 C    0.967
    20   6 C    3.946 --    21 C    1.409    29 C    1.381    19 C    1.008
    21   6 C    3.951 --    22 C    1.418    20 C    1.409    53 H    0.968
    22   6 C    3.961 --    21 C    1.418    23 C    1.384    54 H    0.963
    23   6 C    3.897 --    22 C    1.384    26 C    1.222    24 O    1.109
    24   8 O    2.255 --    23 C    1.109    25 C    0.976
    25   6 C    3.929 --    57 H    0.977    24 O    0.976    55 H    0.973
                            56 H    0.973
    26   6 C    3.900 --    29 C    1.394    23 C    1.222    27 O    1.103
    27   8 O    2.255 --    26 C    1.103    28 C    0.979
    28   6 C    3.932 --    27 O    0.979    58 H    0.977    59 H    0.973
                            60 H    0.973
    29   6 C    3.960 --    26 C    1.394    20 C    1.381    61 H    0.962
    30   6 C    3.959 --    17 N    1.000    64 H    0.978    62 H    0.968
                            63 H    0.963
    31   6 C    3.923 --     3 C    1.652    32 C    1.055    33 C    1.037
    32   6 C    3.974 --    31 C    1.055    68 H    0.962    66 H    0.953
                            67 H    0.945
    33   6 C    3.988 --    31 C    1.037    71 H    0.983    69 H    0.961
                            70 H    0.955
    34   1 H    0.996 --     5 C    0.963
    35   1 H    0.993 --     8 C    0.974
    36   1 H    0.993 --     8 C    0.977
    37   1 H    0.994 --     8 C    0.971
    38   1 H    0.994 --    11 C    0.975
    39   1 H    0.993 --    11 C    0.977
    40   1 H    0.995 --    11 C    0.974
    41   1 H    0.997 --    12 C    0.964
    42   1 H    0.998 --    13 C    0.970
    43   1 H    0.995 --    14 C    0.964
    44   1 H    0.994 --    14 C    0.959
    45   1 H    0.989 --    15 C    0.952
    46   1 H    0.971 --    15 C    0.926
    47   1 H    0.985 --     2 C    0.874
    48   1 H    0.994 --    16 C    0.956
    49   1 H    0.991 --    18 C    0.965
    50   1 H    0.994 --    18 C    0.968
    51   1 H    0.995 --    19 C    0.971
    52   1 H    0.996 --    19 C    0.973
    53   1 H    0.997 --    21 C    0.968
    54   1 H    0.995 --    22 C    0.963
    55   1 H    0.992 --    25 C    0.973
    56   1 H    0.992 --    25 C    0.973
    57   1 H    0.993 --    25 C    0.977
    58   1 H    0.993 --    28 C    0.977
    59   1 H    0.993 --    28 C    0.973
    60   1 H    0.993 --    28 C    0.973
    61   1 H    0.997 --    29 C    0.962
    62   1 H    0.986 --    30 C    0.968
    63   1 H    0.987 --    30 C    0.963
    64   1 H    0.993 --    30 C    0.978
    65   1 H    0.989 --     4 C    0.974
    66   1 H    0.989 --    32 C    0.953
    67   1 H    0.989 --    32 C    0.945
    68   1 H    0.991 --    32 C    0.962
    69   1 H    0.993 --    33 C    0.961
    70   1 H    0.994 --    33 C    0.955
    71   1 H    0.995 --    33 C    0.983
    72   1 H    0.971 --     1 N    0.944
 ---------------------------------------------------------------------------

molecular dipole:
                 x           y           z       tot (Debye)
 q only:        0.231       0.392      -0.277
   full:        0.460       0.256      -0.399       1.680

           -------------------------------------------------
          | TOTAL ENERGY             -100.799656054585 Eh   |
          | GRADIENT NORM               0.003725559910 Eh/α |
          | HOMO-LUMO GAP               1.724991259550 eV   |
           -------------------------------------------------

 * finished run on 2024/04/06 at 11:15:56.191
