   * xtb version 6.6.1 (8d0f1dd) compiled by 'conda@1efc2f54142f' on 2023-08-01
          program call               : xtb xtbopt.xyz --opt crude --input .xc2 --gfn2

   ID    Z sym.   atoms
    1    7 N      1, 17
    2    6 C      2-6, 8, 9, 11-16, 18-23, 25, 26, 28-33
    3    8 O      7, 10, 24, 27
    4    1 H      34-72

          :  Hamiltonian                  GFN2-xTB          :
 * total energy  :   -99.2674318 Eh     change       -0.8242296E-12 Eh
 * total energy  :   -99.3741935 Eh     change       -0.1067617E+00 Eh
 * total energy  :   -99.3756201 Eh     change       -0.1426618E-02 Eh
 * total energy  :   -99.3761213 Eh     change       -0.5011775E-03 Eh
 * total energy  :   -99.3762108 Eh     change       -0.8949790E-04 Eh
   *** GEOMETRY OPTIMIZATION CONVERGED AFTER 5 ITERATIONS ***

 final structure:
================
72
 xtb: 6.6.1 (8d0f1dd)
N           -2.19170071455398        2.45982648139270        2.53266869387695
C           -1.90194175527440        2.21487979260373        1.32726648011064
C           -2.73800236509235        2.48335347476011        0.18270696248518
C           -4.47856428539073        0.15446900460917        1.62542676797057
C           -5.30896464075315        0.16112227195753        0.51164024567182
C           -5.30407944703874       -0.90122960139509       -0.38185485534914
O           -6.06967142486983       -0.99835185677886       -1.49283175388944
C           -7.06088566502619       -0.02603951717649       -1.72566184397284
C           -4.44399263975009       -2.00539374869020       -0.14325095383150
O           -4.51057300101258       -3.00171503312464       -1.05814412546253
C           -3.84637538326031       -4.21412895721705       -0.79466325785848
C           -3.62030474658460       -1.99544543508953        0.97230021333407
C           -3.63604701303899       -0.91708951265665        1.85110383687687
C           -2.30374375298532        1.84935174140184       -1.12344970288218
C           -1.51306731103268        0.54669699820652       -0.96557101102066
C           -0.12508347938030        0.76853864782664       -0.49365008534745
N            0.63584809772157       -0.17476906967659        0.05197596705748
C            2.04679266803970        0.04422616400627        0.26896660641261
C            2.89502456071223       -0.55471356788499       -0.86990242157638
C            4.35287873367689       -0.26908708042839       -0.63971881598584
C            4.89443465656166        0.95448132706369       -0.99957268003670
C            6.23325034598308        1.23311722003136       -0.77324184925072
C            7.06012764337630        0.29024913773022       -0.17980953832807
O            8.37093317819651        0.44862215244793        0.08302798321629
C            9.00219568465544        1.65726035357497       -0.27179979229493
C            6.51376969829975       -0.96846573778786        0.19347281313774
O            7.38776785789570       -1.82794239699785        0.75459695731184
C            6.95140563899487       -3.11516705780794        1.12024826492872
C            5.17060646467284       -1.22171351781487       -0.03710354747470
C            0.10175732572242       -1.48021471450145        0.35231758403879
C           -3.80539550207974        3.32203925755423        0.20528688196722
C           -4.30809397289587        4.00003503953931        1.42845611305772
C           -4.55387839801162        3.65215185272513       -1.04947703234635
H           -5.96956821668364        0.99738352617763        0.35663920371402
H           -7.75475112033175        0.05009855519819       -0.88366277367126
H           -7.60051789842359       -0.36215975700381       -2.60906840415399
H           -6.62268933149063        0.95771506239242       -1.92512318672572
H           -4.15989378988886       -4.64342490472172        0.16160059818009
H           -4.13097104921428       -4.88610570255268       -1.60203683693030
H           -2.75790418232553       -4.08895705151062       -0.79751903399755
H           -2.97721866585533       -2.83827636075063        1.17525283086476
H           -2.99825444254131       -0.92866518086303        2.72117693656495
H           -3.19194617874739        1.61796632492276       -1.71078733394774
H           -1.71394419696925        2.56776361716690       -1.70234423803415
H           -2.06102984347300       -0.12446336378828       -0.29989363742757
H           -1.46998279940661        0.05699663835062       -1.94815626572321
H           -0.93280899659161        1.75240338896002        1.03987998985940
H            0.37433674214193        1.68051174683598       -0.78634395962282
H            2.33869957613629       -0.40981862896586        1.21931340237224
H            2.24052754175056        1.11691186754782        0.33022328903487
H            2.57455910747353       -0.10987106187968       -1.81404338082971
H            2.72782886961747       -1.63119654491089       -0.92230425086409
H            4.27581491119172        1.70089771379575       -1.47445820973160
H            6.62678453611966        2.19123542152508       -1.07046369267976
H            8.56303179161091        2.50906289533262        0.25641459661189
H            8.95509107974656        1.83192337475776       -1.35088877741415
H           10.04151968609294        1.54296162781557        0.03002203782921
H            7.83125574163854       -3.62094637995295        1.51316064558662
H            6.18226047810182       -3.07272862796171        1.89814782753517
H            6.57058171807796       -3.67018484636901        0.25724038039374
H            4.74849169698343       -2.17541691494805        0.23874481568376
H           -0.23625126757246       -1.98138559495708       -0.55747460461248
H           -0.74714764626117       -1.39611349025383        1.03426071506032
H            0.87009766335629       -2.08704825808757        0.82408689377124
H           -4.49569742720461        0.98677112895886        2.30548972249061
H           -3.62017177423819        3.88393589866181        2.26006721616840
H           -5.26542269020008        3.56405038531914        1.71516238296628
H           -4.48065163358560        5.05619770180636        1.22636681602605
H           -3.89522496407405        4.11770539465202       -1.78215261313681
H           -4.96635725823505        2.75472364850893       -1.51056450935629
H           -5.37181795027833        4.33522040416625       -0.84012463287492
H           -1.49056927593507        2.24951175668628        3.23366577908184

          :  Hamiltonian                  GFN2-xTB          :
         :: total energy             -99.376210810300 Eh    ::
         :: gradient norm              0.004330701077 Eh/a0 ::
         :: HOMO-LUMO gap              1.722526751823 eV    ::
         :: SCC energy              -100.785122847913 Eh    ::
         :: -> dispersion             -0.072898234446 Eh    ::
         :: repulsion energy           1.407341491371 Eh    ::

    * Orbital Energies and Occupations

         #    Occupation            Energy/Eh            Energy/eV
      -------------------------------------------------------------
         1        2.0000           -0.8053148             -21.9137
       ...           ...                  ...                  ...
        78        1.9990           -0.5342175             -14.5368
        79        1.9988           -0.5307416             -14.4422
        80        1.9984           -0.5265862             -14.3291
        81        1.9981           -0.5233468             -14.2410
        82        1.9980           -0.5224512             -14.2166
        83        1.9972           -0.5174675             -14.0810
        84        1.9970           -0.5160321             -14.0419
        85        1.9809           -0.4867307             -13.2446
        86        1.9798           -0.4858171             -13.2198
        87        1.9640           -0.4765178             -12.9667
        88        1.9337           -0.4666172             -12.6973
        89        1.8740           -0.4559590             -12.4073
        90        1.8506           -0.4530617             -12.3284 (HOMO)
        91        0.3705           -0.3897600             -10.6059 (LUMO)
        92        0.0557           -0.3569630              -9.7135
        93        0.0030           -0.3100656              -8.4373
        94        0.0029           -0.3095047              -8.4221
        95        0.0025           -0.3074661              -8.3666
        96        0.0022           -0.3056370              -8.3168
        97        0.0001           -0.2524350              -6.8691
        98        0.0000           -0.1846982              -5.0259
        99        0.0000           -0.1814282              -4.9369
       100                         -0.1333642              -3.6290
       101                         -0.0622999              -1.6953
       ...                                ...                  ...
       171                          0.5824255              15.8486
      -------------------------------------------------------------
                  HL-Gap            0.0633017 Eh            1.7225 eV

     #   Z          covCN         q      C6AA      α(0)
     1   7 N        1.775    -0.293    28.422     7.895
     2   6 C        2.821     0.085    26.095     8.370
     3   6 C        2.950    -0.026    28.663     8.781
     4   6 C        2.916    -0.040    29.004     8.831
     5   6 C        2.916    -0.068    29.702     8.937
     6   6 C        2.863     0.129    25.167     8.223
     7   8 O        1.706    -0.236    17.912     5.714
     8   6 C        3.645     0.030    20.401     6.492
     9   6 C        2.864     0.127    25.215     8.231
    10   8 O        1.705    -0.238    17.946     5.720
    11   6 C        3.645     0.030    20.401     6.492
    12   6 C        2.914    -0.076    29.889     8.965
    13   6 C        2.917    -0.044    29.103     8.846
    14   6 C        3.810    -0.070    21.841     6.652
    15   6 C        3.803    -0.065    21.748     6.639
    16   6 C        2.845     0.009    27.799     8.641
    17   7 N        2.729     0.005    21.182     6.835
    18   6 C        3.754    -0.016    20.922     6.522
    19   6 C        3.808    -0.070    21.834     6.652
    20   6 C        2.969    -0.001    28.043     8.686
    21   6 C        2.922    -0.049    29.222     8.865
    22   6 C        2.914    -0.068    29.685     8.934
    23   6 C        2.865     0.133    25.087     8.210
    24   8 O        1.706    -0.223    17.699     5.680
    25   6 C        3.645     0.025    20.481     6.504
    26   6 C        2.863     0.133    25.093     8.211
    27   8 O        1.706    -0.225    17.740     5.687
    28   6 C        3.645     0.027    20.450     6.500
    29   6 C        2.919    -0.079    29.981     8.979
    30   6 C        3.701    -0.068    21.969     6.703
    31   6 C        2.946     0.040    27.108     8.539
    32   6 C        3.758    -0.133    23.102     6.853
    33   6 C        3.759    -0.118    22.818     6.810
    34   1 H        0.926     0.051     2.308     2.376
    35   1 H        0.924     0.054     2.267     2.355
    36   1 H        0.925     0.079     1.994     2.208
    37   1 H        0.924     0.042     2.417     2.431
    38   1 H        0.924     0.053     2.278     2.360
    39   1 H        0.925     0.078     1.997     2.210
    40   1 H        0.924     0.039     2.460     2.453
    41   1 H        0.926     0.041     2.431     2.438
    42   1 H        0.926     0.039     2.469     2.457
    43   1 H        0.925     0.060     2.196     2.317
    44   1 H        0.924     0.053     2.287     2.365
    45   1 H        0.924     0.068     2.110     2.272
    46   1 H        0.923     0.074     2.042     2.235
    47   1 H        0.921     0.013     2.835     2.633
    48   1 H        0.926     0.071     2.070     2.250
    49   1 H        0.924     0.068     2.112     2.273
    50   1 H        0.924     0.068     2.106     2.269
    51   1 H        0.924     0.054     2.265     2.354
    52   1 H        0.924     0.054     2.274     2.358
    53   1 H        0.926     0.043     2.405     2.425
    54   1 H        0.926     0.058     2.227     2.334
    55   1 H        0.924     0.054     2.274     2.358
    56   1 H        0.924     0.055     2.257     2.349
    57   1 H        0.925     0.082     1.961     2.190
    58   1 H        0.925     0.081     1.965     2.192
    59   1 H        0.924     0.049     2.334     2.389
    60   1 H        0.924     0.052     2.298     2.371
    61   1 H        0.926     0.047     2.356     2.400
    62   1 H        0.924     0.073     2.056     2.242
    63   1 H        0.924     0.080     1.984     2.203
    64   1 H        0.925     0.080     1.977     2.199
    65   1 H        0.926     0.062     2.180     2.309
    66   1 H        0.925     0.091     1.865     2.136
    67   1 H        0.924     0.074     2.042     2.235
    68   1 H        0.925     0.066     2.125     2.280
    69   1 H        0.925     0.061     2.182     2.310
    70   1 H        0.925     0.052     2.292     2.368
    71   1 H        0.925     0.063     2.164     2.300
    72   1 H        0.860     0.151     1.391     1.847

Wiberg/Mayer (AO) data.
largest (>0.10) Wiberg bond orders for each atom

     #   Z sym  total        # sym  WBO       # sym  WBO       # sym  WBO
 ---------------------------------------------------------------------------
     1   7 N    3.013 --     2 C    1.818    72 H    0.944
     2   6 C    3.917 --     1 N    1.818     3 C    1.136    47 H    0.875
     3   6 C    3.943 --    31 C    1.652     2 C    1.136    14 C    1.004
     4   6 C    3.955 --    13 C    1.441     5 C    1.409    65 H    0.967
     5   6 C    3.964 --     4 C    1.409     6 C    1.393    34 H    0.963
     6   6 C    3.902 --     5 C    1.393     9 C    1.234     7 O    1.091
     7   8 O    2.244 --     6 C    1.091     8 C    0.980
     8   6 C    3.934 --     7 O    0.980    36 H    0.977    35 H    0.974
                            37 H    0.971
     9   6 C    3.900 --    12 C    1.394     6 C    1.234    10 O    1.087
    10   8 O    2.239 --     9 C    1.087    11 C    0.981
    11   6 C    3.936 --    10 O    0.981    39 H    0.977    38 H    0.974
                            40 H    0.974
    12   6 C    3.965 --    13 C    1.403     9 C    1.394    41 H    0.964
    13   6 C    3.954 --     4 C    1.441    12 C    1.403    42 H    0.970
    14   6 C    3.987 --     3 C    1.004    15 C    0.997    43 H    0.964
                            44 H    0.959
    15   6 C    3.987 --    16 C    1.053    14 C    0.997    45 H    0.953
                            46 H    0.926
    16   6 C    3.616 --    17 N    1.392    15 C    1.053    48 H    0.957
    17   7 N    3.482 --    16 C    1.392    30 C    1.000    18 C    0.988
    18   6 C    3.955 --    17 N    0.988    50 H    0.968    19 C    0.967
                            49 H    0.965
    19   6 C    3.977 --    20 C    1.008    52 H    0.973    51 H    0.971
                            18 C    0.967
    20   6 C    3.946 --    21 C    1.409    29 C    1.381    19 C    1.008
    21   6 C    3.951 --    22 C    1.417    20 C    1.409    53 H    0.968
    22   6 C    3.961 --    21 C    1.417    23 C    1.384    54 H    0.963
    23   6 C    3.897 --    22 C    1.384    26 C    1.222    24 O    1.109
    24   8 O    2.255 --    23 C    1.109    25 C    0.976
    25   6 C    3.929 --    57 H    0.977    24 O    0.976    55 H    0.973
                            56 H    0.973
    26   6 C    3.900 --    29 C    1.394    23 C    1.222    27 O    1.103
    27   8 O    2.255 --    26 C    1.103    28 C    0.979
    28   6 C    3.932 --    27 O    0.979    58 H    0.977    59 H    0.973
                            60 H    0.973
    29   6 C    3.960 --    26 C    1.394    20 C    1.381    61 H    0.962
    30   6 C    3.959 --    17 N    1.000    64 H    0.978    62 H    0.968
                            63 H    0.963
    31   6 C    3.923 --     3 C    1.652    32 C    1.055    33 C    1.037
    32   6 C    3.975 --    31 C    1.055    68 H    0.962    66 H    0.953
                            67 H    0.944
    33   6 C    3.988 --    31 C    1.037    71 H    0.983    69 H    0.961
                            70 H    0.956
    34   1 H    0.996 --     5 C    0.963
    35   1 H    0.993 --     8 C    0.974
    36   1 H    0.993 --     8 C    0.977
    37   1 H    0.994 --     8 C    0.971
    38   1 H    0.994 --    11 C    0.974
    39   1 H    0.993 --    11 C    0.977
    40   1 H    0.995 --    11 C    0.974
    41   1 H    0.997 --    12 C    0.964
    42   1 H    0.998 --    13 C    0.970
    43   1 H    0.995 --    14 C    0.964
    44   1 H    0.994 --    14 C    0.959
    45   1 H    0.989 --    15 C    0.953
    46   1 H    0.970 --    15 C    0.926
    47   1 H    0.985 --     2 C    0.875
    48   1 H    0.994 --    16 C    0.957
    49   1 H    0.992 --    18 C    0.965
    50   1 H    0.994 --    18 C    0.968
    51   1 H    0.995 --    19 C    0.971
    52   1 H    0.996 --    19 C    0.973
    53   1 H    0.998 --    21 C    0.968
    54   1 H    0.995 --    22 C    0.963
    55   1 H    0.992 --    25 C    0.973
    56   1 H    0.992 --    25 C    0.973
    57   1 H    0.993 --    25 C    0.977
    58   1 H    0.993 --    28 C    0.977
    59   1 H    0.993 --    28 C    0.973
    60   1 H    0.993 --    28 C    0.973
    61   1 H    0.997 --    29 C    0.962
    62   1 H    0.986 --    30 C    0.968
    63   1 H    0.987 --    30 C    0.963
    64   1 H    0.993 --    30 C    0.978
    65   1 H    0.995 --     4 C    0.967
    66   1 H    0.989 --    32 C    0.953
    67   1 H    0.989 --    32 C    0.944
    68   1 H    0.991 --    32 C    0.962
    69   1 H    0.993 --    33 C    0.961
    70   1 H    0.994 --    33 C    0.956
    71   1 H    0.995 --    33 C    0.983
    72   1 H    0.971 --     1 N    0.944
 ---------------------------------------------------------------------------

molecular dipole:
                 x           y           z       tot (Debye)
 q only:        0.229       0.374      -0.302
   full:        0.454       0.251      -0.409       1.677

           -------------------------------------------------
          | TOTAL ENERGY              -99.376210810300 Eh   |
          | GRADIENT NORM               0.004330701077 Eh/α |
          | HOMO-LUMO GAP               1.722526751823 eV   |
           -------------------------------------------------

 * finished run on 2024/04/06 at 11:15:57.284
