   * xtb version 6.6.1 (8d0f1dd) compiled by 'conda@1efc2f54142f' on 2023-08-01
          program call               : xtb struc.xyz --opt loose --input .xc1 --gfn2

   ID    Z sym.   atoms
    1    7 N      1, 17
    2    6 C      2-6, 8, 9, 11-16, 18-23, 25, 26, 28-33
    3    8 O      7, 10, 24, 27
    4    1 H      34-72
constraining bond 5 65 to    4.7133300 Å, actual value:    2.7601218 Å

          :  Hamiltonian                  GFN2-xTB          :
 * total energy  :  -100.0853154 Eh     change       -0.4035485E-08 Eh
 * total energy  :  -100.5882228 Eh     change       -0.5029074E+00 Eh
 * total energy  :  -101.1790033 Eh     change       -0.5907806E+00 Eh
 * total energy  :  -101.7915890 Eh     change       -0.6125857E+00 Eh
 * total energy  :  -101.8028259 Eh     change       -0.1123689E-01 Eh
 * total energy  :  -101.8836650 Eh     change       -0.8083904E-01 Eh
 * total energy  :  -101.9179709 Eh     change       -0.3430590E-01 Eh
 * total energy  :  -101.9406965 Eh     change       -0.2272560E-01 Eh
 * total energy  :  -101.9515823 Eh     change       -0.1088585E-01 Eh
 * total energy  :  -101.9607340 Eh     change       -0.9151718E-02 Eh
 * total energy  :  -101.9770364 Eh     change       -0.1887548E-03 Eh
 * total energy  :  -101.9771846 Eh     change       -0.1482107E-03 Eh
 * total energy  :  -101.9772888 Eh     change       -0.1042079E-03 Eh
 * total energy  :  -101.9773677 Eh     change       -0.7882034E-04 Eh
 * total energy  :  -101.9774154 Eh     change       -0.4775577E-04 Eh
 * total energy  :  -101.9774991 Eh     change       -0.8371448E-04 Eh
 * total energy  :  -101.9775634 Eh     change       -0.6422558E-04 Eh
 * total energy  :  -101.9776204 Eh     change       -0.5708464E-04 Eh
 * total energy  :  -101.9776695 Eh     change       -0.4904693E-04 Eh
   *** GEOMETRY OPTIMIZATION CONVERGED AFTER 37 ITERATIONS ***

 final structure:
================
72
 xtb: 6.6.1 (8d0f1dd)
N           -1.99401154484059        2.80080553245715        2.40979619294224
C           -1.83018536016959        2.16125594822985        1.34643870257358
C           -2.93976574061733        1.97173834385429        0.32169931425180
C           -3.43486913091206        0.53441960185165        0.36205204780387
C           -4.59936385338962        0.24022957563459       -0.56495799037741
C           -5.10234564461604       -1.17926362265205       -0.40660894242955
O           -6.17143785690702       -1.59531402165427       -1.11313559731697
C           -6.84197426289047       -0.69653937319207       -1.96495722042421
C           -4.49861576361553       -2.11390997500797        0.42977388793262
O           -5.05819764431354       -3.35000482241504        0.41807561588576
C           -4.53546960697636       -4.34016995176868        1.27154995447911
C           -3.40571521204772       -1.73769607862668        1.21454662881065
C           -2.92137492606471       -0.41781894094871        1.17851081762777
C           -2.32001762513203        2.28108708743411       -1.06849140801552
C           -1.36587539890865        1.19399348005778       -1.59332562833211
C           -0.05044333892367        1.15745261459878       -0.91110858193821
N            0.59503192310697        0.04101033335953       -0.55822604396074
C            1.98330908573100        0.09532361371756       -0.16989507383654
C            2.91841458257060       -0.29476450087997       -1.33185614790379
C            4.35087052966466       -0.12189184826218       -0.91376270718569
C            5.01059162499825        1.07433206864591       -1.13438684867891
C            6.32079984332633        1.24996653233070       -0.71482152241873
C            6.99398860628816        0.23074140098209       -0.05916756026661
O            8.26211499508457        0.29230440095295        0.39654867466352
C            8.99168668181026        1.48454745193907        0.22438670168817
C            6.32579339289773       -1.00194491447326        0.16986201720177
O            7.05721713594744       -1.94156582227564        0.80765120315213
C            6.48778031948456       -3.20446390737110        1.05214277423388
C            5.01716785478816       -1.15458706689553       -0.25678168465726
C            0.00615874989983       -1.26676913803084       -0.71301039826231
C           -4.07442686637840        2.90057761243156        0.65306170868421
C           -4.89315948564871        2.59854768556351        1.84211766410398
C           -4.16745556046432        4.24676872751639        0.04973119454208
H           -4.19591126161589        0.28548610070323       -1.60567112692665
H           -7.27084087528538        0.14382562294489       -1.41024069250976
H           -7.64583359591200       -1.27098037069905       -2.42163392704262
H           -6.18311261584867       -0.31496819792493       -2.75144586817106
H           -4.62493598908240       -4.05317024677897        2.32407276979863
H           -5.13792863515606       -5.22784230846571        1.08831004080234
H           -3.48824515950693       -4.56099669905526        1.03983891959781
H           -2.94165442051719       -2.44131106438366        1.88262688033293
H           -2.11699459230722       -0.16704026479574        1.85425713227283
H           -3.12908704661442        2.39080838188438       -1.79058098825141
H           -1.78944964397516        3.23252499088193       -1.01640088720230
H           -1.85304695738127        0.22197818795473       -1.54431683440619
H           -1.18481818515315        1.42075034620483       -2.65338363497540
H           -0.88013718473820        1.71122916662950        1.01405663094467
H            0.50712821668867        2.07820994137695       -0.83920122386751
H            2.14794832945593       -0.58160601473485        0.67295264307979
H            2.22743909301646        1.10898315164456        0.15440228283588
H            2.69913137088780        0.34774320794964       -2.18641097393762
H            2.73086937794923       -1.32989450033431       -1.61997535338961
H            4.51000509845808        1.88095934215658       -1.64847102187954
H            6.81101852542930        2.18955957662887       -0.90958978701216
H            8.50336920424235        2.32860579016760        0.72123209978895
H            9.13547065634526        1.71765975207578       -0.83505017451608
H            9.95945026197884        1.30402922119018        0.68812466820716
H            7.26196367988234       -3.78173945703879        1.55412424807042
H            5.61189620912101       -3.13145837174189        1.70542544441437
H            6.20904037606519       -3.70716359261408        0.12042082523549
H            4.50175595624280       -2.08810421109205       -0.09290761597527
H           -0.11568807230369       -1.52790147543105       -1.76763190132589
H           -0.97082745444468       -1.30683896373799       -0.22602580655812
H            0.65334026373665       -2.00565071591771       -0.24686968386588
H           -5.14829771097312        0.73463144117598       -0.47769789858978
H           -4.41330367649979        3.04920301374875        2.71917307701740
H           -4.96281124297156        1.53066781640934        2.03583112153453
H           -5.88980777018469        3.02772368564455        1.75883144490011
H           -3.27149376071544        4.83226949230718        0.27935036929700
H           -4.24934316576617        4.21393157644963       -1.03820572281279
H           -5.02723424779928        4.78066846086638        0.44485734825026
H           -1.18872826051698        2.89095968314419        3.02163627484768

          :  Hamiltonian                  GFN2-xTB          :
         :: total energy            -101.977669488447 Eh    ::
         :: gradient norm              0.003602410758 Eh/a0 ::
         :: HOMO-LUMO gap              0.040674410816 eV    ::
         :: SCC energy              -100.708930306396 Eh    ::
         :: -> dispersion             -0.074373308444 Eh    ::
         :: repulsion energy           1.543476106386 Eh    ::

    * Orbital Energies and Occupations

         #    Occupation            Energy/Eh            Energy/eV
      -------------------------------------------------------------
         1        2.0000           -0.8178414             -22.2546
       ...           ...                  ...                  ...
        78        1.9996           -0.5339022             -14.5282
        79        1.9994           -0.5297433             -14.4150
        80        1.9993           -0.5257745             -14.3071
        81        1.9992           -0.5246549             -14.2766
        82        1.9991           -0.5216418             -14.1946
        83        1.9991           -0.5215629             -14.1924
        84        1.9988           -0.5178860             -14.0924
        85        1.9980           -0.5091825             -13.8556
        86        1.9852           -0.4775640             -12.9952
        87        1.9840           -0.4763371             -12.9618
        88        1.9663           -0.4643679             -12.6361
        89        1.8890           -0.4448844             -12.1059
        90        0.8412           -0.3949286             -10.7466 (HOMO)
        91        0.7955           -0.3934338             -10.7059 (LUMO)
        92        0.4955           -0.3824160             -10.4061
        93        0.0398           -0.3383079              -9.2058
        94        0.0065           -0.3092726              -8.4157
        95        0.0038           -0.3007820              -8.1847
        96        0.0032           -0.2980238              -8.1096
        97        0.0000           -0.2217104              -6.0330
        98        0.0000           -0.1754073              -4.7731
        99                         -0.1233364              -3.3562
       100                         -0.0822130              -2.2371
       101                         -0.0739045              -2.0110
       ...                                ...                  ...
       171                          1.4187044              38.6049
      -------------------------------------------------------------
                  HL-Gap            0.0014948 Eh            0.0407 eV

     #   Z          covCN         q      C6AA      α(0)
     1   7 N        1.774    -0.291    28.359     7.886
     2   6 C        2.827     0.092    25.944     8.346
     3   6 C        3.910     0.009    20.370     6.415
     4   6 C        2.961    -0.023    28.577     8.768
     5   6 C        3.809    -0.103    22.467     6.747
     6   6 C        2.850     0.110    25.574     8.288
     7   8 O        1.706    -0.211    17.508     5.649
     8   6 C        3.643     0.023    20.530     6.514
     9   6 C        2.849     0.123    25.290     8.242
    10   8 O        1.706    -0.246    18.070     5.739
    11   6 C        3.644     0.030    20.407     6.493
    12   6 C        2.912    -0.088    30.217     9.014
    13   6 C        2.902    -0.050    29.240     8.866
    14   6 C        3.809    -0.067    21.772     6.642
    15   6 C        3.802    -0.066    21.772     6.643
    16   6 C        2.841    -0.010    28.255     8.711
    17   7 N        2.729    -0.002    21.301     6.855
    18   6 C        3.755    -0.014    20.882     6.516
    19   6 C        3.808    -0.070    21.828     6.651
    20   6 C        2.970    -0.003    28.090     8.694
    21   6 C        2.922    -0.051    29.260     8.871
    22   6 C        2.914    -0.069    29.721     8.940
    23   6 C        2.865     0.131    25.134     8.218
    24   8 O        1.706    -0.229    17.800     5.696
    25   6 C        3.646     0.027    20.446     6.498
    26   6 C        2.863     0.131    25.138     8.218
    27   8 O        1.706    -0.231    17.837     5.702
    28   6 C        3.645     0.030    20.413     6.494
    29   6 C        2.920    -0.081    30.019     8.985
    30   6 C        3.699    -0.068    21.970     6.704
    31   6 C        2.949     0.010    27.788     8.646
    32   6 C        3.755    -0.123    22.914     6.825
    33   6 C        3.754    -0.117    22.800     6.809
    34   1 H        0.920     0.065     2.145     2.291
    35   1 H        0.924     0.058     2.227     2.334
    36   1 H        0.925     0.086     1.916     2.164
    37   1 H        0.924     0.053     2.279     2.361
    38   1 H        0.924     0.051     2.309     2.377
    39   1 H        0.925     0.078     2.001     2.212
    40   1 H        0.924     0.045     2.383     2.414
    41   1 H        0.926     0.049     2.331     2.388
    42   1 H        0.926     0.038     2.477     2.461
    43   1 H        0.925     0.054     2.269     2.356
    44   1 H        0.924     0.052     2.294     2.369
    45   1 H        0.925     0.061     2.185     2.311
    46   1 H        0.923     0.070     2.088     2.260
    47   1 H        0.923     0.015     2.807     2.620
    48   1 H        0.926     0.060     2.202     2.321
    49   1 H        0.924     0.063     2.163     2.300
    50   1 H        0.924     0.064     2.152     2.294
    51   1 H        0.924     0.052     2.300     2.372
    52   1 H        0.924     0.053     2.287     2.365
    53   1 H        0.926     0.041     2.431     2.438
    54   1 H        0.926     0.055     2.264     2.353
    55   1 H        0.924     0.050     2.315     2.380
    56   1 H        0.924     0.053     2.288     2.365
    57   1 H        0.925     0.079     1.991     2.207
    58   1 H        0.925     0.078     1.995     2.209
    59   1 H        0.924     0.045     2.381     2.413
    60   1 H        0.924     0.049     2.329     2.386
    61   1 H        0.926     0.044     2.402     2.424
    62   1 H        0.924     0.069     2.091     2.262
    63   1 H        0.924     0.077     2.013     2.219
    64   1 H        0.925     0.076     2.022     2.224
    65   1 H        0.931     0.126     1.562     1.954
    66   1 H        0.924     0.107     1.724     2.053
    67   1 H        0.925     0.059     2.214     2.327
    68   1 H        0.925     0.065     2.139     2.287
    69   1 H        0.924     0.072     2.059     2.244
    70   1 H        0.924     0.062     2.178     2.308
    71   1 H        0.925     0.066     2.130     2.282
    72   1 H        0.860     0.158     1.349     1.820

Wiberg/Mayer (AO) data.
largest (>0.10) Wiberg bond orders for each atom

     #   Z sym  total        # sym  WBO       # sym  WBO       # sym  WBO
 ---------------------------------------------------------------------------
     1   7 N    3.012 --     2 C    1.950    72 H    0.942
     2   6 C    3.873 --     1 N    1.950     3 C    0.947    47 H    0.905
     3   6 C    3.983 --    31 C    1.005     4 C    0.963    14 C    0.952
                             2 C    0.947
     4   6 C    3.751 --    13 C    1.610     5 C    1.008     3 C    0.963
     5   6 C    3.968 --     6 C    1.013     4 C    1.008    65 H    0.944
                            34 H    0.908
     6   6 C    3.644 --     9 C    1.348     7 O    1.126     5 C    1.013
     7   8 O    2.242 --     6 C    1.126     8 C    0.977
     8   6 C    3.928 --     7 O    0.977    36 H    0.976    35 H    0.971
                            37 H    0.971
     9   6 C    3.904 --     6 C    1.348    12 C    1.320    10 O    1.076
    10   8 O    2.233 --     9 C    1.076    11 C    0.980
    11   6 C    3.935 --    10 O    0.980    39 H    0.977    40 H    0.975
                            38 H    0.974
    12   6 C    3.712 --     9 C    1.320    13 C    1.288    41 H    0.966
    13   6 C    3.981 --     4 C    1.610    12 C    1.288    42 H    0.959
    14   6 C    3.964 --    15 C    0.988    44 H    0.974    43 H    0.970
                             3 C    0.952
    15   6 C    3.989 --    16 C    1.053    14 C    0.988    45 H    0.962
                            46 H    0.933
    16   6 C    3.514 --    17 N    1.356    15 C    1.053    48 H    0.959
    17   7 N    3.426 --    16 C    1.356    30 C    1.001    18 C    0.991
    18   6 C    3.958 --    17 N    0.991    50 H    0.968    19 C    0.966
                            49 H    0.965
    19   6 C    3.975 --    20 C    1.008    51 H    0.973    52 H    0.972
                            18 C    0.966
    20   6 C    3.954 --    21 C    1.418    29 C    1.375    19 C    1.008
    21   6 C    3.958 --    20 C    1.418    22 C    1.412    53 H    0.968
    22   6 C    3.965 --    21 C    1.412    23 C    1.391    54 H    0.964
    23   6 C    3.905 --    22 C    1.391    26 C    1.227    24 O    1.101
    24   8 O    2.254 --    23 C    1.101    25 C    0.978
    25   6 C    3.933 --    24 O    0.978    57 H    0.977    55 H    0.974
                            56 H    0.973
    26   6 C    3.908 --    29 C    1.402    23 C    1.227    27 O    1.095
    27   8 O    2.253 --    26 C    1.095    28 C    0.981
    28   6 C    3.936 --    27 O    0.981    58 H    0.977    59 H    0.974
                            60 H    0.974
    29   6 C    3.964 --    26 C    1.402    20 C    1.375    61 H    0.963
    30   6 C    3.961 --    17 N    1.001    64 H    0.978    62 H    0.967
                            63 H    0.961
    31   6 C    3.262 --    32 C    1.089    33 C    1.076     3 C    1.005
    32   6 C    3.972 --    31 C    1.089    67 H    0.970    68 H    0.965
                            66 H    0.906
    33   6 C    3.981 --    31 C    1.076    71 H    0.979    70 H    0.952
                            69 H    0.935
    34   1 H    0.947 --     5 C    0.908
    35   1 H    0.990 --     8 C    0.971
    36   1 H    0.992 --     8 C    0.976
    37   1 H    0.991 --     8 C    0.971
    38   1 H    0.995 --    11 C    0.974
    39   1 H    0.993 --    11 C    0.977
    40   1 H    0.995 --    11 C    0.975
    41   1 H    0.996 --    12 C    0.966
    42   1 H    0.998 --    13 C    0.959
    43   1 H    0.996 --    14 C    0.970
    44   1 H    0.996 --    14 C    0.974
    45   1 H    0.995 --    15 C    0.962
    46   1 H    0.966 --    15 C    0.933
    47   1 H    0.988 --     2 C    0.905
    48   1 H    0.996 --    16 C    0.959
    49   1 H    0.991 --    18 C    0.965
    50   1 H    0.995 --    18 C    0.968
    51   1 H    0.996 --    19 C    0.973
    52   1 H    0.996 --    19 C    0.972
    53   1 H    0.998 --    21 C    0.968
    54   1 H    0.996 --    22 C    0.964
    55   1 H    0.994 --    25 C    0.974
    56   1 H    0.993 --    25 C    0.973
    57   1 H    0.993 --    25 C    0.977
    58   1 H    0.993 --    28 C    0.977
    59   1 H    0.995 --    28 C    0.974
    60   1 H    0.994 --    28 C    0.974
    61   1 H    0.997 --    29 C    0.963
    62   1 H    0.984 --    30 C    0.967
    63   1 H    0.987 --    30 C    0.961
    64   1 H    0.994 --    30 C    0.978
    65   1 H    0.970 --     5 C    0.944
    66   1 H    0.933 --    32 C    0.906
    67   1 H    0.990 --    32 C    0.970
    68   1 H    0.982 --    32 C    0.965
    69   1 H    0.953 --    33 C    0.935
    70   1 H    0.971 --    33 C    0.952
    71   1 H    0.994 --    33 C    0.979
    72   1 H    0.971 --     1 N    0.942
 ---------------------------------------------------------------------------

molecular dipole:
                 x           y           z       tot (Debye)
 q only:       -1.359       0.834      -0.735
   full:       -0.976       0.867      -0.899       4.028

           -------------------------------------------------
          | TOTAL ENERGY             -101.977669488447 Eh   |
          | GRADIENT NORM               0.003602410758 Eh/α |
          | HOMO-LUMO GAP               0.040674410816 eV   |
           -------------------------------------------------

 * finished run on 2024/04/06 at 11:15:56.924
