   * xtb version 6.6.1 (8d0f1dd) compiled by 'conda@1efc2f54142f' on 2023-08-01
          program call               : xtb xtbopt.xyz --opt crude --input .xc2 --gfn2

   ID    Z sym.   atoms
    1    7 N      1, 17
    2    6 C      2-6, 8, 9, 11-16, 18-23, 25, 26, 28-33
    3    8 O      7, 10, 24, 27
    4    1 H      34-72
########################################################################
[WARNING] Please study the warnings concerning your input carefully
-1- readin_getIntValue: could not parse ''
########################################################################

          :  Hamiltonian                  GFN2-xTB          :
 * total energy  :   -99.1643076 Eh     change       -0.7133849E-11 Eh
 * total energy  :   -99.3257811 Eh     change       -0.1614735E+00 Eh
 * total energy  :   -99.3275413 Eh     change       -0.1760162E-02 Eh
 * total energy  :   -99.3285095 Eh     change       -0.9682468E-03 Eh
 * total energy  :   -99.3287190 Eh     change       -0.2094485E-03 Eh
   *** GEOMETRY OPTIMIZATION CONVERGED AFTER 5 ITERATIONS ***

 final structure:
================
72
 xtb: 6.6.1 (8d0f1dd)
N           -1.99539909318343        2.79430769708526        2.40576322941512
C           -1.82886731303451        2.15704103946535        1.34166505905663
C           -2.93597757002716        1.96130477373954        0.31550588207661
C           -3.42290368678429        0.52255251082723        0.35459975817567
C           -4.55991666940973        0.20437001995884       -0.57231029554522
C           -5.08521327967952       -1.18721682090798       -0.42501790492507
O           -6.15800507739617       -1.60172050348347       -1.12476573529831
C           -6.83825881566959       -0.70723512204433       -1.97030222200702
C           -4.49060816678121       -2.12262762153257        0.42186236618946
O           -5.05379349877941       -3.35762249950955        0.41585697244474
C           -4.53962033096309       -4.34431550345801        1.27931784891019
C           -3.40343364779076       -1.74565338797879        1.21440268890848
C           -2.91713795267574       -0.42626684239805        1.18336270720151
C           -2.31783079595640        2.27579876835517       -1.07394680776493
C           -1.36062894846396        1.19260410893057       -1.60009680497870
C           -0.04612533677738        1.15864936791247       -0.91597271786317
N            0.59923316123182        0.04331532123948       -0.55899770710417
C            1.98749103022051        0.09871107019211       -0.17134152578492
C            2.92282245097288       -0.29283428173663       -1.33254469298362
C            4.35475799141270       -0.11972148101992       -0.91281520502547
C            5.01412840736400        1.07742927732000       -1.12977830706785
C            6.32371181251868        1.25260876557226       -0.70832234253392
C            6.99677359792260        0.23231793226506       -0.05413074781555
O            8.26437569934273        0.29388156952562        0.40261887605318
C            8.99730698723085        1.48308859225723        0.22287241962644
C            6.32865016128158       -1.00081835628788        0.17221798203246
O            7.05887584552351       -1.94164034134579        0.80963304073954
C            6.48818014776783       -3.20453262356223        1.05161644790430
C            5.02075411671294       -1.15310373537122       -0.25681647706692
C            0.01036575023061       -1.26484346729024       -0.70975334185992
C           -4.07623108676486        2.88546986988760        0.64571103923139
C           -4.88663439731023        2.58881444185940        1.84263997575618
C           -4.16416967670828        4.23591446066943        0.04819741074459
H           -4.23862888882066        0.34195941233905       -1.62009953552141
H           -7.26524254869304        0.13166205676269       -1.41182009338754
H           -7.64507168385650       -1.28415468944095       -2.41807092098406
H           -6.18937077094353       -0.32005077177432       -2.76166022519790
H           -4.62726387131918       -4.04743158205355        2.32888876804667
H           -5.14896709283222       -5.22878758606539        1.10435194345393
H           -3.49437869913822       -4.57569097338920        1.05001469291341
H           -2.94975222407932       -2.44881644551183        1.89057387003270
H           -2.12233206733943       -0.17422295880843        1.87065411877497
H           -3.12756000549705        2.38400802904668       -1.79502475642942
H           -1.79056365311824        3.22901387003584       -1.02090873844437
H           -1.84630041862074        0.21976424797809       -1.55296794655542
H           -1.17873217319035        1.42181046925162       -2.65948451797243
H           -0.87628763791982        1.71221880308366        1.00815035112629
H            0.51092797503507        2.07983174287766       -0.84472844034575
H            2.15267803966733       -0.57716695725228        0.67218792577796
H            2.23170361776628        1.11269753594634        0.15152554017352
H            2.70442904040732        0.34846811430688       -2.18820187631601
H            2.73561239589988       -1.32840699002168       -1.61931311811644
H            4.51390619783678        1.88520187319512       -1.64234426130629
H            6.81363284341758        2.19301077238177       -0.90006467954601
H            8.51618504503779        2.32988865623072        0.72218916175061
H            9.13370518733865        1.71379707907752       -0.83814292462114
H            9.96800548109513        1.29964898240840        0.67943304846040
H            7.26202330768947       -3.78387416608079        1.55147926890436
H            5.61305649614980       -3.13190080315714        1.70583663264559
H            6.20795604383498       -3.70465994386739        0.11910173780597
H            4.50544770719348       -2.08716777752646       -0.09559665297314
H           -0.10681584016621       -1.53089019910659       -1.76338242120878
H           -0.96849160333188       -1.30186168141952       -0.22664644082554
H            0.65510500387941       -2.00155263776105       -0.23710188031112
H           -5.36499135530216        0.92957492466842       -0.42044658443106
H           -4.39956076391360        3.04428290007069        2.71323782839795
H           -4.95451360431624        1.52159011664751        2.04067219834499
H           -5.88369120763818        3.01929600546113        1.76477834622742
H           -3.26481496393468        4.81562350912468        0.27685873257081
H           -4.25107287230842        4.20788865596882       -1.03912532859959
H           -5.01955925423809        4.77297665954171        0.44800136770642
H           -1.19056740029562        2.88853427019333        3.01752978372285

          :  Hamiltonian                  GFN2-xTB          :
         :: total energy             -99.328718987228 Eh    ::
         :: gradient norm              0.007486090684 Eh/a0 ::
         :: HOMO-LUMO gap              0.075038034448 eV    ::
         :: SCC energy              -100.684754809378 Eh    ::
         :: -> dispersion             -0.074403992219 Eh    ::
         :: repulsion energy           1.354883697764 Eh    ::

    * Orbital Energies and Occupations

         #    Occupation            Energy/Eh            Energy/eV
      -------------------------------------------------------------
         1        2.0000           -0.8174978             -22.2452
       ...           ...                  ...                  ...
        78        1.9996           -0.5337177             -14.5232
        79        1.9995           -0.5296881             -14.4135
        80        1.9993           -0.5257717             -14.3070
        81        1.9992           -0.5240260             -14.2595
        82        1.9991           -0.5214731             -14.1900
        83        1.9991           -0.5211804             -14.1820
        84        1.9988           -0.5178193             -14.0906
        85        1.9980           -0.5090949             -13.8532
        86        1.9853           -0.4775136             -12.9938
        87        1.9841           -0.4762745             -12.9601
        88        1.9652           -0.4637440             -12.6191
        89        1.8893           -0.4447945             -12.1035
        90        0.8613           -0.3954496             -10.7607 (HOMO)
        91        0.7771           -0.3926920             -10.6857 (LUMO)
        92        0.4948           -0.3822556             -10.4017
        93        0.0397           -0.3381152              -9.2006
        94        0.0064           -0.3090662              -8.4101
        95        0.0038           -0.3006697              -8.1816
        96        0.0032           -0.2979269              -8.1070
        97        0.0000           -0.2230366              -6.0691
        98        0.0000           -0.1752856              -4.7698
        99                         -0.1229592              -3.3459
       100                         -0.0775519              -2.1103
       101                         -0.0690646              -1.8793
       ...                                ...                  ...
       171                          0.5895566              16.0427
      -------------------------------------------------------------
                  HL-Gap            0.0027576 Eh            0.0750 eV

     #   Z          covCN         q      C6AA      α(0)
     1   7 N        1.774    -0.291    28.357     7.886
     2   6 C        2.827     0.092    25.938     8.345
     3   6 C        3.910     0.009    20.375     6.416
     4   6 C        2.962    -0.018    28.463     8.751
     5   6 C        3.810    -0.074    21.907     6.662
     6   6 C        2.851     0.115    25.466     8.271
     7   8 O        1.706    -0.209    17.476     5.644
     8   6 C        3.643     0.024    20.520     6.512
     9   6 C        2.849     0.124    25.283     8.241
    10   8 O        1.706    -0.245    18.065     5.739
    11   6 C        3.644     0.030    20.410     6.494
    12   6 C        2.912    -0.088    30.205     9.012
    13   6 C        2.903    -0.049    29.226     8.864
    14   6 C        3.809    -0.067    21.768     6.641
    15   6 C        3.802    -0.066    21.768     6.643
    16   6 C        2.841    -0.010    28.250     8.711
    17   7 N        2.729    -0.002    21.305     6.855
    18   6 C        3.756    -0.014    20.881     6.515
    19   6 C        3.808    -0.070    21.827     6.651
    20   6 C        2.970    -0.003    28.091     8.694
    21   6 C        2.922    -0.051    29.260     8.871
    22   6 C        2.914    -0.069    29.722     8.940
    23   6 C        2.865     0.131    25.133     8.218
    24   8 O        1.706    -0.229    17.800     5.696
    25   6 C        3.646     0.027    20.447     6.498
    26   6 C        2.863     0.131    25.138     8.218
    27   8 O        1.706    -0.232    17.838     5.702
    28   6 C        3.645     0.030    20.412     6.494
    29   6 C        2.920    -0.081    30.019     8.985
    30   6 C        3.699    -0.067    21.963     6.703
    31   6 C        2.948     0.010    27.805     8.649
    32   6 C        3.755    -0.122    22.903     6.824
    33   6 C        3.754    -0.117    22.796     6.808
    34   1 H        0.923     0.068     2.104     2.269
    35   1 H        0.924     0.057     2.230     2.335
    36   1 H        0.925     0.087     1.907     2.159
    37   1 H        0.924     0.053     2.280     2.362
    38   1 H        0.924     0.051     2.309     2.376
    39   1 H        0.925     0.078     2.000     2.211
    40   1 H        0.924     0.045     2.380     2.412
    41   1 H        0.926     0.049     2.330     2.387
    42   1 H        0.926     0.038     2.471     2.458
    43   1 H        0.925     0.054     2.274     2.358
    44   1 H        0.924     0.052     2.293     2.368
    45   1 H        0.925     0.061     2.182     2.310
    46   1 H        0.923     0.070     2.089     2.260
    47   1 H        0.923     0.015     2.807     2.620
    48   1 H        0.926     0.060     2.203     2.321
    49   1 H        0.924     0.063     2.164     2.300
    50   1 H        0.924     0.064     2.152     2.294
    51   1 H        0.924     0.052     2.301     2.372
    52   1 H        0.924     0.053     2.288     2.365
    53   1 H        0.926     0.041     2.432     2.439
    54   1 H        0.926     0.055     2.264     2.353
    55   1 H        0.924     0.050     2.314     2.379
    56   1 H        0.924     0.053     2.288     2.366
    57   1 H        0.925     0.079     1.991     2.207
    58   1 H        0.925     0.078     1.995     2.209
    59   1 H        0.924     0.045     2.380     2.413
    60   1 H        0.924     0.049     2.329     2.387
    61   1 H        0.926     0.044     2.402     2.424
    62   1 H        0.924     0.069     2.092     2.262
    63   1 H        0.924     0.077     2.015     2.220
    64   1 H        0.925     0.076     2.024     2.225
    65   1 H        0.924     0.079     1.987     2.204
    66   1 H        0.924     0.107     1.722     2.052
    67   1 H        0.925     0.058     2.219     2.330
    68   1 H        0.925     0.065     2.146     2.291
    69   1 H        0.924     0.072     2.062     2.246
    70   1 H        0.924     0.062     2.182     2.310
    71   1 H        0.925     0.066     2.130     2.282
    72   1 H        0.860     0.158     1.348     1.819

Wiberg/Mayer (AO) data.
largest (>0.10) Wiberg bond orders for each atom

     #   Z sym  total        # sym  WBO       # sym  WBO       # sym  WBO
 ---------------------------------------------------------------------------
     1   7 N    3.013 --     2 C    1.950    72 H    0.942
     2   6 C    3.873 --     1 N    1.950     3 C    0.947    47 H    0.905
     3   6 C    3.983 --    31 C    1.004     4 C    0.964    14 C    0.952
                             2 C    0.947
     4   6 C    3.754 --    13 C    1.604     5 C    1.020     3 C    0.964
     5   6 C    3.981 --     6 C    1.029     4 C    1.020    65 H    0.923
                            34 H    0.917
     6   6 C    3.651 --     9 C    1.341     7 O    1.126     5 C    1.029
     7   8 O    2.244 --     6 C    1.126     8 C    0.979
     8   6 C    3.928 --     7 O    0.979    36 H    0.976    37 H    0.970
                            35 H    0.968
     9   6 C    3.903 --     6 C    1.341    12 C    1.324    10 O    1.076
    10   8 O    2.233 --     9 C    1.076    11 C    0.980
    11   6 C    3.935 --    10 O    0.980    39 H    0.977    40 H    0.975
                            38 H    0.975
    12   6 C    3.718 --     9 C    1.324    13 C    1.290    41 H    0.966
    13   6 C    3.980 --     4 C    1.604    12 C    1.290    42 H    0.959
    14   6 C    3.964 --    15 C    0.988    44 H    0.974    43 H    0.970
                             3 C    0.952
    15   6 C    3.989 --    16 C    1.053    14 C    0.988    45 H    0.962
                            46 H    0.933
    16   6 C    3.515 --    17 N    1.355    15 C    1.053    48 H    0.959
    17   7 N    3.426 --    16 C    1.355    30 C    1.001    18 C    0.991
    18   6 C    3.958 --    17 N    0.991    50 H    0.968    19 C    0.966
                            49 H    0.965
    19   6 C    3.975 --    20 C    1.008    51 H    0.973    52 H    0.972
                            18 C    0.966
    20   6 C    3.954 --    21 C    1.418    29 C    1.375    19 C    1.008
    21   6 C    3.958 --    20 C    1.418    22 C    1.412    53 H    0.969
    22   6 C    3.965 --    21 C    1.412    23 C    1.391    54 H    0.964
    23   6 C    3.905 --    22 C    1.391    26 C    1.228    24 O    1.101
    24   8 O    2.254 --    23 C    1.101    25 C    0.978
    25   6 C    3.933 --    24 O    0.978    57 H    0.977    55 H    0.974
                            56 H    0.974
    26   6 C    3.908 --    29 C    1.402    23 C    1.228    27 O    1.095
    27   8 O    2.253 --    26 C    1.095    28 C    0.981
    28   6 C    3.936 --    27 O    0.981    58 H    0.977    59 H    0.974
                            60 H    0.974
    29   6 C    3.964 --    26 C    1.402    20 C    1.375    61 H    0.963
    30   6 C    3.961 --    17 N    1.001    64 H    0.978    62 H    0.967
                            63 H    0.961
    31   6 C    3.262 --    32 C    1.088    33 C    1.075     3 C    1.004
    32   6 C    3.972 --    31 C    1.088    67 H    0.971    68 H    0.965
                            66 H    0.905
    33   6 C    3.981 --    31 C    1.075    71 H    0.979    70 H    0.952
                            69 H    0.936
    34   1 H    0.952 --     5 C    0.917
    35   1 H    0.990 --     8 C    0.968
    36   1 H    0.992 --     8 C    0.976
    37   1 H    0.991 --     8 C    0.970
    38   1 H    0.995 --    11 C    0.975
    39   1 H    0.993 --    11 C    0.977
    40   1 H    0.995 --    11 C    0.975
    41   1 H    0.996 --    12 C    0.966
    42   1 H    0.998 --    13 C    0.959
    43   1 H    0.996 --    14 C    0.970
    44   1 H    0.996 --    14 C    0.974
    45   1 H    0.995 --    15 C    0.962
    46   1 H    0.966 --    15 C    0.933
    47   1 H    0.988 --     2 C    0.905
    48   1 H    0.996 --    16 C    0.959
    49   1 H    0.991 --    18 C    0.965
    50   1 H    0.995 --    18 C    0.968
    51   1 H    0.996 --    19 C    0.973
    52   1 H    0.996 --    19 C    0.972
    53   1 H    0.998 --    21 C    0.969
    54   1 H    0.996 --    22 C    0.964
    55   1 H    0.994 --    25 C    0.974
    56   1 H    0.993 --    25 C    0.974
    57   1 H    0.993 --    25 C    0.977
    58   1 H    0.993 --    28 C    0.977
    59   1 H    0.995 --    28 C    0.974
    60   1 H    0.994 --    28 C    0.974
    61   1 H    0.997 --    29 C    0.963
    62   1 H    0.984 --    30 C    0.967
    63   1 H    0.987 --    30 C    0.961
    64   1 H    0.994 --    30 C    0.978
    65   1 H    0.959 --     5 C    0.923
    66   1 H    0.933 --    32 C    0.905
    67   1 H    0.990 --    32 C    0.971
    68   1 H    0.982 --    32 C    0.965
    69   1 H    0.954 --    33 C    0.936
    70   1 H    0.971 --    33 C    0.952
    71   1 H    0.994 --    33 C    0.979
    72   1 H    0.971 --     1 N    0.942
 ---------------------------------------------------------------------------

molecular dipole:
                 x           y           z       tot (Debye)
 q only:       -1.354       0.792      -0.731
   full:       -0.994       0.855      -0.902       4.043

           -------------------------------------------------
          | TOTAL ENERGY              -99.328718987228 Eh   |
          | GRADIENT NORM               0.007486090684 Eh/α |
          | HOMO-LUMO GAP               0.075038034448 eV   |
           -------------------------------------------------

 * finished run on 2024/04/06 at 11:15:58.063
