   * xtb version 6.6.1 (8d0f1dd) compiled by 'conda@1efc2f54142f' on 2023-08-01
          program call               : xtb xtbopt.xyz --opt crude --input .xc2 --gfn2

   ID    Z sym.   atoms
    1    6 C      1, 3, 5-7, 10, 11, 14
    2    7 N      2, 4, 9, 13
    3    8 O      8, 12
    4    1 H      15-25

          :  Hamiltonian                  GFN2-xTB          :
 * total energy  :   -42.1371886 Eh     change       -0.5897505E-12 Eh
   *** GEOMETRY OPTIMIZATION CONVERGED AFTER 1 ITERATIONS ***

 final structure:
================
25
 xtb: 6.6.1 (8d0f1dd)
C            3.13242159479117        1.15988656240885       -0.03993089657172
N            2.22722667964748        0.04426377300542       -0.02660976238023
C            2.55369789701321       -1.25286579105896       -0.00114308174105
N            1.42557163434052       -2.00925773121481        0.02177064221828
C            0.35296397714353       -1.16705098837389        0.01112360272031
C            0.85046699855508        0.13314114972503       -0.01816838430565
C            0.00049451417608        1.27919375174860       -0.03504080348202
O            0.32740236371825        2.44917343569251       -0.06873790956796
N           -1.39099152069675        0.90513948810711       -0.00667714011967
C           -2.29007712263079        1.90202354805223       -0.00572781405668
C           -1.89792876918706       -0.42184404008379        0.01397386467259
O           -3.08242297367403       -0.63697747565774        0.02628807451292
N           -0.96593586674184       -1.45808501443952        0.02303137123856
C           -1.44175176002584       -2.82792693774341        0.03652950403786
H            3.66017481077667        1.23400545786722        0.91267081318210
H            3.86568200104330        1.04456504078500       -0.83807070171345
H            2.55972236543248        2.07323920580149       -0.19731393661452
H            3.55101976917046       -1.64222584273420        0.00055919462233
H           -1.69168952458043        4.95279701301493        0.06601106597903
H           -1.92671767730495        2.92240736905093       -0.01651092489552
H           -3.33514114789524        1.65351493219983        0.01239287076605
H           -1.12258727890697       -3.33350245275501        0.94864265353335
H           -1.07537354346312       -3.36542259246615       -0.83867398384646
H           -2.53028572659838       -2.80201041569197        0.00837090811589
H            1.40448981999847       -3.01794290364158        0.04241239159749

          :  Hamiltonian                  GFN2-xTB          :
         :: total energy             -42.137188641891 Eh    ::
         :: gradient norm              0.002666776789 Eh/a0 ::
         :: HOMO-LUMO gap              0.133410582165 eV    ::
         :: SCC energy               -42.651151624383 Eh    ::
         :: -> dispersion             -0.022782119547 Eh    ::
         :: repulsion energy           0.513879098049 Eh    ::

    * Orbital Energies and Occupations

         #    Occupation            Energy/Eh            Energy/eV
      -------------------------------------------------------------
         1        2.0000           -0.9056922             -24.6451
       ...           ...                  ...                  ...
        25        1.9994           -0.6724308             -18.2978
        26        1.9993           -0.6682768             -18.1847
        27        1.9992           -0.6633270             -18.0500
        28        1.9969           -0.6317852             -17.1917
        29        1.9966           -0.6294180             -17.1273
        30        1.9964           -0.6282852             -17.0965
        31        1.9943           -0.6174282             -16.8011
        32        1.9937           -0.6148112             -16.7299
        33        1.9930           -0.6123825             -16.6638
        34        1.9792           -0.5864155             -15.9572
        35        1.9556           -0.5681099             -15.4591
        36        1.9316           -0.5575295             -15.1712
        37        0.9780           -0.4771495             -12.9839 (HOMO)
        38        0.8754           -0.4722467             -12.8505 (LUMO)
        39        0.2209           -0.4286429             -11.6640
        40        0.0685           -0.3988979             -10.8546
        41        0.0231           -0.3724892             -10.1359
        42        0.0007           -0.2876608              -7.8276
        43        0.0000           -0.2080680              -5.6618
        44        0.0000           -0.1951754              -5.3110
        45        0.0000           -0.1501396              -4.0855
        46        0.0000           -0.1446044              -3.9349
        47                         -0.0766145              -2.0848
        48                         -0.0524616              -1.4276
       ...                                ...                  ...
        67                          0.5380343              14.6407
      -------------------------------------------------------------
                  HL-Gap            0.0049027 Eh            0.1334 eV

     #   Z          covCN         q      C6AA      α(0)
     1   6 C        3.690    -0.091    22.443     6.780
     2   7 N        2.823     0.069    20.031     6.647
     3   6 C        3.037     0.041    27.050     8.531
     4   7 N        2.783    -0.062    22.440     7.036
     5   6 C        3.033     0.103    25.700     8.315
     6   6 C        3.098    -0.019    28.368     8.729
     7   6 C        2.775     0.250    22.804     7.821
     8   8 O        0.857    -0.359    20.872     6.125
     9   7 N        2.740    -0.029    21.803     6.935
    10   6 C        2.813    -0.022    28.535     8.752
    11   6 C        2.736     0.305    21.814     7.647
    12   8 O        0.859    -0.348    20.676     6.096
    13   7 N        2.736    -0.046    22.124     6.986
    14   6 C        3.698    -0.073    22.069     6.719
    15   1 H        0.924     0.107     1.724     2.053
    16   1 H        0.925     0.104     1.745     2.066
    17   1 H        0.925     0.133     1.511     1.922
    18   1 H        0.926     0.120     1.609     1.984
    19   1 H        0.000     0.021     6.785     4.763
    20   1 H        0.925     0.135     1.496     1.913
    21   1 H        0.926     0.131     1.527     1.932
    22   1 H        0.924     0.088     1.902     2.157
    23   1 H        0.924     0.086     1.914     2.163
    24   1 H        0.925     0.129     1.545     1.944
    25   1 H        0.860     0.226     0.981     1.552

Wiberg/Mayer (AO) data.
largest (>0.10) Wiberg bond orders for each atom

     #   Z sym  total        # sym  WBO       # sym  WBO       # sym  WBO
 ---------------------------------------------------------------------------
     1   6 C    3.911 --     2 N    0.990    16 H    0.961    17 H    0.959
                            15 H    0.954
     2   7 N    3.600 --     3 C    1.341     6 C    1.143     1 C    0.990
     3   6 C    3.734 --     2 N    1.341     4 N    1.248    18 H    0.955
     4   7 N    3.542 --     3 C    1.248     5 C    1.189    25 H    0.921
     5   6 C    3.857 --     6 C    1.310     4 N    1.189    13 N    1.184
     6   6 C    3.868 --     5 C    1.310     2 N    1.143     7 C    1.127
     7   6 C    3.837 --     8 O    1.646     6 C    1.127     9 N    0.979
     8   8 O    1.903 --     7 C    1.646
     9   7 N    3.584 --    10 C    1.333    11 C    1.021     7 C    0.979
    10   6 C    3.293 --     9 N    1.333    21 H    0.956    20 H    0.932
    11   6 C    3.878 --    12 O    1.683    13 N    1.084     9 N    1.021
    12   8 O    1.974 --    11 C    1.683    13 N    0.124
    13   7 N    3.526 --     5 C    1.184    11 C    1.084    14 C    0.974
                            12 O    0.124
    14   6 C    3.915 --    13 N    0.974    23 H    0.968    22 H    0.967
                            24 H    0.962
    15   1 H    0.979 --     1 C    0.954
    16   1 H    0.981 --     1 C    0.961
    17   1 H    0.980 --     1 C    0.959
    18   1 H    0.984 --     3 C    0.955
    19   1 H    0.027
    20   1 H    0.978 --    10 C    0.932
    21   1 H    0.978 --    10 C    0.956
    22   1 H    0.985 --    14 C    0.967
    23   1 H    0.985 --    14 C    0.968
    24   1 H    0.981 --    14 C    0.962
    25   1 H    0.948 --     4 N    0.921
 ---------------------------------------------------------------------------

molecular dipole:
                 x           y           z       tot (Debye)
 q only:        2.177      -1.899       0.029
   full:        2.408      -2.328       0.042       8.515

           -------------------------------------------------
          | TOTAL ENERGY              -42.137188641891 Eh   |
          | GRADIENT NORM               0.002666776789 Eh/α |
          | HOMO-LUMO GAP               0.133410582165 eV   |
           -------------------------------------------------

 * finished run on 2024/06/05 at 19:58:52.418
