   * xtb version 6.6.1 (8d0f1dd) compiled by 'conda@1efc2f54142f' on 2023-08-01
          program call               : xtb struc.xyz --opt loose --input .xc1 --gfn2

   ID    Z sym.   atoms
    1    7 N      1, 17
    2    6 C      2-6, 8, 9, 11-16, 18-23, 25, 26, 28-33
    3    8 O      7, 10, 24, 27
    4    1 H      34-72
constraining bond 4 33 to    6.0000000 Å, actual value:    3.8931110 Å

          :  Hamiltonian                  GFN2-xTB          :
 * total energy  :   -98.6115366 Eh     change       -0.4035485E-08 Eh
 * total energy  :   -98.8509904 Eh     change       -0.2394539E+00 Eh
 * total energy  :   -98.9826599 Eh     change       -0.1316695E+00 Eh
 * total energy  :   -99.0545956 Eh     change       -0.7193571E-01 Eh
 * total energy  :   -99.0982557 Eh     change       -0.4366011E-01 Eh
 * total energy  :   -99.1270073 Eh     change       -0.2875160E-01 Eh
 * total energy  :   -99.1496692 Eh     change       -0.2266186E-01 Eh
 * total energy  :   -99.1696027 Eh     change       -0.1993349E-01 Eh
 * total energy  :   -99.1881861 Eh     change       -0.1858344E-01 Eh
 * total energy  :   -99.2005928 Eh     change       -0.1240664E-01 Eh
 * total energy  :   -99.2633874 Eh     change       -0.2139985E-03 Eh
 * total energy  :   -99.2635626 Eh     change       -0.1751892E-03 Eh
 * total energy  :   -99.2636699 Eh     change       -0.1072811E-03 Eh
 * total energy  :   -99.2638079 Eh     change       -0.1379620E-03 Eh
 * total energy  :   -99.2639216 Eh     change       -0.1137105E-03 Eh
 * total energy  :   -99.2640001 Eh     change       -0.7856349E-04 Eh
 * total energy  :   -99.2640156 Eh     change       -0.1541054E-04 Eh
 * total energy  :   -99.2640490 Eh     change       -0.3340722E-04 Eh
 * total energy  :   -99.2640608 Eh     change       -0.1181145E-04 Eh
   *** GEOMETRY OPTIMIZATION CONVERGED AFTER 34 ITERATIONS ***

 final structure:
================
72
 xtb: 6.6.1 (8d0f1dd)
N           -2.05136854066894        2.54914328865142        2.31326671895806
C           -1.88252521498005        1.96728729771475        1.21961533706943
C           -3.00030067271619        1.71721044142023        0.21919555663040
C           -3.45779296485965        0.26252923084182        0.32431139565338
C           -4.46211252640443       -0.17218975637688       -0.54207805007022
C           -4.93278808827054       -1.47306301275350       -0.50145004248335
O           -5.88879301509968       -1.98181693579090       -1.30644661524665
C           -6.48443503913976       -1.15009448424505       -2.27359733512947
C           -4.39605243604942       -2.37943011741026        0.45246137926302
O           -4.92189396392065       -3.62135881776597        0.42979959693919
C           -4.50952493566671       -4.55803050689640        1.39723565305618
C           -3.40641818001694       -1.93472705651138        1.31316607669256
C           -2.93815573958967       -0.62635675011067        1.24715712687434
C           -2.43656670187033        2.00745178438448       -1.19491030458155
C           -1.46475036726657        0.94246517621946       -1.72792383962894
C           -0.12828071633716        0.98078631802874       -1.09185149021059
N            0.56034295315146       -0.08431407651886       -0.68530369287155
C            1.94221613142268        0.04596501387686       -0.29058554820341
C            2.90674250958580       -0.38376808178613       -1.41320024499584
C            4.32540305439594       -0.17400437485132       -0.96442014208751
C            4.96154996771017        1.03758735825698       -1.17475057014423
C            6.25606665473735        1.24664803757940       -0.72402797144036
C            6.93832774868028        0.24672817957388       -0.04699900284925
O            8.19245408813514        0.34055360395581        0.43653561576854
C            8.91205329374001        1.53661193726989        0.24606161066239
C            6.29330553902334       -1.00049902958471        0.17404885275136
O            7.02819499693397       -1.91870118122563        0.83575206300076
C            6.48260556825511       -3.19420460442476        1.07157865590590
C            4.99932780594258       -1.18613914584609       -0.28461405220851
C            0.01030390685194       -1.41703163841531       -0.73830916128483
C           -4.15041666279851        2.62238994315470        0.49406274979537
C           -4.91619700374580        2.51558929429281        1.73540303516979
C           -4.21997765708715        6.19901710961154        0.66275065191536
H           -4.88735883283154        0.53138365411908       -1.23858318813162
H           -7.00890244655693       -0.30786805707439       -1.81230876376682
H           -7.20254052134333       -1.77893142968505       -2.79575742901133
H           -5.74619177576441       -0.77377055466474       -2.98920261876963
H           -4.71381268966660       -4.20298077195459        2.41163623407408
H           -5.09640284770554       -5.45384675244621        1.20392145197563
H           -3.44521785831181       -4.79522367311507        1.30016486006793
H           -2.99215969350661       -2.59857776545399        2.05467764388561
H           -2.18056550647640       -0.31084161102559        1.94788787208879
H           -3.27549239552033        2.06989578850346       -1.88741875359319
H           -1.94737433600294        2.98319285520616       -1.18176724128099
H           -1.92469691731725       -0.04022610080343       -1.63741141557258
H           -1.32772536071762        1.14703108669027       -2.79810724421862
H           -0.91359137074511        1.59785189542967        0.84410181019342
H            0.39321322988993        1.92589157964072       -1.07791159555988
H            2.12170191673905       -0.56901335408950        0.59561975065581
H            2.14719442258903        1.08644309040947       -0.03057356252254
H            2.70181649972304        0.21583746601463       -2.30161439875475
H            2.73969214357902       -1.43335152458185       -1.65783348185581
H            4.45480152890269        1.82960214895380       -1.70502963711064
H            6.72771724057922        2.19756015169995       -0.90956614566875
H            8.41816540594910        2.38340695626377        0.73254747636447
H            9.05095567650441        1.75565509684866       -0.81692730205740
H            9.88236337729800        1.37046417108315        0.70987191374335
H            7.25748867753569       -3.75162691586826        1.59411097444920
H            5.58997956976714       -3.13911601506174        1.70334278954386
H            6.23813796835459       -3.70584494749483        0.13538021414378
H            4.50261901268930       -2.13099931295014       -0.12842271159578
H           -0.13077084962379       -1.74729238589931       -1.77000457295948
H           -0.95286716850582       -1.45411636784869       -0.22381025264321
H            0.69244511197945       -2.10445243207104       -0.24476966838028
H           -4.27575912037613        3.49568637546798       -0.12572231190553
H           -4.28128025964643        2.86487599754369        2.56157000444585
H           -5.16705028002647        1.48012860344962        1.96917801709849
H           -5.81462351847273        3.12377746449800        1.70640020893609
H           -3.52821156245490        5.80493370192938        1.37240439231879
H           -3.87328266271281        6.55095858205000       -0.28093126321037
H           -5.24923301724541        6.30514954389371        0.92549479947688
H           -1.23720898561918        2.68025884057602        2.90469397503499

          :  Hamiltonian                  GFN2-xTB          :
         :: total energy             -99.264060783753 Eh    ::
         :: gradient norm              0.003101963346 Eh/a0 ::
         :: HOMO-LUMO gap              0.169825434151 eV    ::
         :: SCC energy              -100.649610720842 Eh    ::
         :: -> dispersion             -0.072233343154 Eh    ::
         :: repulsion energy           1.384471181217 Eh    ::

    * Orbital Energies and Occupations

         #    Occupation            Energy/Eh            Energy/eV
      -------------------------------------------------------------
         1        2.0000           -0.8052401             -21.9117
       ...           ...                  ...                  ...
        78        1.9993           -0.5349664             -14.5572
        79        1.9992           -0.5317449             -14.4695
        80        1.9989           -0.5271433             -14.3443
        81        1.9988           -0.5253521             -14.2956
        82        1.9986           -0.5232773             -14.2391
        83        1.9980           -0.5179412             -14.0939
        84        1.9976           -0.5145628             -14.0020
        85        1.9884           -0.4897394             -13.3265
        86        1.9825           -0.4831657             -13.1476
        87        1.9812           -0.4820525             -13.1173
        88        1.9157           -0.4577190             -12.4552
        89        1.8689           -0.4503392             -12.2544
        90        0.9892           -0.4079197             -11.1001 (HOMO)
        91        0.7950           -0.4016787             -10.9302 (LUMO)
        92        0.4450           -0.3884538             -10.5704
        93        0.0326           -0.3433616              -9.3433
        94        0.0054           -0.3145494              -8.5593
        95        0.0044           -0.3113317              -8.4718
        96        0.0032           -0.3064972              -8.3402
        97        0.0028           -0.3039597              -8.2712
        98        0.0000           -0.1882355              -5.1221
        99        0.0000           -0.1813902              -4.9359
       100                         -0.1294362              -3.5221
       101                         -0.0617364              -1.6799
       ...                                ...                  ...
       171                          0.5830110              15.8645
      -------------------------------------------------------------
                  HL-Gap            0.0062410 Eh            0.1698 eV

     #   Z          covCN         q      C6AA      α(0)
     1   7 N        1.773    -0.285    28.216     7.866
     2   6 C        2.825     0.097    25.844     8.330
     3   6 C        3.910     0.015    20.271     6.399
     4   6 C        2.976     0.000    28.015     8.682
     5   6 C        2.921    -0.080    30.008     8.983
     6   6 C        2.863     0.129    25.168     8.223
     7   8 O        1.706    -0.232    17.843     5.703
     8   6 C        3.645     0.028    20.440     6.498
     9   6 C        2.864     0.128    25.192     8.227
    10   8 O        1.706    -0.232    17.840     5.703
    11   6 C        3.645     0.028    20.443     6.498
    12   6 C        2.915    -0.076    29.891     8.965
    13   6 C        2.920    -0.056    29.381     8.889
    14   6 C        3.811    -0.067    21.768     6.641
    15   6 C        3.802    -0.067    21.788     6.646
    16   6 C        2.842    -0.002    28.069     8.683
    17   7 N        2.729     0.006    21.160     6.832
    18   6 C        3.756    -0.015    20.904     6.519
    19   6 C        3.808    -0.070    21.835     6.652
    20   6 C        2.970    -0.002    28.065     8.690
    21   6 C        2.922    -0.050    29.239     8.867
    22   6 C        2.914    -0.068    29.702     8.937
    23   6 C        2.865     0.132    25.108     8.214
    24   8 O        1.706    -0.226    17.744     5.687
    25   6 C        3.645     0.026    20.467     6.502
    26   6 C        2.863     0.132    25.115     8.215
    27   8 O        1.706    -0.228    17.786     5.694
    28   6 C        3.645     0.028    20.430     6.496
    29   6 C        2.920    -0.080    30.009     8.983
    30   6 C        3.699    -0.069    21.994     6.707
    31   6 C        2.900    -0.031    28.784     8.797
    32   6 C        3.753    -0.118    22.810     6.811
    33   6 C        2.780    -0.147    31.773     9.233
    34   1 H        0.926     0.051     2.312     2.378
    35   1 H        0.924     0.052     2.296     2.369
    36   1 H        0.925     0.080     1.975     2.198
    37   1 H        0.924     0.046     2.368     2.406
    38   1 H        0.924     0.053     2.285     2.364
    39   1 H        0.925     0.080     1.977     2.199
    40   1 H        0.924     0.047     2.359     2.402
    41   1 H        0.926     0.051     2.311     2.377
    42   1 H        0.926     0.035     2.513     2.479
    43   1 H        0.925     0.060     2.195     2.317
    44   1 H        0.924     0.050     2.316     2.380
    45   1 H        0.925     0.065     2.138     2.287
    46   1 H        0.923     0.077     2.013     2.219
    47   1 H        0.923     0.017     2.784     2.610
    48   1 H        0.926     0.064     2.148     2.292
    49   1 H        0.924     0.065     2.138     2.287
    50   1 H        0.924     0.065     2.136     2.285
    51   1 H        0.924     0.054     2.274     2.358
    52   1 H        0.924     0.054     2.267     2.355
    53   1 H        0.926     0.043     2.406     2.426
    54   1 H        0.926     0.056     2.240     2.341
    55   1 H        0.924     0.052     2.293     2.368
    56   1 H        0.924     0.054     2.268     2.355
    57   1 H        0.925     0.081     1.973     2.197
    58   1 H        0.925     0.080     1.978     2.199
    59   1 H        0.924     0.047     2.364     2.404
    60   1 H        0.924     0.051     2.309     2.376
    61   1 H        0.926     0.045     2.382     2.413
    62   1 H        0.924     0.074     2.044     2.236
    63   1 H        0.924     0.078     1.998     2.210
    64   1 H        0.925     0.078     1.998     2.211
    65   1 H        0.926     0.053     2.284     2.364
    66   1 H        0.923     0.119     1.623     1.992
    67   1 H        0.924     0.070     2.086     2.258
    68   1 H        0.925     0.068     2.112     2.273
    69   1 H        0.927     0.058     2.226     2.333
    70   1 H        0.927     0.057     2.235     2.338
    71   1 H        0.927     0.061     2.183     2.310
    72   1 H        0.860     0.161     1.329     1.806

Wiberg/Mayer (AO) data.
largest (>0.10) Wiberg bond orders for each atom

     #   Z sym  total        # sym  WBO       # sym  WBO       # sym  WBO
 ---------------------------------------------------------------------------
     1   7 N    3.032 --     2 C    1.955    72 H    0.940
     2   6 C    3.880 --     1 N    1.955     3 C    0.947    47 H    0.905
     3   6 C    3.982 --    31 C    1.032    14 C    0.960     2 C    0.947
                             4 C    0.941
     4   6 C    3.936 --    13 C    1.428     5 C    1.365     3 C    0.941
     5   6 C    3.965 --     6 C    1.406     4 C    1.365    34 H    0.960
     6   6 C    3.915 --     5 C    1.406     9 C    1.225     7 O    1.097
     7   8 O    2.260 --     6 C    1.097     8 C    0.979
     8   6 C    3.934 --     7 O    0.979    36 H    0.977    37 H    0.974
                            35 H    0.974
     9   6 C    3.913 --    12 C    1.399     6 C    1.225    10 O    1.099
    10   8 O    2.258 --     9 C    1.099    11 C    0.978
    11   6 C    3.933 --    10 O    0.978    39 H    0.977    40 H    0.974
                            38 H    0.974
    12   6 C    3.966 --     9 C    1.399    13 C    1.394    41 H    0.964
    13   6 C    3.964 --     4 C    1.428    12 C    1.394    42 H    0.963
    14   6 C    3.972 --    15 C    0.985    44 H    0.975    43 H    0.971
                             3 C    0.960
    15   6 C    3.988 --    16 C    1.057    14 C    0.985    45 H    0.962
                            46 H    0.930
    16   6 C    3.549 --    17 N    1.380    15 C    1.057    48 H    0.958
    17   7 N    3.452 --    16 C    1.380    30 C    1.000    18 C    0.990
    18   6 C    3.957 --    17 N    0.990    50 H    0.968    19 C    0.966
                            49 H    0.964
    19   6 C    3.976 --    20 C    1.008    51 H    0.972    52 H    0.972
                            18 C    0.966
    20   6 C    3.949 --    21 C    1.414    29 C    1.378    19 C    1.008
    21   6 C    3.955 --    22 C    1.414    20 C    1.414    53 H    0.968
    22   6 C    3.963 --    21 C    1.414    23 C    1.387    54 H    0.963
    23   6 C    3.901 --    22 C    1.387    26 C    1.224    24 O    1.105
    24   8 O    2.254 --    23 C    1.105    25 C    0.977
    25   6 C    3.931 --    57 H    0.977    24 O    0.977    55 H    0.973
                            56 H    0.973
    26   6 C    3.904 --    29 C    1.399    23 C    1.224    27 O    1.099
    27   8 O    2.254 --    26 C    1.099    28 C    0.980
    28   6 C    3.934 --    27 O    0.980    58 H    0.977    59 H    0.974
                            60 H    0.974
    29   6 C    3.962 --    26 C    1.399    20 C    1.378    61 H    0.963
    30   6 C    3.959 --    17 N    1.000    64 H    0.978    62 H    0.967
                            63 H    0.961
    31   6 C    3.232 --    32 C    1.126     3 C    1.032    65 H    0.966
    32   6 C    3.964 --    31 C    1.126    68 H    0.975    67 H    0.953
                            66 H    0.884
    33   6 C    2.990 --    70 H    0.995    69 H    0.994    71 H    0.994
    34   1 H    0.996 --     5 C    0.960
    35   1 H    0.994 --     8 C    0.974
    36   1 H    0.993 --     8 C    0.977
    37   1 H    0.995 --     8 C    0.974
    38   1 H    0.994 --    11 C    0.974
    39   1 H    0.993 --    11 C    0.977
    40   1 H    0.995 --    11 C    0.974
    41   1 H    0.996 --    12 C    0.964
    42   1 H    0.998 --    13 C    0.963
    43   1 H    0.995 --    14 C    0.971
    44   1 H    0.997 --    14 C    0.975
    45   1 H    0.995 --    15 C    0.962
    46   1 H    0.967 --    15 C    0.930
    47   1 H    0.986 --     2 C    0.905
    48   1 H    0.995 --    16 C    0.958
    49   1 H    0.991 --    18 C    0.964
    50   1 H    0.995 --    18 C    0.968
    51   1 H    0.996 --    19 C    0.972
    52   1 H    0.996 --    19 C    0.972
    53   1 H    0.998 --    21 C    0.968
    54   1 H    0.995 --    22 C    0.963
    55   1 H    0.993 --    25 C    0.973
    56   1 H    0.993 --    25 C    0.973
    57   1 H    0.993 --    25 C    0.977
    58   1 H    0.993 --    28 C    0.977
    59   1 H    0.994 --    28 C    0.974
    60   1 H    0.994 --    28 C    0.974
    61   1 H    0.997 --    29 C    0.963
    62   1 H    0.984 --    30 C    0.967
    63   1 H    0.987 --    30 C    0.961
    64   1 H    0.994 --    30 C    0.978
    65   1 H    0.995 --    31 C    0.966
    66   1 H    0.923 --    32 C    0.884
    67   1 H    0.972 --    32 C    0.953
    68   1 H    0.990 --    32 C    0.975
    69   1 H    0.996 --    33 C    0.994
    70   1 H    0.996 --    33 C    0.995
    71   1 H    0.996 --    33 C    0.994
    72   1 H    0.969 --     1 N    0.940
 ---------------------------------------------------------------------------

molecular dipole:
                 x           y           z       tot (Debye)
 q only:       -0.235       0.332      -0.469
   full:        0.121       0.431      -0.605       1.913

           -------------------------------------------------
          | TOTAL ENERGY              -99.264060783753 Eh   |
          | GRADIENT NORM               0.003101963346 Eh/α |
          | HOMO-LUMO GAP               0.169825434151 eV   |
           -------------------------------------------------

 * finished run on 2024/04/06 at 11:12:16.380
