   * xtb version 6.6.1 (8d0f1dd) compiled by 'conda@1efc2f54142f' on 2023-08-01
          program call               : xtb struc.xyz --opt loose --input .xc1 --gfn2

   ID    Z sym.   atoms
    1    6 C      1, 3, 5-7, 10, 11, 14
    2    7 N      2, 4, 9, 13
    3    8 O      8, 12
    4    1 H      15-25
constraining bond 5 25 to    4.1400000 Å, actual value:    2.1289605 Å

          :  Hamiltonian                  GFN2-xTB          :
 * total energy  :   -35.0240921 Eh     change       -0.6633627E-10 Eh
 * total energy  :   -38.0724654 Eh     change       -0.3048373E+01 Eh
 * total energy  :   -40.3790946 Eh     change       -0.2306629E+01 Eh
 * total energy  :   -41.5107390 Eh     change       -0.1131644E+01 Eh
 * total energy  :   -41.8155648 Eh     change       -0.3048258E+00 Eh
 * total energy  :   -41.8419878 Eh     change       -0.2642299E-01 Eh
 * total energy  :   -41.8557626 Eh     change       -0.1377483E-01 Eh
 * total energy  :   -41.8872162 Eh     change       -0.3145355E-01 Eh
 * total energy  :   -41.9158367 Eh     change       -0.2862054E-01 Eh
 * total energy  :   -41.9348882 Eh     change       -0.1905150E-01 Eh
 * total energy  :   -42.0792975 Eh     change       -0.1222288E-01 Eh
 * total energy  :   -42.0868450 Eh     change       -0.7547558E-02 Eh
 * total energy  :   -42.0892530 Eh     change       -0.2407976E-02 Eh
 * total energy  :   -42.0992321 Eh     change       -0.9979075E-02 Eh
 * total energy  :   -42.1015274 Eh     change       -0.2295350E-02 Eh
 * total energy  :   -42.1018316 Eh     change       -0.3041788E-03 Eh
 * total energy  :   -42.1020550 Eh     change       -0.2233765E-03 Eh
 * total energy  :   -42.1021176 Eh     change       -0.6263373E-04 Eh
 * total energy  :   -42.1021646 Eh     change       -0.4695026E-04 Eh
   *** GEOMETRY OPTIMIZATION CONVERGED AFTER 27 ITERATIONS ***

 final structure:
================
25
 xtb: 6.6.1 (8d0f1dd)
C            3.19559237554127        1.16576076183206        0.01414945803864
N            2.19871313343808        0.13351857314526       -0.00468833487509
C            2.41759041321749       -1.20888743267470       -0.00989496440406
N            1.31407228243867       -1.91574867211427       -0.00955029238210
C            0.30863486910582       -1.00397722775682       -0.00325101204564
C            0.85465097907096        0.29465990067703        0.00240000785879
C            0.02076611814254        1.47923969573751       -0.00266081791928
O            0.41966299817517        2.61968171412922       -0.01107303222117
N           -1.33277946221350        1.14870618288620        0.00078526294471
C           -2.29256647450919        2.24317600687943        0.00175445352156
C           -1.89442315514389       -0.11658595153815        0.00060901212388
O           -3.08273976758391       -0.28464834061177        0.00383595558620
N           -1.01214241288189       -1.22215364739798       -0.00488890862956
C           -1.56273678482787       -2.55175493310428       -0.00771630233167
H            3.70686073932643        1.17578938225482        0.97896942277853
H            3.93414561692178        0.98497434607347       -0.76710475719869
H            2.71660789364649        2.13092449603503       -0.14385557092212
H            3.39793551621423       -1.64275161682551       -0.01588690086524
H           -1.74124304657388        3.18034454609613        0.01152031797132
H           -2.92349353416021        2.18346326126785       -0.88541318659790
H           -2.93502230021051        2.17071855977787        0.87953861206717
H           -1.22011198241536       -3.09684172982739        0.87257489053701
H           -1.22732679038380       -3.09021569957488       -0.89507119346306
H           -2.64875542285701       -2.47410337592419       -0.00374841393347
H            2.54853971262208       -4.48505025784194        0.02983791226126

          :  Hamiltonian                  GFN2-xTB          :
         :: total energy             -42.102164557732 Eh    ::
         :: gradient norm              0.003276641689 Eh/a0 ::
         :: HOMO-LUMO gap              0.275157435564 eV    ::
         :: SCC energy               -42.614448709408 Eh    ::
         :: -> dispersion             -0.022458155218 Eh    ::
         :: repulsion energy           0.512190425224 Eh    ::

    * Orbital Energies and Occupations

         #    Occupation            Energy/Eh            Energy/eV
      -------------------------------------------------------------
         1        2.0000           -0.8926782             -24.2910
       ...           ...                  ...                  ...
        25        2.0000           -0.6649740             -18.0949
        26        2.0000           -0.6562521             -17.8575
        27        2.0000           -0.6398032             -17.4099
        28        2.0000           -0.6393201             -17.3968
        29        1.9999           -0.6266450             -17.0519
        30        1.9996           -0.6139924             -16.7076
        31        1.9993           -0.6093198             -16.5804
        32        1.9989           -0.6056332             -16.4801
        33        1.9953           -0.5943869             -16.1741
        34        1.9756           -0.5812071             -15.8155
        35        1.9419           -0.5742038             -15.6249
        36        1.9289           -0.5725565             -15.5801
        37        1.3870           -0.5528915             -15.0449 (HOMO)
        38        0.7737           -0.5427796             -14.7698 (LUMO)
        39        0.0000           -0.4288736             -11.6702
        40                         -0.3870326             -10.5317
        41                         -0.3735894             -10.1659
        42                         -0.2937426              -7.9931
        43                         -0.2040115              -5.5514
        44                         -0.1582884              -4.3072
        45                         -0.1346861              -3.6650
        46                         -0.0815958              -2.2203
        47                         -0.0558955              -1.5210
        48                         -0.0347470              -0.9455
       ...                                ...                  ...
        67                          0.5449064              14.8277
      -------------------------------------------------------------
                  HL-Gap            0.0101118 Eh            0.2752 eV

     #   Z          covCN         q      C6AA      α(0)
     1   6 C        3.690    -0.083    22.280     6.755
     2   7 N        2.828     0.053    20.309     6.693
     3   6 C        3.191     0.098    25.360     8.213
     4   7 N        1.891    -0.226    26.777     7.671
     5   6 C        3.169     0.136    24.699     8.120
     6   6 C        3.116    -0.002    27.902     8.652
     7   6 C        2.763     0.274    22.370     7.746
     8   8 O        0.858    -0.337    20.469     6.066
     9   7 N        2.745    -0.075    22.690     7.075
    10   6 C        3.709    -0.063    21.853     6.681
    11   6 C        2.727     0.317    21.613     7.611
    12   8 O        0.860    -0.333    20.383     6.053
    13   7 N        2.738    -0.012    21.485     6.884
    14   6 C        3.700    -0.075    22.093     6.722
    15   1 H        0.924     0.108     1.710     2.045
    16   1 H        0.925     0.105     1.738     2.061
    17   1 H        0.925     0.125     1.574     1.962
    18   1 H        0.926     0.104     1.749     2.068
    19   1 H        0.925     0.117     1.637     2.001
    20   1 H        0.924     0.107     1.720     2.051
    21   1 H        0.925     0.108     1.718     2.050
    22   1 H        0.924     0.114     1.660     2.015
    23   1 H        0.924     0.115     1.657     2.013
    24   1 H        0.925     0.128     1.547     1.945
    25   1 H        0.000     0.194     2.817     3.069

Wiberg/Mayer (AO) data.
largest (>0.10) Wiberg bond orders for each atom

     #   Z sym  total        # sym  WBO       # sym  WBO       # sym  WBO
 ---------------------------------------------------------------------------
     1   6 C    3.914 --     2 N    0.994    17 H    0.964    16 H    0.959
                            15 H    0.949
     2   7 N    3.640 --     6 C    1.253     3 C    1.236     1 C    0.994
     3   6 C    3.862 --     4 N    1.522     2 N    1.236    18 H    0.956
     4   7 N    3.009 --     3 C    1.522     5 C    1.249
     5   6 C    3.892 --     4 N    1.249    13 N    1.242     6 C    1.233
     6   6 C    3.796 --     2 N    1.253     5 C    1.233     7 C    1.062
     7   6 C    3.952 --     8 O    1.691     9 N    1.105     6 C    1.062
     8   8 O    1.991 --     7 C    1.691     9 N    0.137
     9   7 N    3.537 --    11 C    1.123     7 C    1.105    10 C    0.972
                             8 O    0.137    12 O    0.128
    10   6 C    3.892 --     9 N    0.972    19 H    0.967    21 H    0.954
                            20 H    0.954
    11   6 C    3.952 --    12 O    1.707     9 N    1.123    13 N    1.033
    12   8 O    2.006 --    11 C    1.707     9 N    0.128
    13   7 N    3.470 --     5 C    1.242    11 C    1.033    14 C    0.990
    14   6 C    3.893 --    13 N    0.990    24 H    0.964    22 H    0.944
                            23 H    0.944
    15   1 H    0.976 --     1 C    0.949
    16   1 H    0.981 --     1 C    0.959
    17   1 H    0.983 --     1 C    0.964
    18   1 H    0.988 --     3 C    0.956
    19   1 H    0.985 --    10 C    0.967
    20   1 H    0.972 --    10 C    0.954
    21   1 H    0.973 --    10 C    0.954
    22   1 H    0.962 --    14 C    0.944
    23   1 H    0.962 --    14 C    0.944
    24   1 H    0.983 --    14 C    0.964
    25   1 H    0.036
 ---------------------------------------------------------------------------

molecular dipole:
                 x           y           z       tot (Debye)
 q only:        1.975      -2.051       0.021
   full:        2.268      -1.928       0.027       7.568

           -------------------------------------------------
          | TOTAL ENERGY              -42.102164557732 Eh   |
          | GRADIENT NORM               0.003276641689 Eh/α |
          | HOMO-LUMO GAP               0.275157435564 eV   |
           -------------------------------------------------

 * finished run on 2024/06/05 at 19:57:59.333
