   * xtb version 6.6.1 (8d0f1dd) compiled by 'conda@1efc2f54142f' on 2023-08-01
          program call               : xtb struc.xyz --opt loose --input .xc1 --gfn2

   ID    Z sym.   atoms
    1    6 C      1, 3, 5-7, 10, 11, 14
    2    7 N      2, 4, 9, 13
    3    8 O      8, 12
    4    1 H      15-25
constraining bond 12 13 to    4.6800000 Å, actual value:    2.2702978 Å

          :  Hamiltonian                  GFN2-xTB          :
 * total energy  :    -0.7759144 Eh     change       -0.6650680E-10 Eh
 * total energy  :   -20.6223699 Eh     change       -0.1984646E+02 Eh
 * total energy  :   -32.3071874 Eh     change       -0.1168482E+02 Eh
 * total energy  :   -38.8677077 Eh     change       -0.6560520E+01 Eh
 * total energy  :   -41.2769033 Eh     change       -0.2409196E+01 Eh
 * total energy  :   -41.5810740 Eh     change       -0.3041706E+00 Eh
 * total energy  :   -41.6253910 Eh     change       -0.4431699E-01 Eh
 * total energy  :   -41.6678418 Eh     change       -0.4245086E-01 Eh
 * total energy  :   -41.6852500 Eh     change       -0.1740815E-01 Eh
 * total energy  :   -41.7219286 Eh     change       -0.3667861E-01 Eh
 * total energy  :   -42.1407508 Eh     change       -0.9482327E-03 Eh
 * total energy  :   -42.1415765 Eh     change       -0.8257092E-03 Eh
 * total energy  :   -42.1423527 Eh     change       -0.7761268E-03 Eh
 * total energy  :   -42.1428188 Eh     change       -0.4660876E-03 Eh
 * total energy  :   -42.1428299 Eh     change       -0.1111886E-04 Eh
 * total energy  :   -42.1431134 Eh     change       -0.2835369E-03 Eh
 * total energy  :   -42.1431742 Eh     change       -0.6082844E-04 Eh
 * total energy  :   -42.1432492 Eh     change       -0.7495561E-04 Eh
 * total energy  :   -42.1432768 Eh     change       -0.2764422E-04 Eh
   *** GEOMETRY OPTIMIZATION CONVERGED AFTER 103 ITERATIONS ***

 final structure:
================
25
 xtb: 6.6.1 (8d0f1dd)
C            2.95571392708002        1.29683581539040       -0.32953590619038
N            2.22958209032326        0.06984528666759       -0.14484960695792
C            2.78586507772271       -1.10956088266812        0.02418655618697
N            1.85260217024001       -2.04589602131313        0.17027609586497
C            0.56711871265794       -1.48935392014786        0.10415202237727
C            0.82611491047957       -0.07011816870196       -0.12365811085189
C            0.06428435326038        1.08947515075683       -0.25350728637782
O            0.38452046983089        2.24511966728554       -0.32280274634924
N           -1.50291569552305        0.87033029075767       -0.31058144425623
C           -2.16901437554363        1.29134860596173        0.92402200936527
C           -2.02617957935307        0.89253234369274       -1.44205420182132
O           -2.37896544051557        0.86212863235372       -2.53457855730856
N           -0.39136648130208       -2.30354645970085        0.28071872608439
C           -1.79841561288895       -2.13634878227761        0.26452225670806
H            2.74093721237250        1.99276048617706        0.48246702906380
H            4.02102596289210        1.08005886673389       -0.34976139984526
H            2.66506732237984        1.77659977817549       -1.26446917634229
H            3.84507132560648       -1.28732756776009        0.04092375240311
H           -2.02605566868866        2.36379005319502        1.07025729503156
H           -3.23246028751966        1.06766268139280        0.87260363735970
H           -1.71217911801528        0.75613643258554        1.75546064775880
H           -2.14345565446302       -1.46844945447789        1.05707626976038
H           -2.22817512008000       -3.12302139639154        0.44030966043764
H           -2.16279982159678       -1.76899125068694       -0.69884301306404
H            1.99451083473662       -3.03377164540398        0.31883710886213

          :  Hamiltonian                  GFN2-xTB          :
         :: total energy             -42.143276840345 Eh    ::
         :: gradient norm              0.002655860565 Eh/a0 ::
         :: HOMO-LUMO gap              1.937884396530 eV    ::
         :: SCC energy               -42.707999196831 Eh    ::
         :: -> dispersion             -0.022353788876 Eh    ::
         :: repulsion energy           0.564463728533 Eh    ::

    * Orbital Energies and Occupations

         #    Occupation            Energy/Eh            Energy/eV
      -------------------------------------------------------------
         1        2.0000           -0.9360743             -25.4719
       ...           ...                  ...                  ...
        25        2.0000           -0.6725919             -18.3022
        26        2.0000           -0.6709135             -18.2565
        27        2.0000           -0.6552034             -17.8290
        28        2.0000           -0.6455679             -17.5668
        29        1.9999           -0.6429463             -17.4955
        30        1.9999           -0.6315739             -17.1860
        31        1.9997           -0.6156333             -16.7522
        32        1.9994           -0.6043943             -16.4464
        33        1.9993           -0.6006910             -16.3456
        34        1.9988           -0.5926585             -16.1271
        35        1.9978           -0.5839429             -15.8899
        36        1.8627           -0.5170207             -14.0688
        37        1.8403           -0.5144461             -13.9988 (HOMO)
        38        0.2275           -0.4432301             -12.0609 (LUMO)
        39        0.0657           -0.4221853             -11.4882
        40        0.0060           -0.3837567             -10.4426
        41        0.0031           -0.3731445             -10.1538
        42        0.0000           -0.2986665              -8.1271
        43        0.0000           -0.2516156              -6.8468
        44                         -0.1703558              -4.6356
        45                         -0.1340366              -3.6473
        46                         -0.1032900              -2.8107
        47                         -0.0714861              -1.9452
        48                         -0.0446065              -1.2138
       ...                                ...                  ...
        67                          0.9919510              26.9924
      -------------------------------------------------------------
                  HL-Gap            0.0712159 Eh            1.9379 eV

     #   Z          covCN         q      C6AA      α(0)
     1   6 C        3.694    -0.083    22.276     6.753
     2   7 N        2.819     0.060    20.187     6.673
     3   6 C        2.961     0.077    26.288     8.410
     4   7 N        2.804    -0.074    22.680     7.073
     5   6 C        2.922     0.141    24.938     8.189
     6   6 C        3.035    -0.048    29.155     8.857
     7   6 C        2.748     0.254    22.721     7.805
     8   8 O        0.857    -0.337    20.465     6.065
     9   7 N        2.707    -0.052    22.255     7.006
    10   6 C        3.698    -0.058    21.781     6.675
    11   6 C        1.796     0.324    23.957     7.910
    12   8 O        0.856    -0.117    16.772     5.491
    13   7 N        1.839    -0.221    26.655     7.651
    14   6 C        3.689    -0.036    21.408     6.622
    15   1 H        0.924     0.114     1.665     2.018
    16   1 H        0.925     0.094     1.838     2.120
    17   1 H        0.924     0.111     1.691     2.033
    18   1 H        0.926     0.115     1.657     2.013
    19   1 H        0.924     0.111     1.687     2.031
    20   1 H        0.925     0.098     1.805     2.101
    21   1 H        0.925     0.099     1.793     2.094
    22   1 H        0.924     0.058     2.224     2.332
    23   1 H        0.924     0.092     1.856     2.131
    24   1 H        0.924     0.048     2.341     2.393
    25   1 H        0.860     0.231     0.963     1.537

Wiberg/Mayer (AO) data.
largest (>0.10) Wiberg bond orders for each atom

     #   Z sym  total        # sym  WBO       # sym  WBO       # sym  WBO
 ---------------------------------------------------------------------------
     1   6 C    3.930 --     2 N    0.992    16 H    0.974    17 H    0.959
                            15 H    0.957
     2   7 N    3.661 --     3 C    1.418     6 C    1.072     1 C    0.992
                             4 N    0.112
     3   6 C    3.891 --     2 N    1.418     4 N    1.331    18 H    0.950
     4   7 N    3.562 --     3 C    1.331     5 C    1.073    25 H    0.919
                             2 N    0.112
     5   6 C    3.940 --    13 N    1.626     6 C    1.109     4 N    1.073
     6   6 C    3.814 --     7 C    1.293     5 C    1.109     2 N    1.072
                             8 O    0.118
     7   6 C    3.856 --     8 O    1.729     6 C    1.293     9 N    0.685
     8   8 O    2.107 --     7 C    1.729     6 C    0.118
     9   7 N    3.534 --    11 C    1.582    10 C    0.928     7 C    0.685
                            12 O    0.238
    10   6 C    3.895 --    20 H    0.975    21 H    0.972    19 H    0.964
                             9 N    0.928
    11   6 C    3.756 --    12 O    2.068     9 N    1.582
    12   8 O    2.399 --    11 C    2.068     9 N    0.238
    13   7 N    2.941 --     5 C    1.626    14 C    1.046
    14   6 C    3.950 --    13 N    1.046    23 H    0.964    24 H    0.953
                            22 H    0.950
    15   1 H    0.984 --     1 C    0.957
    16   1 H    0.990 --     1 C    0.974
    17   1 H    0.985 --     1 C    0.959
    18   1 H    0.985 --     3 C    0.950
    19   1 H    0.987 --    10 C    0.964
    20   1 H    0.989 --    10 C    0.975
    21   1 H    0.990 --    10 C    0.972
    22   1 H    0.978 --    14 C    0.950
    23   1 H    0.976 --    14 C    0.964
    24   1 H    0.980 --    14 C    0.953
    25   1 H    0.946 --     4 N    0.919
 ---------------------------------------------------------------------------

molecular dipole:
                 x           y           z       tot (Debye)
 q only:        1.150      -0.771       0.380
   full:        1.159      -0.732       0.327       3.581

           -------------------------------------------------
          | TOTAL ENERGY              -42.143276840345 Eh   |
          | GRADIENT NORM               0.002655860565 Eh/α |
          | HOMO-LUMO GAP               1.937884396530 eV   |
           -------------------------------------------------

 * finished run on 2024/06/05 at 20:00:20.710
