   * xtb version 6.6.1 (8d0f1dd) compiled by 'conda@1efc2f54142f' on 2023-08-01
          program call               : xtb xtbopt.xyz --opt crude --input .xc2 --gfn2

   ID    Z sym.   atoms
    1    6 C      1, 3, 5-7, 10, 11, 14
    2    7 N      2, 4, 9, 13
    3    8 O      8, 12
    4    1 H      15-25

          :  Hamiltonian                  GFN2-xTB          :
 * total energy  :   -42.0744675 Eh     change       -0.2842171E-13 Eh
 * total energy  :   -42.1615477 Eh     change       -0.8708018E-01 Eh
 * total energy  :   -42.2368607 Eh     change       -0.7531305E-01 Eh
 * total energy  :   -42.2445547 Eh     change       -0.7693934E-02 Eh
 * total energy  :   -42.2466897 Eh     change       -0.2135036E-02 Eh
 * total energy  :   -42.2331189 Eh     change        0.1357083E-01 Eh
 * total energy  :   -42.2462428 Eh     change       -0.1312393E-01 Eh
 * total energy  :   -42.2177080 Eh     change        0.2853476E-01 Eh
 * total energy  :   -42.2449427 Eh     change       -0.2723463E-01 Eh
 * total energy  :   -42.2436254 Eh     change        0.1317239E-02 Eh
 * total energy  :   -42.2478492 Eh     change       -0.4223753E-02 Eh
 * total energy  :   -42.2476822 Eh     change        0.1670293E-03 Eh
 * total energy  :   -42.2479097 Eh     change       -0.2275534E-03 Eh
   *** GEOMETRY OPTIMIZATION CONVERGED AFTER 13 ITERATIONS ***

 final structure:
================
25
 xtb: 6.6.1 (8d0f1dd)
C            3.22105489282705        1.13639229475288        0.01648115764213
N            2.27135039811284        0.05530710078377        0.00023493491119
C            2.54220163605214       -1.24182800245429       -0.00594116769141
N            1.39014001621201       -1.95133835256835       -0.00324022011698
C            0.35227733092152       -1.06603470770485        0.00476209810669
C            0.90652775055748        0.20311538287873        0.00825549544626
C            0.07647194838734        1.39665956064805       -0.00301432156131
O            0.48282627494818        2.53337672923891       -0.01990052953510
N           -1.27551801918341        1.06604261542703        0.00302757708346
C           -2.23259135189542        2.16635668600105       -0.00279937173466
C           -1.85024519560431       -0.19278994808212        0.00804279294591
O           -3.03571996540468       -0.36179444711101        0.01217111823563
N           -0.96848035660975       -1.29893149642891        0.00770966795973
C           -1.51837233938116       -2.64032971909360       -0.00945436641663
H            3.72114730874129        1.18528269433401        0.98479702745069
H            3.97166922050194        0.99274922415168       -0.75949952140511
H            2.68872413526329        2.07224882262413       -0.15170833490400
H            3.52409344865477       -1.67267439128465       -0.01328447710255
H           -1.67560632980018        3.09981101800974        0.00346096532908
H           -2.85875048066290        2.10565232318727       -0.89217121087864
H           -2.87377767481739        2.10099229204056        0.87536094315280
H           -1.20239513495545       -3.19337832994199        0.87658521482512
H           -1.21434789827223       -3.17020613571429       -0.91035894588259
H           -2.60413546331111       -2.54716037899057        0.01049342591342
H            1.32188736281786       -2.95928229310320       -0.00883833387307

          :  Hamiltonian                  GFN2-xTB          :
         :: total energy             -42.247909719591 Eh    ::
         :: gradient norm              0.003308843982 Eh/a0 ::
         :: HOMO-LUMO gap              3.304703333093 eV    ::
         :: SCC energy               -42.776752286426 Eh    ::
         :: -> dispersion             -0.022652578321 Eh    ::
         :: repulsion energy           0.528728704701 Eh    ::

    * Orbital Energies and Occupations

         #    Occupation            Energy/Eh            Energy/eV
      -------------------------------------------------------------
         1        2.0000           -0.9181518             -24.9842
       ...           ...                  ...                  ...
        25        2.0000           -0.6689825             -18.2039
        26        2.0000           -0.6656475             -18.1132
        27        1.9999           -0.6572868             -17.8857
        28        1.9998           -0.6364050             -17.3175
        29        1.9997           -0.6314407             -17.1824
        30        1.9996           -0.6257790             -17.0283
        31        1.9996           -0.6228610             -16.9489
        32        1.9994           -0.6192316             -16.8501
        33        1.9978           -0.5972871             -16.2530
        34        1.9927           -0.5786551             -15.7460
        35        1.9807           -0.5630834             -15.3223
        36        1.9763           -0.5597884             -15.2326
        37        1.9742           -0.5584083             -15.1951 (HOMO)
        38        0.0689           -0.4369627             -11.8904 (LUMO)
        39        0.0100           -0.4059918             -11.0476
        40        0.0013           -0.3730727             -10.1518
        41        0.0000           -0.2889435              -7.8626
        42                         -0.2064187              -5.6169
        43                         -0.2004099              -5.4534
        44                         -0.1468174              -3.9951
        45                         -0.1325130              -3.6059
        46                         -0.0827163              -2.2508
        47                         -0.0490358              -1.3343
        48                         -0.0364631              -0.9922
       ...                                ...                  ...
        67                          0.5581916              15.1892
      -------------------------------------------------------------
                  HL-Gap            0.1214456 Eh            3.3047 eV

     #   Z          covCN         q      C6AA      α(0)
     1   6 C        3.692    -0.096    22.527     6.792
     2   7 N        2.835     0.089    19.702     6.592
     3   6 C        3.061     0.052    26.779     8.486
     4   7 N        2.798    -0.059    22.369     7.025
     5   6 C        3.045     0.116    25.408     8.267
     6   6 C        3.127    -0.024    28.409     8.727
     7   6 C        2.764     0.274    22.369     7.746
     8   8 O        0.858    -0.363    20.962     6.138
     9   7 N        2.745    -0.084    22.873     7.103
    10   6 C        3.710    -0.062    21.840     6.679
    11   6 C        2.728     0.318    21.593     7.607
    12   8 O        0.859    -0.353    20.764     6.109
    13   7 N        2.738    -0.058    22.363     7.023
    14   6 C        3.696    -0.072    22.062     6.719
    15   1 H        0.924     0.111     1.687     2.031
    16   1 H        0.925     0.107     1.721     2.051
    17   1 H        0.925     0.139     1.470     1.896
    18   1 H        0.926     0.127     1.554     1.949
    19   1 H        0.925     0.114     1.666     2.018
    20   1 H        0.925     0.099     1.791     2.093
    21   1 H        0.925     0.100     1.786     2.090
    22   1 H        0.924     0.082     1.958     2.188
    23   1 H        0.925     0.083     1.948     2.183
    24   1 H        0.925     0.129     1.545     1.944
    25   1 H        0.860     0.232     0.958     1.533

Wiberg/Mayer (AO) data.
largest (>0.10) Wiberg bond orders for each atom

     #   Z sym  total        # sym  WBO       # sym  WBO       # sym  WBO
 ---------------------------------------------------------------------------
     1   6 C    3.912 --     2 N    0.984    16 H    0.963    17 H    0.960
                            15 H    0.955
     2   7 N    3.697 --     3 C    1.404     6 C    1.168     1 C    0.984
     3   6 C    3.869 --     2 N    1.404     4 N    1.272    18 H    0.952
     4   7 N    3.593 --     3 C    1.272     5 C    1.190    25 H    0.918
     5   6 C    3.952 --     6 C    1.353    13 N    1.221     4 N    1.190
     6   6 C    3.913 --     5 C    1.353     2 N    1.168     7 C    1.059
     7   6 C    3.952 --     8 O    1.691     9 N    1.110     6 C    1.059
     8   8 O    2.040 --     7 C    1.691     9 N    0.151
     9   7 N    3.557 --    11 C    1.122     7 C    1.110    10 C    0.968
                             8 O    0.151    12 O    0.135
    10   6 C    3.910 --    19 H    0.968     9 N    0.968    21 H    0.963
                            20 H    0.963
    11   6 C    3.957 --    12 O    1.714     9 N    1.122    13 N    1.030
    12   8 O    2.064 --    11 C    1.714     9 N    0.135    13 N    0.122
    13   7 N    3.553 --     5 C    1.221    11 C    1.030    14 C    0.974
                            12 O    0.122
    14   6 C    3.923 --    13 N    0.974    22 H    0.971    23 H    0.971
                            24 H    0.963
    15   1 H    0.985 --     1 C    0.955
    16   1 H    0.986 --     1 C    0.963
    17   1 H    0.980 --     1 C    0.960
    18   1 H    0.983 --     3 C    0.952
    19   1 H    0.985 --    10 C    0.968
    20   1 H    0.984 --    10 C    0.963
    21   1 H    0.984 --    10 C    0.963
    22   1 H    0.990 --    14 C    0.971
    23   1 H    0.990 --    14 C    0.971
    24   1 H    0.983 --    14 C    0.963
    25   1 H    0.946 --     4 N    0.918
 ---------------------------------------------------------------------------

molecular dipole:
                 x           y           z       tot (Debye)
 q only:        2.597      -2.017       0.007
   full:        2.888      -2.544       0.012       9.782

           -------------------------------------------------
          | TOTAL ENERGY              -42.247909719591 Eh   |
          | GRADIENT NORM               0.003308843982 Eh/α |
          | HOMO-LUMO GAP               3.304703333093 eV   |
           -------------------------------------------------

 * finished run on 2024/06/05 at 19:58:02.230
