   * xtb version 6.6.1 (8d0f1dd) compiled by 'conda@1efc2f54142f' on 2023-08-01
          program call               : xtb struc.xyz --opt loose --input .xc1 --gfn2

   ID    Z sym.   atoms
    1    7 N      1, 17
    2    6 C      2-6, 8, 9, 11-16, 18-23, 25, 26, 28-33
    3    8 O      7, 10, 24, 27
    4    1 H      34-72
constraining bond 4 13 to    4.0000000 Å, actual value:    1.3824102 Å

          :  Hamiltonian                  GFN2-xTB          :
 * total energy  :   -98.1807243 Eh     change       -0.4035485E-08 Eh
 * total energy  :   -98.3657980 Eh     change       -0.1850737E+00 Eh
 * total energy  :   -98.5605520 Eh     change       -0.1947540E+00 Eh
 * total energy  :   -98.7527963 Eh     change       -0.1922443E+00 Eh
 * total energy  :   -98.9397687 Eh     change       -0.1869724E+00 Eh
 * total energy  :   -99.0370387 Eh     change       -0.9726996E-01 Eh
 * total energy  :   -99.0638821 Eh     change       -0.2684347E-01 Eh
 * total energy  :   -99.0849462 Eh     change       -0.2106411E-01 Eh
 * total energy  :   -99.0979135 Eh     change       -0.1296724E-01 Eh
 * total energy  :   -99.1078857 Eh     change       -0.9972228E-02 Eh
 * total energy  :   -99.3314739 Eh     change       -0.6587878E-04 Eh
 * total energy  :   -99.3315423 Eh     change       -0.6836313E-04 Eh
 * total energy  :   -99.3316220 Eh     change       -0.7976501E-04 Eh
 * total energy  :   -99.3317149 Eh     change       -0.9285776E-04 Eh
 * total energy  :   -99.3318063 Eh     change       -0.9135543E-04 Eh
 * total energy  :   -99.3318985 Eh     change       -0.9226090E-04 Eh
 * total energy  :   -99.3319676 Eh     change       -0.6905273E-04 Eh
 * total energy  :   -99.3320230 Eh     change       -0.5538228E-04 Eh
 * total energy  :   -99.3320677 Eh     change       -0.4474871E-04 Eh
   *** GEOMETRY OPTIMIZATION CONVERGED AFTER 143 ITERATIONS ***

 final structure:
================
72
 xtb: 6.6.1 (8d0f1dd)
N           -0.81117782287546        1.76870458266416        0.63516822678481
C           -2.06520813643940        1.97990580288696        1.01192029582179
C           -3.20763745635692        1.97679218643469        0.06046000558709
C           -3.86478701889276        0.62806743970643        0.28230222693640
C           -4.39628190107489       -0.16238573487827       -0.66006028540606
C           -4.96297670842034       -1.47281454966003       -0.45252524365730
O           -6.00674083733592       -1.88668070962276       -1.21996874504242
C           -6.70674748634188       -0.95941026424391       -2.01187340400076
C           -4.53060048691052       -2.43931743021269        0.44163235800022
O           -5.28461759465722       -3.57159482485177        0.46681773335733
C           -4.84584419921808       -4.67717473816217        1.21536655236413
C           -3.37063682818256       -2.39065451978479        1.23897450655624
C           -2.44174174107932       -2.67295634539453        1.96108172694380
C           -2.65397259776084        2.13335180089239       -1.36454828529431
C           -1.54265951508495        1.12207204455112       -1.61996855091736
C           -0.34145114674626        1.41904366109658       -0.71885707471129
N            0.58488383211144        0.33966754062425       -0.67080476323674
C            1.96496460188805        0.61553197626771       -0.32974643058991
C            2.91190984216565       -0.12432123713404       -1.29249284047141
C            4.34274953181635        0.01120021854604       -0.85799719642813
C            5.05872643146456        1.17065056260169       -1.11481007594913
C            6.37539448461959        1.30163094342679       -0.70103549936946
C            7.00743090657118        0.27071345990461       -0.02020802720726
O            8.28074049411181        0.27970868305574        0.42053010922166
C            9.08780060330294        1.40721790414198        0.17273154213663
C            6.28235579184622       -0.92189040973408        0.25042618818765
O            6.97346824127512       -1.87558331927197        0.90889429315055
C            6.35693313697909       -3.11212939697705        1.17513499988191
C            4.96475549180497       -1.02558541443917       -0.16689096136253
C            0.07504505436238       -0.94602687707735       -0.22604891362253
C           -4.22935531461131        3.11587716009820        0.38156036023502
C           -5.01285029178699        2.85936507208622        1.66896391025690
C           -3.54992202185900        4.48224578471891        0.46635514922685
H           -4.48541490137113        0.20292280339360       -1.67373166336424
H           -6.94777070052862       -0.04836051935633       -1.45528771675740
H           -7.62831757876716       -1.46211798582659       -2.30337229716005
H           -6.14893789242484       -0.69840046543109       -2.91803585574251
H           -4.78348392873863       -4.44227233500430        2.28272339589382
H           -5.59402565797203       -5.45107993490496        1.05308771003934
H           -3.86812270990850       -5.03165011821317        0.87381365774935
H           -3.84103478643456        0.26798214891933        1.30146203528945
H           -1.60716313899007       -2.75650242962931        2.59261022040172
H           -3.45274309754287        2.01480900104899       -2.09518225658747
H           -2.25125404680771        3.13915011737159       -1.48248070741196
H           -1.90883981351372        0.11535005824600       -1.42662748086862
H           -1.21024708317020        1.17000614545683       -2.65652854175738
H           -2.25213888370086        2.07558859104057        2.07095870641030
H            0.18656997763696        2.30085118575826       -1.10874287922668
H            2.19622603954536        0.30638803982551        0.70071229508020
H            2.15080566413078        1.68850373359465       -0.40650492007791
H            2.77953765259016        0.28925931241927       -2.29276399047846
H            2.63118680334129       -1.17698424228769       -1.32142055390155
H            4.59398383469945        1.98135492258358       -1.65494202010120
H            6.90718176648027        2.21282847288714       -0.92154109556988
H            8.68528670280778        2.30285438364972        0.65596301590916
H            9.20219343564859        1.59058158190095       -0.90004678163341
H           10.05874660622019        1.17055960975391        0.60390129323583
H            7.11389515776972       -3.71448042616426        1.67388785776628
H            5.49331372577842       -2.99621929774849        1.83804681916906
H            6.04584238566536       -3.61255282000679        0.25285496505218
H            4.40821479412078       -1.92870635451689        0.02925812516175
H           -0.17243383666822       -1.57772152123865       -1.08189306638013
H           -0.82034935719926       -0.83688596341741        0.39234662677836
H            0.83297092453064       -1.45827066586457        0.36348390702174
H           -4.94310562711622        3.12832056559465       -0.44922235829714
H           -4.35832284570985        2.86364871249387        2.53754517895561
H           -5.54032406053767        1.91014870026447        1.63162863670220
H           -5.74868225391646        3.64738148296539        1.80524500819885
H           -2.77412982319121        4.48027460552101        1.23047696896738
H           -3.10479948668159        4.77865391801059       -0.48009988100849
H           -4.28665177437341        5.23603911569186        0.73221712700979
H           -0.09309592905569        1.73966634099264        1.34698147364722

          :  Hamiltonian                  GFN2-xTB          :
         :: total energy             -99.332067707403 Eh    ::
         :: gradient norm              0.003763148445 Eh/a0 ::
         :: HOMO-LUMO gap              1.327429821375 eV    ::
         :: SCC energy              -100.727239097091 Eh    ::
         :: -> dispersion             -0.072726896938 Eh    ::
         :: repulsion energy           1.394031085839 Eh    ::

    * Orbital Energies and Occupations

         #    Occupation            Energy/Eh            Energy/eV
      -------------------------------------------------------------
         1        2.0000           -0.8087956             -22.0084
       ...           ...                  ...                  ...
        78        1.9990           -0.5313703             -14.4593
        79        1.9988           -0.5280200             -14.3682
        80        1.9986           -0.5258502             -14.3091
        81        1.9985           -0.5241613             -14.2632
        82        1.9984           -0.5238979             -14.2560
        83        1.9979           -0.5188758             -14.1193
        84        1.9978           -0.5187370             -14.1156
        85        1.9967           -0.5120913             -13.9347
        86        1.9965           -0.5109951             -13.9049
        87        1.9756           -0.4801834             -13.0665
        88        1.9465           -0.4674911             -12.7211
        89        1.8182           -0.4470536             -12.1649
        90        1.7456           -0.4410921             -12.0027 (HOMO)
        91        0.4792           -0.3923099             -10.6753 (LUMO)
        92        0.0536           -0.3537317              -9.6255
        93        0.0023           -0.3031125              -8.2481
        94        0.0020           -0.3010931              -8.1932
        95        0.0006           -0.2829022              -7.6982
        96        0.0005           -0.2793231              -7.6008
        97        0.0000           -0.1959042              -5.3308
        98        0.0000           -0.1783058              -4.8519
        99                         -0.1326210              -3.6088
       100                         -0.1129079              -3.0724
       101                         -0.0801122              -2.1800
       ...                                ...                  ...
       171                          1.2546461              34.1407
      -------------------------------------------------------------
                  HL-Gap            0.0487821 Eh            1.3274 eV

     #   Z          covCN         q      C6AA      α(0)
     1   7 N        2.683    -0.105    23.310     7.171
     2   6 C        2.853     0.028    27.376     8.576
     3   6 C        3.907     0.019    20.193     6.387
     4   6 C        2.918    -0.043    29.056     8.839
     5   6 C        2.890    -0.060    29.502     8.905
     6   6 C        2.843     0.120    25.352     8.252
     7   8 O        1.708    -0.229    17.800     5.696
     8   6 C        3.640     0.030    20.431     6.500
     9   6 C        2.840     0.135    25.036     8.200
    10   8 O        1.707    -0.222    17.681     5.677
    11   6 C        3.642     0.028    20.455     6.502
    12   6 C        1.966    -0.032    31.925     9.125
    13   6 C        1.910    -0.087    33.507     9.348
    14   6 C        3.814    -0.069    21.811     6.647
    15   6 C        3.807    -0.078    21.976     6.673
    16   6 C        3.734     0.093    19.124     6.241
    17   7 N        2.731    -0.147    24.183     7.304
    18   6 C        3.746     0.002    20.619     6.477
    19   6 C        3.809    -0.075    21.922     6.665
    20   6 C        2.967     0.005    27.911     8.666
    21   6 C        2.922    -0.048    29.180     8.858
    22   6 C        2.913    -0.067    29.676     8.933
    23   6 C        2.864     0.132    25.107     8.213
    24   8 O        1.706    -0.224    17.716     5.683
    25   6 C        3.645     0.026    20.473     6.503
    26   6 C        2.863     0.132    25.105     8.213
    27   8 O        1.706    -0.226    17.756     5.689
    28   6 C        3.645     0.028    20.436     6.497
    29   6 C        2.920    -0.078    29.949     8.974
    30   6 C        3.696    -0.050    21.643     6.655
    31   6 C        3.852    -0.016    20.817     6.489
    32   6 C        3.755    -0.115    22.749     6.801
    33   6 C        3.755    -0.114    22.737     6.799
    34   1 H        0.926     0.062     2.176     2.307
    35   1 H        0.924     0.050     2.324     2.384
    36   1 H        0.925     0.081     1.967     2.193
    37   1 H        0.924     0.051     2.310     2.377
    38   1 H        0.924     0.054     2.273     2.358
    39   1 H        0.925     0.082     1.961     2.190
    40   1 H        0.924     0.052     2.292     2.367
    41   1 H        0.926     0.043     2.403     2.424
    42   1 H        0.928     0.093     1.854     2.129
    43   1 H        0.925     0.057     2.231     2.336
    44   1 H        0.925     0.056     2.249     2.345
    45   1 H        0.925     0.063     2.162     2.299
    46   1 H        0.925     0.066     2.128     2.281
    47   1 H        0.926     0.067     2.117     2.275
    48   1 H        0.923     0.064     2.156     2.296
    49   1 H        0.923     0.028     2.612     2.527
    50   1 H        0.924     0.043     2.413     2.429
    51   1 H        0.924     0.059     2.214     2.327
    52   1 H        0.925     0.056     2.245     2.343
    53   1 H        0.926     0.046     2.370     2.407
    54   1 H        0.926     0.056     2.241     2.341
    55   1 H        0.924     0.053     2.281     2.362
    56   1 H        0.924     0.055     2.258     2.350
    57   1 H        0.925     0.081     1.971     2.196
    58   1 H        0.925     0.080     1.979     2.200
    59   1 H        0.924     0.048     2.347     2.396
    60   1 H        0.924     0.052     2.291     2.367
    61   1 H        0.926     0.048     2.348     2.396
    62   1 H        0.924     0.054     2.267     2.355
    63   1 H        0.924     0.038     2.475     2.460
    64   1 H        0.925     0.056     2.249     2.345
    65   1 H        0.924     0.047     2.357     2.401
    66   1 H        0.925     0.040     2.443     2.444
    67   1 H        0.925     0.044     2.392     2.418
    68   1 H        0.925     0.056     2.251     2.346
    69   1 H        0.925     0.038     2.470     2.458
    70   1 H        0.925     0.041     2.435     2.440
    71   1 H        0.925     0.058     2.220     2.330
    72   1 H        0.860     0.187     1.174     1.697

Wiberg/Mayer (AO) data.
largest (>0.10) Wiberg bond orders for each atom

     #   Z sym  total        # sym  WBO       # sym  WBO       # sym  WBO
 ---------------------------------------------------------------------------
     1   7 N    3.383 --     2 C    1.412    72 H    0.934    16 C    0.926
     2   6 C    3.521 --     1 N    1.412     3 C    1.023    47 H    0.957
     3   6 C    3.982 --     2 C    1.023    14 C    0.980     4 C    0.963
                            31 C    0.925
     4   6 C    3.877 --     5 C    1.758     3 C    0.963    41 H    0.961
     5   6 C    3.953 --     4 C    1.758     6 C    1.130    34 H    0.946
     6   6 C    3.830 --     9 C    1.406     5 C    1.130     7 O    1.087
     7   8 O    2.229 --     6 C    1.087     8 C    0.981
     8   6 C    3.931 --     7 O    0.981    35 H    0.975    36 H    0.975
                            37 H    0.970
     9   6 C    3.815 --     6 C    1.406    12 C    1.140    10 O    1.076
    10   8 O    2.233 --     9 C    1.076    11 C    0.981
    11   6 C    3.929 --    10 O    0.981    39 H    0.976    40 H    0.973
                            38 H    0.972
    12   6 C    3.966 --    13 C    2.761     9 C    1.140
    13   6 C    3.891 --    12 C    2.761    42 H    0.969
    14   6 C    3.991 --    15 C    1.007     3 C    0.980    43 H    0.969
                            44 H    0.968
    15   6 C    3.985 --    14 C    1.007    16 C    0.984    46 H    0.972
                            45 H    0.966
    16   6 C    3.956 --    17 N    1.034    15 C    0.984    48 H    0.943
                             1 N    0.926
    17   7 N    3.174 --    16 C    1.034    30 C    1.004    18 C    0.999
    18   6 C    3.970 --    17 N    0.999    19 C    0.975    50 H    0.972
                            49 H    0.965
    19   6 C    3.984 --    20 C    1.012    18 C    0.975    52 H    0.971
                            51 H    0.969
    20   6 C    3.940 --    21 C    1.403    29 C    1.383    19 C    1.012
    21   6 C    3.943 --    22 C    1.420    20 C    1.403    53 H    0.968
    22   6 C    3.958 --    21 C    1.420    23 C    1.381    54 H    0.963
    23   6 C    3.888 --    22 C    1.381    26 C    1.221    24 O    1.106
    24   8 O    2.247 --    23 C    1.106    25 C    0.977
    25   6 C    3.929 --    24 O    0.977    57 H    0.977    55 H    0.973
                            56 H    0.973
    26   6 C    3.892 --    29 C    1.393    23 C    1.221    27 O    1.100
    27   8 O    2.248 --    26 C    1.100    28 C    0.979
    28   6 C    3.933 --    27 O    0.979    58 H    0.977    59 H    0.973
                            60 H    0.973
    29   6 C    3.959 --    26 C    1.393    20 C    1.383    61 H    0.962
    30   6 C    3.974 --    17 N    1.004    64 H    0.978    62 H    0.976
                            63 H    0.976
    31   6 C    3.962 --    32 C    1.010    33 C    1.009    65 H    0.966
                             3 C    0.925
    32   6 C    3.991 --    31 C    1.010    66 H    0.984    68 H    0.982
                            67 H    0.981
    33   6 C    3.989 --    31 C    1.009    69 H    0.983    70 H    0.981
                            71 H    0.981
    34   1 H    0.993 --     5 C    0.946
    35   1 H    0.993 --     8 C    0.975
    36   1 H    0.992 --     8 C    0.975
    37   1 H    0.990 --     8 C    0.970
    38   1 H    0.990 --    11 C    0.972
    39   1 H    0.993 --    11 C    0.976
    40   1 H    0.990 --    11 C    0.973
    41   1 H    0.998 --     4 C    0.961
    42   1 H    0.991 --    13 C    0.969
    43   1 H    0.996 --    14 C    0.969
    44   1 H    0.996 --    14 C    0.968
    45   1 H    0.996 --    15 C    0.966
    46   1 H    0.995 --    15 C    0.972
    47   1 H    0.994 --     2 C    0.957
    48   1 H    0.987 --    16 C    0.943
    49   1 H    0.993 --    18 C    0.965
    50   1 H    0.998 --    18 C    0.972
    51   1 H    0.994 --    19 C    0.969
    52   1 H    0.996 --    19 C    0.971
    53   1 H    0.997 --    21 C    0.968
    54   1 H    0.995 --    22 C    0.963
    55   1 H    0.991 --    25 C    0.973
    56   1 H    0.991 --    25 C    0.973
    57   1 H    0.993 --    25 C    0.977
    58   1 H    0.993 --    28 C    0.977
    59   1 H    0.993 --    28 C    0.973
    60   1 H    0.993 --    28 C    0.973
    61   1 H    0.996 --    29 C    0.962
    62   1 H    0.992 --    30 C    0.976
    63   1 H    0.995 --    30 C    0.976
    64   1 H    0.996 --    30 C    0.978
    65   1 H    0.996 --    31 C    0.966
    66   1 H    0.998 --    32 C    0.984
    67   1 H    0.998 --    32 C    0.981
    68   1 H    0.995 --    32 C    0.982
    69   1 H    0.998 --    33 C    0.983
    70   1 H    0.998 --    33 C    0.981
    71   1 H    0.995 --    33 C    0.981
    72   1 H    0.964 --     1 N    0.934
 ---------------------------------------------------------------------------

molecular dipole:
                 x           y           z       tot (Debye)
 q only:       -0.523       0.845       0.093
   full:       -0.387       0.976       0.470       2.923

           -------------------------------------------------
          | TOTAL ENERGY              -99.332067707403 Eh   |
          | GRADIENT NORM               0.003763148445 Eh/α |
          | HOMO-LUMO GAP               1.327429821375 eV   |
           -------------------------------------------------

 * finished run on 2024/04/06 at 11:12:32.186
