   * xtb version 6.6.1 (8d0f1dd) compiled by 'conda@1efc2f54142f' on 2023-08-01
          program call               : xtb xtbopt.xyz --opt crude --input .xc2 --gfn2

   ID    Z sym.   atoms
    1    7 N      1, 17
    2    6 C      2-6, 8, 9, 11-16, 18-23, 25, 26, 28-33
    3    8 O      7, 10, 24, 27
    4    1 H      34-72
########################################################################
[WARNING] Please study the warnings concerning your input carefully
-1- readin_getIntValue: could not parse ''
########################################################################

          :  Hamiltonian                  GFN2-xTB          :
 * total energy  :   -99.3322577 Eh     change       -0.3439027E-11 Eh
 * total energy  :   -99.3330344 Eh     change       -0.7767176E-03 Eh
 * total energy  :   -99.3340002 Eh     change       -0.9657769E-03 Eh
 * total energy  :   -99.3345008 Eh     change       -0.5006159E-03 Eh
 * total energy  :   -99.3348735 Eh     change       -0.3727083E-03 Eh
   *** GEOMETRY OPTIMIZATION CONVERGED AFTER 5 ITERATIONS ***

 final structure:
================
72
 xtb: 6.6.1 (8d0f1dd)
N           -0.78703140558294        1.75004373603925        0.65270132592571
C           -2.04057109882188        1.94261714744104        1.03527710052621
C           -3.18571389719655        1.91071833392993        0.08856713202096
C           -3.83065545855067        0.54852354817988        0.30317375946219
C           -4.45222407480925       -0.15917478737670       -0.65204050360730
C           -5.04591900365590       -1.46255478821887       -0.49647770942150
O           -6.07664220951184       -1.85990761992372       -1.28098135961215
C           -6.75647145922287       -0.91474573487641       -2.07155540167866
C           -4.60626538002680       -2.41801228405890        0.40336581124751
O           -5.30582853477225       -3.57850390799087        0.45124720917658
C           -4.82097593607548       -4.64039102271708        1.23731096760588
C           -3.45407996501074       -2.24317422411530        1.18809310429123
C           -2.50399727827508       -2.33033455976259        1.93138335647966
C           -2.64300381859975        2.08539476628111       -1.33823799199746
C           -1.52049493787270        1.09206519489240       -1.60286914874404
C           -0.32443038767229        1.39830727588075       -0.70410250086881
N            0.60466372265512        0.32080769326969       -0.66075307431476
C            1.98418459033397        0.59939290276007       -0.32724870790920
C            2.92383495985934       -0.13533059575906       -1.30075039398197
C            4.35389828858309        0.00251906630855       -0.86949621099223
C            5.06542477063483        1.16491352671612       -1.12500463010405
C            6.37918629488911        1.30062082497687       -0.70568954027084
C            7.01229556506977        0.27348588830579       -0.01939080563995
O            8.28382660544194        0.29296133189662        0.42610593817643
C            9.08277080051777        1.42382077503669        0.16801325122155
C            6.29093248086726       -0.92116538206152        0.25094872020777
O            6.97876948744441       -1.87223644411389        0.91641661780651
C            6.35976716886012       -3.10829516150340        1.18056457982671
C            4.97597371758604       -1.03016389531346       -0.17361091809543
C            0.10034646732130       -0.96809242331057       -0.22760176860854
C           -4.22049789848275        3.04090415701534        0.40450571394342
C           -5.01457980699010        2.78366310748703        1.68241499568561
C           -3.55280300421699        4.41383502119475        0.48721991210718
H           -4.57170687373178        0.26993738520992       -1.63735053625934
H           -6.98403867156034       -0.00542811043664       -1.50814081480041
H           -7.68408092895675       -1.39884382699265       -2.37192387117008
H           -6.18599392324597       -0.65730935924013       -2.97019284128828
H           -4.76005385377671       -4.36438499153541        2.29447446141925
H           -5.54136255681194       -5.44719000070181        1.10972822221032
H           -3.83425306321087       -4.97120350157814        0.89980100899565
H           -3.76733966990434        0.15832221899752        1.30750217263815
H           -1.63610497686105       -2.30895372133479        2.52630212696437
H           -3.44090799485857        1.96047470330991       -2.06679306333256
H           -2.25541995683647        3.09722753426352       -1.44978019510123
H           -1.87807558860895        0.08129603573380       -1.41465827708652
H           -1.19063492371285        1.15007454461741       -2.63925673867069
H           -2.22777618289765        2.06426998108942        2.08997062818724
H            0.20388063703082        2.28110471239621       -1.09291027444409
H            2.22427352293893        0.28815108192891        0.70070531177585
H            2.16802612528975        1.67288031942425       -0.40286963620385
H            2.78437815901423        0.28417674488315       -2.29750408162974
H            2.64336942712936       -1.18769461645551       -1.33312418626364
H            4.59872475866502        1.97291507232923       -1.66746022068755
H            6.90799023895427        2.21366623022737       -0.92523967345179
H            8.67438478085358        2.32038464472008        0.64454408704352
H            9.19315477241931        1.59904844198826       -0.90633307428930
H           10.05628209059810        1.19802390400630        0.59893442916853
H            7.11281203685436       -3.71080657284748        1.68476817383517
H            5.49200404380307       -2.99086892678399        1.83785705802512
H            6.05370556146823       -3.60949429847687        0.25698856477526
H            4.42080918786232       -1.93439887119910        0.02155364310177
H           -0.14259558110825       -1.59539499940210       -1.08836913660103
H           -0.79830089621250       -0.86718363541220        0.38676008886465
H            0.85789238212064       -1.48245071175862        0.36123963197551
H           -4.92583732140091        3.04643449751244       -0.43255891358442
H           -4.37147268425444        2.77556789899012        2.55825989024255
H           -5.55076604651029        1.84021279719139        1.63174066502273
H           -5.74405566712756        3.57899385368920        1.81531009314871
H           -2.77796943656250        4.42407241497420        1.25017685956008
H           -3.11198729238813        4.71263606072241       -0.45905610409854
H           -4.29675069284756        5.16148148103911        0.74985763798199
H           -0.06137671100265        1.74188164043609        1.35681289966049

          :  Hamiltonian                  GFN2-xTB          :
         :: total energy             -99.334873506674 Eh    ::
         :: gradient norm              0.009684377864 Eh/a0 ::
         :: HOMO-LUMO gap              1.335659016929 eV    ::
         :: SCC energy              -100.734259457814 Eh    ::
         :: -> dispersion             -0.073268896720 Eh    ::
         :: repulsion energy           1.398408056432 Eh    ::

    * Orbital Energies and Occupations

         #    Occupation            Energy/Eh            Energy/eV
      -------------------------------------------------------------
         1        2.0000           -0.8096506             -22.0317
       ...           ...                  ...                  ...
        78        1.9991           -0.5316204             -14.4661
        79        1.9989           -0.5293498             -14.4043
        80        1.9987           -0.5268405             -14.3361
        81        1.9985           -0.5241798             -14.2637
        82        1.9985           -0.5239305             -14.2569
        83        1.9979           -0.5188850             -14.1196
        84        1.9975           -0.5165532             -14.0561
        85        1.9967           -0.5119778             -13.9316
        86        1.9965           -0.5109771             -13.9044
        87        1.9758           -0.4801719             -13.0661
        88        1.9461           -0.4672382             -12.7142
        89        1.8190           -0.4469842             -12.1631
        90        1.7454           -0.4409283             -11.9983 (HOMO)
        91        0.4719           -0.3918437             -10.6626 (LUMO)
        92        0.0604           -0.3555119              -9.6740
        93        0.0023           -0.3030158              -8.2455
        94        0.0020           -0.3009545              -8.1894
        95        0.0005           -0.2800132              -7.6195
        96        0.0005           -0.2776413              -7.5550
        97        0.0000           -0.1940220              -5.2796
        98        0.0000           -0.1781151              -4.8468
        99                         -0.1333406              -3.6284
       100                         -0.1111264              -3.0239
       101                         -0.0754254              -2.0524
       ...                                ...                  ...
       171                          1.2730672              34.6419
      -------------------------------------------------------------
                  HL-Gap            0.0490846 Eh            1.3357 eV

     #   Z          covCN         q      C6AA      α(0)
     1   7 N        2.683    -0.104    23.283     7.166
     2   6 C        2.849     0.028    27.372     8.575
     3   6 C        3.908     0.018    20.214     6.391
     4   6 C        2.912    -0.045    29.121     8.849
     5   6 C        2.892    -0.061    29.513     8.907
     6   6 C        2.848     0.121    25.337     8.250
     7   8 O        1.707    -0.229    17.790     5.695
     8   6 C        3.642     0.029    20.436     6.500
     9   6 C        2.842     0.137    25.012     8.196
    10   8 O        1.706    -0.220    17.656     5.673
    11   6 C        3.644     0.028    20.452     6.501
    12   6 C        1.970    -0.031    31.879     9.118
    13   6 C        1.909    -0.091    33.619     9.364
    14   6 C        3.815    -0.069    21.818     6.648
    15   6 C        3.808    -0.077    21.972     6.673
    16   6 C        3.734     0.093    19.123     6.241
    17   7 N        2.732    -0.147    24.173     7.302
    18   6 C        3.747     0.002    20.616     6.476
    19   6 C        3.809    -0.075    21.923     6.665
    20   6 C        2.968     0.005    27.910     8.666
    21   6 C        2.922    -0.048    29.185     8.859
    22   6 C        2.914    -0.067    29.678     8.933
    23   6 C        2.865     0.132    25.111     8.214
    24   8 O        1.706    -0.224    17.718     5.683
    25   6 C        3.645     0.026    20.469     6.502
    26   6 C        2.863     0.132    25.106     8.213
    27   8 O        1.706    -0.227    17.759     5.690
    28   6 C        3.645     0.028    20.435     6.497
    29   6 C        2.920    -0.078    29.953     8.975
    30   6 C        3.697    -0.050    21.642     6.654
    31   6 C        3.852    -0.016    20.822     6.490
    32   6 C        3.755    -0.114    22.746     6.800
    33   6 C        3.755    -0.114    22.746     6.800
    34   1 H        0.925     0.062     2.179     2.308
    35   1 H        0.924     0.050     2.317     2.380
    36   1 H        0.925     0.081     1.964     2.192
    37   1 H        0.924     0.052     2.301     2.372
    38   1 H        0.924     0.054     2.269     2.356
    39   1 H        0.925     0.082     1.960     2.189
    40   1 H        0.924     0.052     2.289     2.366
    41   1 H        0.926     0.046     2.367     2.406
    42   1 H        0.928     0.091     1.873     2.140
    43   1 H        0.925     0.057     2.231     2.336
    44   1 H        0.925     0.056     2.249     2.345
    45   1 H        0.925     0.064     2.157     2.297
    46   1 H        0.925     0.066     2.124     2.279
    47   1 H        0.926     0.068     2.110     2.272
    48   1 H        0.923     0.064     2.158     2.297
    49   1 H        0.923     0.028     2.615     2.529
    50   1 H        0.924     0.042     2.417     2.431
    51   1 H        0.924     0.058     2.217     2.328
    52   1 H        0.925     0.056     2.244     2.343
    53   1 H        0.926     0.046     2.372     2.408
    54   1 H        0.926     0.056     2.241     2.341
    55   1 H        0.924     0.053     2.283     2.363
    56   1 H        0.924     0.055     2.258     2.350
    57   1 H        0.925     0.081     1.972     2.196
    58   1 H        0.925     0.080     1.979     2.200
    59   1 H        0.924     0.048     2.348     2.396
    60   1 H        0.924     0.052     2.291     2.367
    61   1 H        0.926     0.048     2.348     2.396
    62   1 H        0.924     0.054     2.276     2.359
    63   1 H        0.924     0.039     2.459     2.452
    64   1 H        0.925     0.055     2.254     2.348
    65   1 H        0.924     0.047     2.357     2.401
    66   1 H        0.925     0.041     2.439     2.442
    67   1 H        0.925     0.044     2.398     2.422
    68   1 H        0.925     0.056     2.249     2.345
    69   1 H        0.925     0.039     2.467     2.456
    70   1 H        0.925     0.041     2.433     2.439
    71   1 H        0.925     0.058     2.220     2.330
    72   1 H        0.860     0.187     1.173     1.697

Wiberg/Mayer (AO) data.
largest (>0.10) Wiberg bond orders for each atom

     #   Z sym  total        # sym  WBO       # sym  WBO       # sym  WBO
 ---------------------------------------------------------------------------
     1   7 N    3.384 --     2 C    1.415    72 H    0.934    16 C    0.926
     2   6 C    3.518 --     1 N    1.415     3 C    1.025    47 H    0.957
     3   6 C    3.983 --     2 C    1.025    14 C    0.979     4 C    0.962
                            31 C    0.924
     4   6 C    3.870 --     5 C    1.752     3 C    0.962    41 H    0.958
     5   6 C    3.955 --     4 C    1.752     6 C    1.137    34 H    0.947
     6   6 C    3.834 --     9 C    1.399     5 C    1.137     7 O    1.092
     7   8 O    2.232 --     6 C    1.092     8 C    0.979
     8   6 C    3.931 --     7 O    0.979    35 H    0.976    36 H    0.975
                            37 H    0.970
     9   6 C    3.818 --     6 C    1.399    12 C    1.140    10 O    1.084
    10   8 O    2.237 --     9 C    1.084    11 C    0.979
    11   6 C    3.929 --    10 O    0.979    39 H    0.977    40 H    0.973
                            38 H    0.973
    12   6 C    3.969 --    13 C    2.756     9 C    1.140
    13   6 C    3.891 --    12 C    2.756    42 H    0.969
    14   6 C    3.990 --    15 C    1.007     3 C    0.979    43 H    0.968
                            44 H    0.968
    15   6 C    3.985 --    14 C    1.007    16 C    0.986    46 H    0.971
                            45 H    0.966
    16   6 C    3.956 --    17 N    1.033    15 C    0.986    48 H    0.943
                             1 N    0.926
    17   7 N    3.175 --    16 C    1.033    30 C    1.005    18 C    1.000
    18   6 C    3.970 --    17 N    1.000    19 C    0.975    50 H    0.971
                            49 H    0.964
    19   6 C    3.984 --    20 C    1.013    18 C    0.975    52 H    0.971
                            51 H    0.969
    20   6 C    3.940 --    21 C    1.402    29 C    1.384    19 C    1.013
    21   6 C    3.943 --    22 C    1.421    20 C    1.402    53 H    0.968
    22   6 C    3.958 --    21 C    1.421    23 C    1.381    54 H    0.963
    23   6 C    3.888 --    22 C    1.381    26 C    1.222    24 O    1.105
    24   8 O    2.247 --    23 C    1.105    25 C    0.977
    25   6 C    3.930 --    24 O    0.977    57 H    0.977    56 H    0.973
                            55 H    0.973
    26   6 C    3.893 --    29 C    1.393    23 C    1.222    27 O    1.100
    27   8 O    2.248 --    26 C    1.100    28 C    0.979
    28   6 C    3.933 --    27 O    0.979    58 H    0.977    59 H    0.973
                            60 H    0.973
    29   6 C    3.959 --    26 C    1.393    20 C    1.384    61 H    0.962
    30   6 C    3.974 --    17 N    1.005    64 H    0.978    62 H    0.976
                            63 H    0.974
    31   6 C    3.962 --    32 C    1.011    33 C    1.009    65 H    0.966
                             3 C    0.924
    32   6 C    3.991 --    31 C    1.011    66 H    0.984    67 H    0.982
                            68 H    0.982
    33   6 C    3.989 --    31 C    1.009    69 H    0.982    71 H    0.981
                            70 H    0.981
    34   1 H    0.993 --     5 C    0.947
    35   1 H    0.993 --     8 C    0.976
    36   1 H    0.991 --     8 C    0.975
    37   1 H    0.990 --     8 C    0.970
    38   1 H    0.990 --    11 C    0.973
    39   1 H    0.993 --    11 C    0.977
    40   1 H    0.990 --    11 C    0.973
    41   1 H    0.997 --     4 C    0.958
    42   1 H    0.991 --    13 C    0.969
    43   1 H    0.996 --    14 C    0.968
    44   1 H    0.996 --    14 C    0.968
    45   1 H    0.996 --    15 C    0.966
    46   1 H    0.995 --    15 C    0.971
    47   1 H    0.995 --     2 C    0.957
    48   1 H    0.987 --    16 C    0.943
    49   1 H    0.993 --    18 C    0.964
    50   1 H    0.998 --    18 C    0.971
    51   1 H    0.994 --    19 C    0.969
    52   1 H    0.996 --    19 C    0.971
    53   1 H    0.997 --    21 C    0.968
    54   1 H    0.995 --    22 C    0.963
    55   1 H    0.991 --    25 C    0.973
    56   1 H    0.991 --    25 C    0.973
    57   1 H    0.993 --    25 C    0.977
    58   1 H    0.993 --    28 C    0.977
    59   1 H    0.993 --    28 C    0.973
    60   1 H    0.993 --    28 C    0.973
    61   1 H    0.996 --    29 C    0.962
    62   1 H    0.992 --    30 C    0.976
    63   1 H    0.995 --    30 C    0.974
    64   1 H    0.996 --    30 C    0.978
    65   1 H    0.996 --    31 C    0.966
    66   1 H    0.998 --    32 C    0.984
    67   1 H    0.998 --    32 C    0.982
    68   1 H    0.995 --    32 C    0.982
    69   1 H    0.998 --    33 C    0.982
    70   1 H    0.998 --    33 C    0.981
    71   1 H    0.995 --    33 C    0.981
    72   1 H    0.964 --     1 N    0.934
 ---------------------------------------------------------------------------

molecular dipole:
                 x           y           z       tot (Debye)
 q only:       -0.549       0.868       0.090
   full:       -0.408       1.019       0.459       3.024

           -------------------------------------------------
          | TOTAL ENERGY              -99.334873506674 Eh   |
          | GRADIENT NORM               0.009684377864 Eh/α |
          | HOMO-LUMO GAP               1.335659016929 eV   |
           -------------------------------------------------

 * finished run on 2024/04/06 at 11:12:33.279
