   * xtb version 6.6.1 (8d0f1dd) compiled by 'conda@1efc2f54142f' on 2023-08-01
          program call               : xtb struc.xyz --opt loose --input .xc1 --gfn2

   ID    Z sym.   atoms
    1    7 N      1, 17
    2    6 C      2-6, 8, 9, 11-16, 18-23, 25, 26, 28-33
    3    8 O      7, 10, 24, 27
    4    1 H      34-72
constraining bond 22 61 to    4.7133300 Å, actual value:    3.8496617 Å

          :  Hamiltonian                  GFN2-xTB          :
 * total energy  :   -99.5373178 Eh     change       -0.4035485E-08 Eh
 * total energy  :   -99.6787922 Eh     change       -0.1414744E+00 Eh
 * total energy  :   -99.7960135 Eh     change       -0.1172213E+00 Eh
 * total energy  :   -99.8915875 Eh     change       -0.9557394E-01 Eh
 * total energy  :  -100.0455872 Eh     change       -0.1539997E+00 Eh
 * total energy  :  -100.1613147 Eh     change       -0.1157276E+00 Eh
 * total energy  :  -100.3769721 Eh     change       -0.2156573E+00 Eh
 * total energy  :  -100.8257556 Eh     change       -0.4487835E+00 Eh
 * total energy  :  -101.3447169 Eh     change       -0.5189613E+00 Eh
 * total energy  :   -98.1079555 Eh     change        0.3236761E+01 Eh
 * total energy  :  -101.9533917 Eh     change       -0.2171896E-03 Eh
 * total energy  :  -101.9534862 Eh     change       -0.9442548E-04 Eh
 * total energy  :  -101.9536159 Eh     change       -0.1297027E-03 Eh
 * total energy  :  -101.9536827 Eh     change       -0.6684626E-04 Eh
 * total energy  :  -101.9537777 Eh     change       -0.9500212E-04 Eh
 * total energy  :  -101.9539306 Eh     change       -0.1529409E-03 Eh
 * total energy  :  -101.9540036 Eh     change       -0.7291952E-04 Eh
 * total energy  :  -101.9540684 Eh     change       -0.6482132E-04 Eh
 * total energy  :  -101.9541056 Eh     change       -0.3716602E-04 Eh
   *** GEOMETRY OPTIMIZATION CONVERGED AFTER 51 ITERATIONS ***

 final structure:
================
72
 xtb: 6.6.1 (8d0f1dd)
N           -1.90365278874338        2.71051621754791        2.35011746386229
C           -1.86124809062540        2.04043607598095        1.29673913559343
C           -3.01045089104324        1.86635097726442        0.34311631709339
C           -3.47571413845101        0.41791701300583        0.36894247174516
C           -4.38894169007594       -0.03319563145022       -0.58646127754064
C           -4.85050289210324       -1.33847062666492       -0.58713155851616
O           -5.73374770688608       -1.85258593365638       -1.46930234308912
C           -6.31636875071922       -1.00695734913096       -2.43249157337576
C           -4.38253716027237       -2.24659342085531        0.40009735748276
O           -4.87983816589924       -3.49793259709488        0.32027916598982
C           -4.52560656479233       -4.43839529175388        1.30698387317912
C           -3.47918940532532       -1.79195582475566        1.34692264429377
C           -3.03387158598153       -0.47585196041732        1.33123374586247
C           -2.45396659663416        2.21517331065609       -1.06224794706765
C           -1.51379919661331        1.15067291649696       -1.65535596817407
C           -0.17656518997052        1.12044263618659       -1.02123865238739
N            0.49836453681957        0.02360428064458       -0.69538374925348
C            1.88769003234282        0.10966919886764       -0.31381069254381
C            2.82041445266596       -0.22982726442846       -1.48745083993836
C            4.25672350826654       -0.09333504833897       -1.05074090547853
C            5.07651348108435        0.83054201215872       -1.60891024181695
C            6.51518249908396        1.00638119308585       -1.21102964238856
C            6.93695783760332        0.03924859189329       -0.13464923399903
O            8.17917818645788        0.04810416492114        0.34780810059374
C            9.12451035818850        0.97540711810173       -0.14107485019331
C            6.03918091001033       -0.89531760271475        0.40411059457927
O            6.54037638258531       -1.71578065703961        1.35943046682692
C            5.64592502644483       -2.67310547198971        1.87850574392067
C            4.72537179264617       -0.94474232992117       -0.03043621297734
C           -0.08847269200543       -1.29165746523710       -0.78707514791151
C           -4.22925220932804        2.77822701809624        0.67265903354106
C           -4.86455192892179        2.39899781284265        2.00843677153162
C           -3.88493721329293        4.26514259047352        0.66899954560395
H           -4.75459572704222        0.65248745864712       -1.33251871669607
H           -6.86071967436510       -0.18084118823640       -1.96495691676086
H           -7.01601688492328       -1.63184247354962       -2.98407014144357
H           -5.56736859418225       -0.60799439870909       -3.12455895420030
H           -4.81893273885693       -4.10132910491746        2.30564944434545
H           -5.07370046562900       -5.34457167830742        1.05667307413736
H           -3.45150493629267       -4.64983815898842        1.29326318734912
H           -3.11995942294803       -2.45343533548588        2.11841936523815
H           -2.35357225474439       -0.15172236027447        2.10352522030013
H           -3.29135964423103        2.34613279580448       -1.74677745590764
H           -1.92402256134580        3.16674641112697       -1.00542234061781
H           -1.99710941323828        0.17583370434720       -1.62163012858081
H           -1.36682288459817        1.41362011320691       -2.71143801186878
H           -0.94872625976365        1.53271248075657        0.92706484771610
H            0.36349318763365        2.05378126335338       -0.95685920139199
H            2.08860254300221       -0.58382017450271        0.50691371833365
H            2.10484860448197        1.12300404862797        0.03170271051530
H            2.61473726772803        0.43845670700148       -2.32485965008737
H            2.63989990836186       -1.25735394220866       -1.80761383079268
H            4.73192555073459        1.48286387031196       -2.39950633203616
H            6.56723561460737        2.01500402134257       -0.73155038421081
H            8.82638410028058        2.00447134214388        0.08636820380556
H            9.27498951539828        0.86936952827586       -1.21991464678539
H           10.05476833764697        0.74737558104515        0.37799813947580
H            6.21207328632606       -3.25205969653839        2.60427531204354
H            4.79563067059878       -2.18668114711028        2.36678929332701
H            5.27154870569205       -3.32693247436924        1.08510431035441
H            6.96420640046861        0.98395001060348       -1.80381613577642
H           -0.27292463466027       -1.57203858719607       -1.82663997277573
H           -1.03532950367914       -1.32457955749992       -0.24194164660779
H            0.59132445633149       -2.01771464499138       -0.34795300626226
H           -4.97101164299691        2.60091911974262       -0.11465764141050
H           -4.16032174808887        2.56825748694814        2.81648272848156
H           -5.16833846396013        1.35509345441652        2.01667252335606
H           -5.74455231673608        3.01307973246171        2.18077680911000
H           -3.12766140463368        4.47861027066009        1.41705141167407
H           -3.53356942705852        4.59877787715983       -0.30400897732949
H           -4.77559237560021        4.83763921535818        0.91475705532041
H           -1.05461371920792        2.77757929927976        2.90287998420878

          :  Hamiltonian                  GFN2-xTB          :
         :: total energy            -101.954105553736 Eh    ::
         :: gradient norm              0.002117310932 Eh/a0 ::
         :: HOMO-LUMO gap              0.958055831447 eV    ::
         :: SCC energy              -100.676377682107 Eh    ::
         :: -> dispersion             -0.074508517993 Eh    ::
         :: repulsion energy           1.534204658362 Eh    ::

    * Orbital Energies and Occupations

         #    Occupation            Energy/Eh            Energy/eV
      -------------------------------------------------------------
         1        2.0000           -0.8278477             -22.5269
       ...           ...                  ...                  ...
        78        1.9987           -0.5265068             -14.3270
        79        1.9985           -0.5241767             -14.2636
        80        1.9984           -0.5235622             -14.2469
        81        1.9977           -0.5175815             -14.0841
        82        1.9972           -0.5139899             -13.9864
        83        1.9964           -0.5103219             -13.8866
        84        1.9958           -0.5076574             -13.8141
        85        1.9950           -0.5049875             -13.7414
        86        1.9826           -0.4852041             -13.2031
        87        1.9443           -0.4664603             -12.6930
        88        1.9289           -0.4624616             -12.5842
        89        1.8835           -0.4542694             -12.3613
        90        1.4318           -0.4248302             -11.5602 (HOMO)
        91        0.4285           -0.3896223             -10.6022 (LUMO)
        92        0.4020           -0.3883441             -10.5674
        93        0.0160           -0.3339039              -9.0860
        94        0.0038           -0.3110969              -8.4654
        95        0.0035           -0.3098494              -8.4314
        96        0.0031           -0.3078943              -8.3782
        97        0.0000           -0.2122801              -5.7764
        98        0.0000           -0.1851856              -5.0392
        99                         -0.1310215              -3.5653
       100                         -0.0781041              -2.1253
       101                         -0.0633791              -1.7246
       ...                                ...                  ...
       171                          1.4037424              38.1978
      -------------------------------------------------------------
                  HL-Gap            0.0352079 Eh            0.9581 eV

     #   Z          covCN         q      C6AA      α(0)
     1   7 N        1.773    -0.271    27.857     7.816
     2   6 C        2.827     0.101    25.752     8.315
     3   6 C        3.907     0.006    20.415     6.422
     4   6 C        2.974     0.002    27.981     8.677
     5   6 C        2.921    -0.080    30.006     8.983
     6   6 C        2.862     0.129    25.178     8.225
     7   8 O        1.706    -0.232    17.848     5.704
     8   6 C        3.644     0.028    20.434     6.497
     9   6 C        2.864     0.128    25.195     8.228
    10   8 O        1.706    -0.231    17.825     5.700
    11   6 C        3.645     0.027    20.446     6.499
    12   6 C        2.914    -0.075    29.866     8.962
    13   6 C        2.921    -0.053    29.329     8.881
    14   6 C        3.812    -0.064    21.726     6.634
    15   6 C        3.802    -0.069    21.814     6.650
    16   6 C        2.844     0.005    27.899     8.656
    17   7 N        2.729     0.011    21.065     6.817
    18   6 C        3.757    -0.018    20.943     6.525
    19   6 C        3.809    -0.069    21.821     6.649
    20   6 C        2.955     0.018    27.600     8.617
    21   6 C        2.907    -0.060    29.490     8.905
    22   6 C        3.809    -0.099    22.382     6.734
    23   6 C        2.850     0.128    25.192     8.226
    24   8 O        1.706    -0.193    17.230     5.604
    25   6 C        3.644     0.019    20.590     6.522
    26   6 C        2.862     0.134    25.059     8.205
    27   8 O        1.706    -0.242    18.009     5.730
    28   6 C        3.657     0.029    20.379     6.480
    29   6 C        1.993    -0.164    35.730     9.653
    30   6 C        3.699    -0.071    22.029     6.713
    31   6 C        3.853    -0.007    20.671     6.467
    32   6 C        3.756    -0.118    22.822     6.812
    33   6 C        3.755    -0.118    22.817     6.811
    34   1 H        0.926     0.051     2.309     2.376
    35   1 H        0.924     0.053     2.285     2.364
    36   1 H        0.925     0.080     1.980     2.200
    37   1 H        0.924     0.046     2.371     2.408
    38   1 H        0.924     0.054     2.269     2.356
    39   1 H        0.925     0.080     1.979     2.200
    40   1 H        0.924     0.047     2.352     2.398
    41   1 H        0.926     0.051     2.304     2.374
    42   1 H        0.926     0.038     2.472     2.459
    43   1 H        0.925     0.059     2.213     2.327
    44   1 H        0.924     0.052     2.294     2.368
    45   1 H        0.925     0.066     2.131     2.283
    46   1 H        0.923     0.077     2.010     2.217
    47   1 H        0.922     0.006     2.961     2.691
    48   1 H        0.926     0.067     2.123     2.278
    49   1 H        0.924     0.079     1.989     2.205
    50   1 H        0.924     0.063     2.161     2.299
    51   1 H        0.924     0.046     2.368     2.407
    52   1 H        0.924     0.064     2.148     2.292
    53   1 H        0.925     0.047     2.357     2.401
    54   1 H        0.920     0.087     1.910     2.161
    55   1 H        0.924     0.062     2.179     2.309
    56   1 H        0.924     0.062     2.172     2.305
    57   1 H        0.925     0.091     1.865     2.136
    58   1 H        0.925     0.075     2.031     2.228
    59   1 H        0.924     0.051     2.307     2.375
    60   1 H        0.924     0.055     2.259     2.350
    61   1 H        0.931     0.132     1.523     1.930
    62   1 H        0.924     0.075     2.030     2.228
    63   1 H        0.924     0.079     1.993     2.208
    64   1 H        0.925     0.083     1.948     2.183
    65   1 H        0.924     0.036     2.502     2.473
    66   1 H        0.925     0.068     2.106     2.269
    67   1 H        0.925     0.035     2.514     2.480
    68   1 H        0.925     0.050     2.320     2.382
    69   1 H        0.925     0.060     2.199     2.319
    70   1 H        0.925     0.033     2.540     2.492
    71   1 H        0.925     0.053     2.280     2.362
    72   1 H        0.860     0.155     1.368     1.832

Wiberg/Mayer (AO) data.
largest (>0.10) Wiberg bond orders for each atom

     #   Z sym  total        # sym  WBO       # sym  WBO       # sym  WBO
 ---------------------------------------------------------------------------
     1   7 N    3.039 --     2 C    1.954    72 H    0.943
     2   6 C    3.927 --     1 N    1.954     3 C    0.995    47 H    0.900
     3   6 C    3.977 --     2 C    0.995     4 C    0.969    14 C    0.957
                            31 C    0.943
     4   6 C    3.952 --    13 C    1.417     5 C    1.367     3 C    0.969
     5   6 C    3.964 --     6 C    1.403     4 C    1.367    34 H    0.958
     6   6 C    3.908 --     5 C    1.403     9 C    1.224     7 O    1.096
     7   8 O    2.253 --     6 C    1.096     8 C    0.979
     8   6 C    3.933 --     7 O    0.979    36 H    0.977    37 H    0.974
                            35 H    0.974
     9   6 C    3.904 --    12 C    1.394     6 C    1.224    10 O    1.099
    10   8 O    2.252 --     9 C    1.099    11 C    0.978
    11   6 C    3.932 --    10 O    0.978    39 H    0.977    40 H    0.974
                            38 H    0.974
    12   6 C    3.964 --    13 C    1.402     9 C    1.394    41 H    0.964
    13   6 C    3.957 --     4 C    1.417    12 C    1.402    42 H    0.963
    14   6 C    3.974 --    15 C    0.983    44 H    0.972    43 H    0.969
                             3 C    0.957
    15   6 C    3.987 --    16 C    1.058    14 C    0.983    45 H    0.961
                            46 H    0.928
    16   6 C    3.586 --    17 N    1.398    15 C    1.058    48 H    0.958
    17   7 N    3.475 --    16 C    1.398    30 C    0.999    18 C    0.988
    18   6 C    3.956 --    17 N    0.988    19 C    0.972    50 H    0.968
                            49 H    0.960
    19   6 C    3.969 --    20 C    0.996    51 H    0.975    18 C    0.972
                            52 H    0.965
    20   6 C    3.948 --    21 C    1.619    29 C    1.241    19 C    0.996
    21   6 C    3.783 --    20 C    1.619    22 C    1.036    53 H    0.961
    22   6 C    3.974 --    21 C    1.036    23 C    1.024    61 H    0.935
                            54 H    0.895
    23   6 C    3.686 --    26 C    1.298    24 O    1.169    22 C    1.024
    24   8 O    2.303 --    23 C    1.169    25 C    0.968
    25   6 C    3.919 --    57 H    0.976    56 H    0.971    55 H    0.968
                            24 O    0.968
    26   6 C    3.883 --    29 C    1.342    23 C    1.298    27 O    1.078
    27   8 O    2.229 --    26 C    1.078    28 C    0.978
    28   6 C    3.927 --    58 H    0.979    27 O    0.978    59 H    0.973
                            60 H    0.973
    29   6 C    2.794 --    26 C    1.342    20 C    1.241
    30   6 C    3.957 --    17 N    0.999    64 H    0.977    62 H    0.967
                            63 H    0.962
    31   6 C    3.974 --    33 C    1.009    32 C    1.008    65 H    0.961
                             3 C    0.943
    32   6 C    3.981 --    31 C    1.008    67 H    0.982    68 H    0.982
                            66 H    0.975
    33   6 C    3.984 --    31 C    1.009    70 H    0.983    71 H    0.981
                            69 H    0.977
    34   1 H    0.996 --     5 C    0.958
    35   1 H    0.994 --     8 C    0.974
    36   1 H    0.993 --     8 C    0.977
    37   1 H    0.994 --     8 C    0.974
    38   1 H    0.993 --    11 C    0.974
    39   1 H    0.993 --    11 C    0.977
    40   1 H    0.994 --    11 C    0.974
    41   1 H    0.996 --    12 C    0.964
    42   1 H    0.998 --    13 C    0.963
    43   1 H    0.995 --    14 C    0.969
    44   1 H    0.996 --    14 C    0.972
    45   1 H    0.995 --    15 C    0.961
    46   1 H    0.970 --    15 C    0.928
    47   1 H    0.988 --     2 C    0.900
    48   1 H    0.995 --    16 C    0.958
    49   1 H    0.989 --    18 C    0.960
    50   1 H    0.995 --    18 C    0.968
    51   1 H    0.997 --    19 C    0.975
    52   1 H    0.995 --    19 C    0.965
    53   1 H    0.989 --    21 C    0.961
    54   1 H    0.956 --    22 C    0.895
    55   1 H    0.991 --    25 C    0.968
    56   1 H    0.991 --    25 C    0.971
    57   1 H    0.991 --    25 C    0.976
    58   1 H    0.993 --    28 C    0.979
    59   1 H    0.993 --    28 C    0.973
    60   1 H    0.993 --    28 C    0.973
    61   1 H    0.972 --    22 C    0.935
    62   1 H    0.985 --    30 C    0.967
    63   1 H    0.987 --    30 C    0.962
    64   1 H    0.993 --    30 C    0.977
    65   1 H    0.993 --    31 C    0.961
    66   1 H    0.992 --    32 C    0.975
    67   1 H    0.997 --    32 C    0.982
    68   1 H    0.994 --    32 C    0.982
    69   1 H    0.994 --    33 C    0.977
    70   1 H    0.997 --    33 C    0.983
    71   1 H    0.994 --    33 C    0.981
    72   1 H    0.971 --     1 N    0.943
 ---------------------------------------------------------------------------

molecular dipole:
                 x           y           z       tot (Debye)
 q only:        1.895       0.486      -1.200
   full:        2.475       0.736      -1.553       7.660

           -------------------------------------------------
          | TOTAL ENERGY             -101.954105553736 Eh   |
          | GRADIENT NORM               0.002117310932 Eh/α |
          | HOMO-LUMO GAP               0.958055831447 eV   |
           -------------------------------------------------

 * finished run on 2024/04/06 at 11:17:07.131
