   * xtb version 6.6.1 (8d0f1dd) compiled by 'conda@1efc2f54142f' on 2023-08-01
          program call               : xtb xtbopt.xyz --opt crude --input .xc2 --gfn2

   ID    Z sym.   atoms
    1    7 N      1, 17
    2    6 C      2-6, 8, 9, 11-16, 18-23, 25, 26, 28-33
    3    8 O      7, 10, 24, 27
    4    1 H      34-72
########################################################################
[WARNING] Please study the warnings concerning your input carefully
-1- readin_getIntValue: could not parse ''
########################################################################

          :  Hamiltonian                  GFN2-xTB          :
 * total energy  :   -99.1408823 Eh     change       -0.5537970E-10 Eh
 * total energy  :   -99.3024215 Eh     change       -0.1615391E+00 Eh
 * total energy  :   -99.3041053 Eh     change       -0.1683819E-02 Eh
 * total energy  :   -99.3050760 Eh     change       -0.9707120E-03 Eh
 * total energy  :   -99.3052507 Eh     change       -0.1747489E-03 Eh
   *** GEOMETRY OPTIMIZATION CONVERGED AFTER 5 ITERATIONS ***

 final structure:
================
72
 xtb: 6.6.1 (8d0f1dd)
N           -1.90579974039621        2.71479166017290        2.34962844669207
C           -1.86270922691811        2.04070972174266        1.29884650362006
C           -3.01098297729437        1.86601842955167        0.34413951013327
C           -3.47465645837202        0.41716620610992        0.36934553656189
C           -4.38657235994393       -0.03459268107000       -0.58695583644732
C           -4.84786422336865       -1.33993235521045       -0.58761413161265
O           -5.73043550490314       -1.85423197510746       -1.47048129683643
C           -6.31500977497120       -1.00774938276961       -2.43159323699088
C           -4.38053520160119       -2.24768480824360        0.40015297882517
O           -4.87758044398029       -3.49922445569726        0.32045188184122
C           -4.52482845314811       -4.43882721581055        1.30842956192082
C           -3.47803274645336       -1.79257239045141        1.34754153103322
C           -3.03328518320997       -0.47628775671438        1.33215447902095
C           -2.45443098555550        2.21649931114604       -1.06078913359541
C           -1.51644864574050        1.15156039796768       -1.65589252745098
C           -0.17973588464800        1.11962958752139       -1.02138466141402
N            0.49294121345602        0.02197385338942       -0.69444241478763
C            1.88173919650011        0.10779538432732       -0.31138979699334
C            2.81762641561887       -0.23069006883304       -1.48271451198855
C            4.24954581142345       -0.08564410730852       -1.03790439129047
C            5.06682222456028        0.85375736028126       -1.57987974377128
C            6.48214093222099        1.02043370088524       -1.15483794090931
C            6.92720601249989        0.05250240560813       -0.11331085135594
O            8.17490317882629        0.04516607244881        0.35411028799123
C            9.12186541405513        0.96874747175469       -0.13251130021064
C            6.03034660413021       -0.88958283972613        0.42064771047199
O            6.53019738473691       -1.72023920372819        1.36828627164779
C            5.63439315017619       -2.67985076068589        1.88021052439666
C            4.71957283839621       -0.94059139623697       -0.02196986716315
C           -0.09166150745874       -1.29365708547932       -0.79067366011642
C           -4.23095360839840        2.77624347099981        0.67296035439038
C           -4.86612743657808        2.39696779362532        2.00861106857783
C           -3.88869789416463        4.26366926596137        0.66845239623723
H           -4.75128118811996        0.65070122473345       -1.33383441480323
H           -6.85918512874003       -0.18266409751681       -1.96208172249032
H           -7.01500030832530       -1.63238925957551       -2.98297005674067
H           -5.56739282751819       -0.60719125685690       -3.12425148916332
H           -4.81888563324333       -4.10067263887490        2.30647684132986
H           -5.07319972287937       -5.34490005056997        1.05849250383097
H           -3.45085002850576       -4.65098799143707        1.29602201090179
H           -3.11932060703366       -2.45400083093211        2.11934302833059
H           -2.35385675112795       -0.15187262383665        2.10508352355579
H           -3.29174876804364        2.35074896220311       -1.74466276093276
H           -1.92249587791182        3.16683452661668       -1.00200392978083
H           -2.00033957071990        0.17700611476337       -1.62257462049367
H           -1.36948092636626        1.41495800323573       -2.71177954664837
H           -0.95068371474229        1.53017393502744        0.93230112756249
H            0.36033245036626        2.05267650122630       -0.95375413089682
H            2.08189820571535       -0.58519944831801        0.50978239027112
H            2.09803454591393        1.12125951130384        0.03358873402658
H            2.61094379037378        0.43559230644078       -2.32163057155280
H            2.64154381802758       -1.25906416921435       -1.80257814811478
H            4.72005650571206        1.51750466878177       -2.35850356299083
H            6.61736935622854        2.04551953044916       -0.76768491977781
H            8.82381246444788        1.99948983137815        0.08126021901621
H            9.27845941383973        0.85532498401456       -1.20926518857022
H           10.04858396685922        0.74446622969365        0.39159552901116
H            6.19755234203128       -3.26331610601629        2.60509469477215
H            4.78304156503017       -2.19662111368908        2.36925990078708
H            5.26196670982948       -3.33038467115212        1.08328582321975
H            7.13527349704503        0.95894407345056       -2.03065616426673
H           -0.27479820157470       -1.57159321446210       -1.83085290615586
H           -1.03882635958956       -1.33003307932653       -0.24662327387641
H            0.58915624420346       -2.01923133996009       -0.35309282943769
H           -4.97209014110955        2.59749835980277       -0.11453405915126
H           -4.16362166915919        2.57120373059829        2.81707278514803
H           -5.16511490286962        1.35163698635812        2.01883356126604
H           -5.74915323151420        3.00733110207395        2.17849083334992
H           -3.13202259449996        4.47865173465775        1.41651090721634
H           -3.53737621350052        4.59700729933150       -0.30453463220914
H           -4.78014444365986        4.83501682079025        0.91345428120440
H           -1.05759258734041        2.78244136689772        2.90356133542393

          :  Hamiltonian                  GFN2-xTB          :
         :: total energy             -99.305250749997 Eh    ::
         :: gradient norm              0.006978214642 Eh/a0 ::
         :: HOMO-LUMO gap              0.943808291430 eV    ::
         :: SCC energy              -100.653501610203 Eh    ::
         :: -> dispersion             -0.074521834134 Eh    ::
         :: repulsion energy           1.346954093503 Eh    ::

    * Orbital Energies and Occupations

         #    Occupation            Energy/Eh            Energy/eV
      -------------------------------------------------------------
         1        2.0000           -0.8273143             -22.5124
       ...           ...                  ...                  ...
        78        1.9987           -0.5264431             -14.3252
        79        1.9985           -0.5240020             -14.2588
        80        1.9985           -0.5234128             -14.2428
        81        1.9977           -0.5174210             -14.0797
        82        1.9971           -0.5131780             -13.9643
        83        1.9964           -0.5101387             -13.8816
        84        1.9958           -0.5074770             -13.8092
        85        1.9950           -0.5048395             -13.7374
        86        1.9827           -0.4850558             -13.1990
        87        1.9443           -0.4662335             -12.6869
        88        1.9273           -0.4618613             -12.5679
        89        1.8841           -0.4541339             -12.3576
        90        1.4253           -0.4243567             -11.5473 (HOMO)
        91        0.4344           -0.3896723             -10.6035 (LUMO)
        92        0.4036           -0.3882005             -10.5635
        93        0.0160           -0.3336600              -9.0793
        94        0.0038           -0.3109560              -8.4615
        95        0.0035           -0.3095656              -8.4237
        96        0.0031           -0.3077433              -8.3741
        97        0.0000           -0.2132423              -5.8026
        98        0.0000           -0.1850336              -5.0350
        99                         -0.1302854              -3.5452
       100                         -0.0733791              -1.9967
       101                         -0.0629302              -1.7124
       ...                                ...                  ...
       171                          0.5782798              15.7358
      -------------------------------------------------------------
                  HL-Gap            0.0346843 Eh            0.9438 eV

     #   Z          covCN         q      C6AA      α(0)
     1   7 N        1.774    -0.271    27.861     7.816
     2   6 C        2.827     0.101    25.752     8.315
     3   6 C        3.908     0.006    20.416     6.422
     4   6 C        2.974     0.002    27.983     8.677
     5   6 C        2.921    -0.080    30.006     8.983
     6   6 C        2.862     0.129    25.179     8.225
     7   8 O        1.706    -0.232    17.850     5.704
     8   6 C        3.644     0.028    20.432     6.497
     9   6 C        2.864     0.128    25.197     8.228
    10   8 O        1.706    -0.231    17.827     5.701
    11   6 C        3.645     0.027    20.445     6.498
    12   6 C        2.914    -0.075    29.867     8.962
    13   6 C        2.921    -0.053    29.329     8.881
    14   6 C        3.813    -0.064    21.725     6.634
    15   6 C        3.802    -0.069    21.814     6.650
    16   6 C        2.844     0.005    27.900     8.657
    17   7 N        2.729     0.011    21.065     6.817
    18   6 C        3.757    -0.018    20.938     6.524
    19   6 C        3.809    -0.069    21.816     6.649
    20   6 C        2.956     0.019    27.589     8.615
    21   6 C        2.908    -0.056    29.388     8.889
    22   6 C        3.809    -0.069    21.811     6.648
    23   6 C        2.851     0.132    25.110     8.213
    24   8 O        1.706    -0.192    17.205     5.600
    25   6 C        3.645     0.020    20.578     6.520
    26   6 C        2.862     0.135    25.047     8.203
    27   8 O        1.705    -0.241    17.998     5.728
    28   6 C        3.657     0.029    20.377     6.480
    29   6 C        1.993    -0.163    35.709     9.650
    30   6 C        3.699    -0.071    22.029     6.712
    31   6 C        3.853    -0.007    20.671     6.467
    32   6 C        3.756    -0.118    22.821     6.811
    33   6 C        3.755    -0.118    22.818     6.811
    34   1 H        0.926     0.051     2.310     2.377
    35   1 H        0.924     0.053     2.286     2.364
    36   1 H        0.925     0.080     1.980     2.201
    37   1 H        0.924     0.046     2.372     2.409
    38   1 H        0.924     0.054     2.270     2.356
    39   1 H        0.925     0.080     1.980     2.200
    40   1 H        0.924     0.047     2.353     2.399
    41   1 H        0.926     0.051     2.305     2.374
    42   1 H        0.926     0.038     2.473     2.459
    43   1 H        0.925     0.059     2.213     2.326
    44   1 H        0.924     0.052     2.294     2.369
    45   1 H        0.925     0.066     2.131     2.283
    46   1 H        0.923     0.077     2.010     2.217
    47   1 H        0.922     0.006     2.965     2.693
    48   1 H        0.926     0.067     2.123     2.279
    49   1 H        0.924     0.079     1.992     2.207
    50   1 H        0.924     0.063     2.162     2.299
    51   1 H        0.924     0.046     2.367     2.406
    52   1 H        0.924     0.064     2.148     2.292
    53   1 H        0.926     0.048     2.347     2.396
    54   1 H        0.923     0.087     1.907     2.159
    55   1 H        0.924     0.061     2.184     2.311
    56   1 H        0.924     0.062     2.175     2.306
    57   1 H        0.925     0.092     1.857     2.131
    58   1 H        0.925     0.075     2.031     2.229
    59   1 H        0.924     0.051     2.308     2.376
    60   1 H        0.924     0.055     2.260     2.351
    61   1 H        0.924     0.089     1.889     2.149
    62   1 H        0.924     0.075     2.030     2.228
    63   1 H        0.924     0.079     1.993     2.208
    64   1 H        0.925     0.083     1.948     2.183
    65   1 H        0.924     0.036     2.502     2.474
    66   1 H        0.925     0.068     2.106     2.270
    67   1 H        0.925     0.035     2.515     2.480
    68   1 H        0.925     0.050     2.321     2.382
    69   1 H        0.925     0.060     2.198     2.318
    70   1 H        0.925     0.033     2.540     2.492
    71   1 H        0.925     0.053     2.281     2.362
    72   1 H        0.860     0.155     1.369     1.833

Wiberg/Mayer (AO) data.
largest (>0.10) Wiberg bond orders for each atom

     #   Z sym  total        # sym  WBO       # sym  WBO       # sym  WBO
 ---------------------------------------------------------------------------
     1   7 N    3.038 --     2 C    1.954    72 H    0.943
     2   6 C    3.927 --     1 N    1.954     3 C    0.995    47 H    0.900
     3   6 C    3.977 --     2 C    0.995     4 C    0.969    14 C    0.957
                            31 C    0.943
     4   6 C    3.952 --    13 C    1.417     5 C    1.367     3 C    0.969
     5   6 C    3.964 --     6 C    1.403     4 C    1.367    34 H    0.958
     6   6 C    3.908 --     5 C    1.403     9 C    1.225     7 O    1.096
     7   8 O    2.253 --     6 C    1.096     8 C    0.979
     8   6 C    3.934 --     7 O    0.979    36 H    0.977    35 H    0.974
                            37 H    0.974
     9   6 C    3.905 --    12 C    1.394     6 C    1.225    10 O    1.099
    10   8 O    2.252 --     9 C    1.099    11 C    0.978
    11   6 C    3.933 --    10 O    0.978    39 H    0.977    40 H    0.974
                            38 H    0.974
    12   6 C    3.964 --    13 C    1.402     9 C    1.394    41 H    0.964
    13   6 C    3.957 --     4 C    1.417    12 C    1.402    42 H    0.963
    14   6 C    3.974 --    15 C    0.983    44 H    0.972    43 H    0.969
                             3 C    0.957
    15   6 C    3.987 --    16 C    1.058    14 C    0.983    45 H    0.961
                            46 H    0.928
    16   6 C    3.587 --    17 N    1.398    15 C    1.058    48 H    0.958
    17   7 N    3.475 --    16 C    1.398    30 C    0.999    18 C    0.988
    18   6 C    3.956 --    17 N    0.988    19 C    0.972    50 H    0.968
                            49 H    0.960
    19   6 C    3.969 --    20 C    0.997    51 H    0.975    18 C    0.972
                            52 H    0.965
    20   6 C    3.947 --    21 C    1.611    29 C    1.244    19 C    0.997
    21   6 C    3.783 --    20 C    1.611    22 C    1.048    53 H    0.961
    22   6 C    3.987 --    21 C    1.048    23 C    1.039    61 H    0.914
                            54 H    0.908
    23   6 C    3.688 --    26 C    1.292    24 O    1.167    22 C    1.039
    24   8 O    2.302 --    23 C    1.167    25 C    0.970
    25   6 C    3.919 --    57 H    0.976    24 O    0.970    55 H    0.968
                            56 H    0.968
    26   6 C    3.882 --    29 C    1.345    23 C    1.292    27 O    1.079
    27   8 O    2.229 --    26 C    1.079    28 C    0.978
    28   6 C    3.927 --    58 H    0.979    27 O    0.978    59 H    0.973
                            60 H    0.973
    29   6 C    2.798 --    26 C    1.345    20 C    1.244
    30   6 C    3.957 --    17 N    0.999    64 H    0.977    62 H    0.967
                            63 H    0.962
    31   6 C    3.974 --    33 C    1.009    32 C    1.008    65 H    0.961
                             3 C    0.943
    32   6 C    3.981 --    31 C    1.008    67 H    0.982    68 H    0.982
                            66 H    0.975
    33   6 C    3.984 --    31 C    1.009    70 H    0.983    71 H    0.981
                            69 H    0.977
    34   1 H    0.996 --     5 C    0.958
    35   1 H    0.994 --     8 C    0.974
    36   1 H    0.993 --     8 C    0.977
    37   1 H    0.994 --     8 C    0.974
    38   1 H    0.993 --    11 C    0.974
    39   1 H    0.993 --    11 C    0.977
    40   1 H    0.994 --    11 C    0.974
    41   1 H    0.996 --    12 C    0.964
    42   1 H    0.998 --    13 C    0.963
    43   1 H    0.995 --    14 C    0.969
    44   1 H    0.996 --    14 C    0.972
    45   1 H    0.995 --    15 C    0.961
    46   1 H    0.970 --    15 C    0.928
    47   1 H    0.988 --     2 C    0.900
    48   1 H    0.995 --    16 C    0.958
    49   1 H    0.989 --    18 C    0.960
    50   1 H    0.995 --    18 C    0.968
    51   1 H    0.997 --    19 C    0.975
    52   1 H    0.995 --    19 C    0.965
    53   1 H    0.989 --    21 C    0.961
    54   1 H    0.960 --    22 C    0.908
    55   1 H    0.991 --    25 C    0.968
    56   1 H    0.991 --    25 C    0.968
    57   1 H    0.991 --    25 C    0.976
    58   1 H    0.993 --    28 C    0.979
    59   1 H    0.993 --    28 C    0.973
    60   1 H    0.993 --    28 C    0.973
    61   1 H    0.964 --    22 C    0.914
    62   1 H    0.985 --    30 C    0.967
    63   1 H    0.987 --    30 C    0.962
    64   1 H    0.993 --    30 C    0.977
    65   1 H    0.993 --    31 C    0.961
    66   1 H    0.992 --    32 C    0.975
    67   1 H    0.997 --    32 C    0.982
    68   1 H    0.995 --    32 C    0.982
    69   1 H    0.994 --    33 C    0.977
    70   1 H    0.997 --    33 C    0.983
    71   1 H    0.994 --    33 C    0.981
    72   1 H    0.971 --     1 N    0.943
 ---------------------------------------------------------------------------

molecular dipole:
                 x           y           z       tot (Debye)
 q only:        1.914       0.470      -1.187
   full:        2.518       0.733      -1.560       7.756

           -------------------------------------------------
          | TOTAL ENERGY              -99.305250749997 Eh   |
          | GRADIENT NORM               0.006978214642 Eh/α |
          | HOMO-LUMO GAP               0.943808291430 eV   |
           -------------------------------------------------

 * finished run on 2024/04/06 at 11:17:08.261
