   * xtb version 6.6.1 (8d0f1dd) compiled by 'conda@1efc2f54142f' on 2023-08-01
          program call               : xtb xtbopt.xyz --opt crude --input .xc2 --gfn2

   ID    Z sym.   atoms
    1    6 C      1, 3, 5-7, 10, 11, 14
    2    7 N      2, 4, 9, 13
    3    8 O      8, 12
    4    1 H      15-25

          :  Hamiltonian                  GFN2-xTB          :
 * total energy  :   -42.1084676 Eh     change       -0.2209077E-10 Eh
   *** GEOMETRY OPTIMIZATION CONVERGED AFTER 1 ITERATIONS ***

 final structure:
================
25
 xtb: 6.6.1 (8d0f1dd)
C            3.16369317237354        0.88124289510100        0.18616700271479
N            2.26603284540369       -0.09469551895893        0.11282929417615
C            2.49160511764574       -1.42632599011712        0.05002946090578
N            1.30603981040608       -2.09465887730333       -0.00828164022512
C            0.30132749322376       -1.17919633122543        0.01800982025472
C            0.88316382260446        0.07499457841058        0.09010747727853
C            0.09453412249878        1.28467602706735        0.12508579532028
O            0.52789038878641        2.41189238198272        0.17859940907186
N           -1.27130423304853        0.99762919557315        0.07615478291411
C           -2.19520595731683        2.12322603452421        0.09870534973762
C           -1.87641114430577       -0.24335247163025        0.01072275558732
O           -3.06718886120754       -0.37803699483209       -0.02280544628118
N           -1.02703224208481       -1.37245291144281       -0.01904370199477
C           -1.61565412145299       -2.69427162790964       -0.07751315714232
H            2.80902556981730        1.89547427771172        0.23556225930826
H            4.20894278900569        0.63705368519047        0.20195381135211
H            4.10666205661497        3.84922329401348       -1.24518454155315
H            3.45441074028917       -1.89280922164697        0.04693519813076
H           -1.61191815606504        3.03923123366534        0.15446082913701
H           -2.80652946713340        2.11673965810837       -0.80318034911477
H           -2.85637787871514        2.04151556678818        0.96163928033392
H           -1.31753926431473       -3.28304628667473        0.79083784609005
H           -1.32298456404898       -3.20532090798288       -0.99585955546428
H           -2.69845793740620       -2.57220081346242       -0.06981329063962
H            1.21370741253137       -3.09829233334907       -0.06494707199968

          :  Hamiltonian                  GFN2-xTB          :
         :: total energy             -42.108467614773 Eh    ::
         :: gradient norm              0.002989405949 Eh/a0 ::
         :: HOMO-LUMO gap              0.276815161067 eV    ::
         :: SCC energy               -42.631620983637 Eh    ::
         :: -> dispersion             -0.022705660794 Eh    ::
         :: repulsion energy           0.523056394653 Eh    ::

    * Orbital Energies and Occupations

         #    Occupation            Energy/Eh            Energy/eV
      -------------------------------------------------------------
         1        2.0000           -0.9087584             -24.7286
       ...           ...                  ...                  ...
        25        1.9999           -0.6665976             -18.1390
        26        1.9999           -0.6661678             -18.1273
        27        1.9999           -0.6571563             -17.8821
        28        1.9996           -0.6353632             -17.2891
        29        1.9994           -0.6310399             -17.1715
        30        1.9992           -0.6256149             -17.0238
        31        1.9986           -0.6174715             -16.8023
        32        1.9957           -0.5992913             -16.3075
        33        1.9854           -0.5797350             -15.7754
        34        1.9583           -0.5628363             -15.3156
        35        1.9535           -0.5610952             -15.2682
        36        1.9465           -0.5588150             -15.2061
        37        1.2356           -0.5095004             -13.8642 (HOMO)
        38        0.9191           -0.4993277             -13.5874 (LUMO)
        39        0.0058           -0.4093597             -11.1392
        40        0.0031           -0.3997161             -10.8768
        41        0.0004           -0.3666958              -9.9783
        42        0.0000           -0.2849703              -7.7544
        43                         -0.2053441              -5.5877
        44                         -0.1842529              -5.0138
        45                         -0.1424701              -3.8768
        46                         -0.1139651              -3.1011
        47                         -0.0795259              -2.1640
        48                         -0.0483101              -1.3146
       ...                                ...                  ...
        67                          0.5547572              15.0957
      -------------------------------------------------------------
                  HL-Gap            0.0101728 Eh            0.2768 eV

     #   Z          covCN         q      C6AA      α(0)
     1   6 C        2.790    -0.071    29.758     8.936
     2   7 N        2.809     0.130    19.032     6.479
     3   6 C        3.039     0.025    27.416     8.588
     4   7 N        2.780    -0.059    22.389     7.028
     5   6 C        3.023     0.119    25.352     8.259
     6   6 C        3.111    -0.039    28.806     8.793
     7   6 C        2.764     0.274    22.360     7.744
     8   8 O        0.858    -0.362    20.931     6.134
     9   7 N        2.746    -0.082    22.827     7.096
    10   6 C        3.710    -0.062    21.831     6.678
    11   6 C        2.728     0.318    21.594     7.608
    12   8 O        0.860    -0.351    20.727     6.104
    13   7 N        2.738    -0.054    22.279     7.010
    14   6 C        3.696    -0.072    22.063     6.719
    15   1 H        0.926     0.136     1.490     1.909
    16   1 H        0.926     0.107     1.718     2.050
    17   1 H        0.000     0.076     5.049     4.109
    18   1 H        0.927     0.121     1.609     1.983
    19   1 H        0.925     0.115     1.652     2.010
    20   1 H        0.925     0.102     1.765     2.077
    21   1 H        0.925     0.103     1.762     2.076
    22   1 H        0.924     0.085     1.933     2.174
    23   1 H        0.924     0.085     1.925     2.170
    24   1 H        0.925     0.129     1.546     1.944
    25   1 H        0.860     0.227     0.976     1.548

Wiberg/Mayer (AO) data.
largest (>0.10) Wiberg bond orders for each atom

     #   Z sym  total        # sym  WBO       # sym  WBO       # sym  WBO
 ---------------------------------------------------------------------------
     1   6 C    3.402 --     2 N    1.333    16 H    0.967    15 H    0.956
     2   7 N    3.765 --     1 C    1.333     3 C    1.248     6 C    1.088
     3   6 C    3.640 --     2 N    1.248     4 N    1.238    18 H    0.955
     4   7 N    3.526 --     3 C    1.238     5 C    1.195    25 H    0.920
     5   6 C    3.938 --     6 C    1.349    13 N    1.217     4 N    1.195
     6   6 C    3.847 --     5 C    1.349     2 N    1.088     7 C    1.086
     7   6 C    3.959 --     8 O    1.683     9 N    1.094     6 C    1.086
     8   8 O    2.018 --     7 C    1.683     9 N    0.139
     9   7 N    3.533 --    11 C    1.126     7 C    1.094    10 C    0.971
                             8 O    0.139    12 O    0.134
    10   6 C    3.900 --     9 N    0.971    19 H    0.966    20 H    0.959
                            21 H    0.959
    11   6 C    3.958 --    12 O    1.706     9 N    1.126    13 N    1.035
    12   8 O    2.047 --    11 C    1.706     9 N    0.134    13 N    0.118
    13   7 N    3.532 --     5 C    1.217    11 C    1.035    14 C    0.976
                            12 O    0.118
    14   6 C    3.920 --    13 N    0.976    22 H    0.969    23 H    0.968
                            24 H    0.963
    15   1 H    0.981 --     1 C    0.956
    16   1 H    0.987 --     1 C    0.967
    17   1 H    0.003
    18   1 H    0.984 --     3 C    0.955
    19   1 H    0.984 --    10 C    0.966
    20   1 H    0.978 --    10 C    0.959
    21   1 H    0.978 --    10 C    0.959
    22   1 H    0.987 --    14 C    0.969
    23   1 H    0.986 --    14 C    0.968
    24   1 H    0.983 --    14 C    0.963
    25   1 H    0.948 --     4 N    0.920
 ---------------------------------------------------------------------------

molecular dipole:
                 x           y           z       tot (Debye)
 q only:        2.420      -1.814      -0.123
   full:        2.688      -2.292      -0.134       8.984

           -------------------------------------------------
          | TOTAL ENERGY              -42.108467614773 Eh   |
          | GRADIENT NORM               0.002989405949 Eh/α |
          | HOMO-LUMO GAP               0.276815161067 eV   |
           -------------------------------------------------

 * finished run on 2024/06/05 at 20:00:13.577
