   * xtb version 6.6.1 (8d0f1dd) compiled by 'conda@1efc2f54142f' on 2023-08-01
          program call               : xtb struc.xyz --opt loose --input .xc1 --gfn2

   ID    Z sym.   atoms
    1    7 N      1, 17
    2    6 C      2-6, 8, 9, 11-16, 18-23, 25, 26, 28-33
    3    8 O      7, 10, 24, 27
    4    1 H      34-72
constraining bond 19 26 to    6.0000000 Å, actual value:    3.7898337 Å

          :  Hamiltonian                  GFN2-xTB          :
 * total energy  :   -98.5319279 Eh     change       -0.4035485E-08 Eh
 * total energy  :   -98.7663783 Eh     change       -0.2344504E+00 Eh
 * total energy  :   -98.8975243 Eh     change       -0.1311460E+00 Eh
 * total energy  :   -98.9683611 Eh     change       -0.7083684E-01 Eh
 * total energy  :   -99.0167131 Eh     change       -0.4835201E-01 Eh
 * total energy  :   -99.0581040 Eh     change       -0.4139083E-01 Eh
 * total energy  :   -99.0989600 Eh     change       -0.4085601E-01 Eh
 * total energy  :   -99.1294467 Eh     change       -0.3048674E-01 Eh
 * total energy  :   -99.1536656 Eh     change       -0.2421890E-01 Eh
 * total energy  :   -99.1821434 Eh     change       -0.2847777E-01 Eh
 * total energy  :   -99.2453883 Eh     change       -0.4294579E-03 Eh
 * total energy  :   -99.2456920 Eh     change       -0.3037558E-03 Eh
 * total energy  :   -99.2459028 Eh     change       -0.2107833E-03 Eh
 * total energy  :   -99.2460837 Eh     change       -0.1809061E-03 Eh
 * total energy  :   -99.2462240 Eh     change       -0.1403074E-03 Eh
 * total energy  :   -99.2463393 Eh     change       -0.1153249E-03 Eh
 * total energy  :   -99.2464311 Eh     change       -0.9179731E-04 Eh
 * total energy  :   -99.2464875 Eh     change       -0.5634550E-04 Eh
 * total energy  :   -99.2465330 Eh     change       -0.4551239E-04 Eh
   *** GEOMETRY OPTIMIZATION CONVERGED AFTER 34 ITERATIONS ***

 final structure:
================
72
 xtb: 6.6.1 (8d0f1dd)
N           -1.88725262354814        2.89481308431356        2.09363674948831
C           -1.97742953989975        2.16562681903306        1.08399828262712
C           -3.23315329119661        1.97621062912729        0.27766761781355
C           -3.67007394298684        0.52224768314714        0.35898959115409
C           -4.63066267432045        0.03094138777149       -0.52721559238631
C           -5.06917473943040       -1.28149204062509       -0.46447743040429
O           -5.98831439550794       -1.83608568420694       -1.28125248866006
C           -6.62246339454145       -1.03773891848946       -2.25239052938589
C           -4.53426807875932       -2.15185456947075        0.52397553805030
O           -5.01375971476990       -3.41130679956460        0.50860185152220
C           -4.60292480354815       -4.31262638830179        1.51053837137383
C           -3.58907734814809       -1.65398732813892        1.40727947107673
C           -3.16378711408522       -0.33477178963346        1.32435097023527
C           -2.85328694509122        2.34778967827892       -1.18011005147049
C           -1.99077016791344        1.29972727115747       -1.90143783796954
C           -0.58062888878825        1.26192990071084       -1.44429791147753
N            0.13532034205564        0.17728428547766       -1.25378611469016
C            1.62087477165411        0.22606935603930       -1.29463599509226
C            2.05154105493710       -0.24440762258330       -2.61324333290216
C            4.96524355158452       -0.56567529552132       -0.39629911243318
C            5.41469328615255        0.66777844267007       -0.75879600152926
C            6.72353411704986        0.99800795129847       -0.39712207268695
C            7.51600165291823        0.09411724386473        0.29561501872802
O            8.78601797355050        0.31121598704391        0.69504480042842
C            9.39686773791250        1.54808628719668        0.40825805633907
C            7.00064501349071       -1.18929493139262        0.63996921235950
O            7.84570786325812       -1.99794424771203        1.29985362359048
C            7.43031713605376       -3.29647829117825        1.65254921345232
C            5.68875209794673       -1.50637673194098        0.27785051053449
C           -0.45591793556711       -1.14107440139516       -1.25371710100477
C           -4.42082717600780        2.86336928298937        0.75697555285421
C           -4.86483895214060        2.49022538277897        2.16940485350589
C           -4.12065917417182        4.35833064430169        0.69135272605256
H           -5.05173139263676        0.68883423261009       -1.26926393151235
H           -7.15511796903961       -0.19752690335304       -1.79715581902083
H           -7.33860658493540       -1.69235383198677       -2.74517975778483
H           -5.90892497018639       -0.66218414104133       -2.99329561905225
H           -4.85812897952962       -3.94410644006322        2.50854085728105
H           -5.14806335874360       -5.23437929564157        1.31573075155097
H           -3.52739745510218       -4.50997746671079        1.45691812297585
H           -3.18089214699641       -2.28514043800742        2.17966572762799
H           -2.44666746992509        0.02416376932494        2.04626925502129
H           -3.76849426989553        2.48828387411150       -1.75461752415764
H           -2.32297738271126        3.30074408276523       -1.17132148804149
H           -2.46197093559923        0.32088507264448       -1.82963637192955
H           -1.96708368828428        1.58101388965404       -2.96300075615704
H           -1.12427748622283        1.61419385327622        0.64472633859837
H           -0.04833717789977        2.20283214644420       -1.41476129632176
H            2.00060107898574       -0.40595484726471       -0.48872237135030
H            1.91116193263424        1.26244670740658       -1.10406834871504
H            1.92167469495160        0.38717755402530       -3.46962286921678
H            2.28828283304118       -1.27545130256283       -2.77527142043929
H            4.81035055812856        1.37193959454871       -1.30645250762821
H            7.10458883901762        1.96833979358710       -0.67279759053903
H            8.85783952096983        2.37840305545254        0.87464153431551
H            9.47049498932078        1.71815717465223       -0.67024010061490
H           10.39714475738882        1.48346690372195        0.83258795625046
H            8.28658626677721       -3.75339135403877        2.14461751640853
H            6.58487005354637       -3.27023984890389        2.34688521775474
H            7.16330371779190       -3.88450667353421        0.76921011791082
H            5.26821967787486       -2.46864154581070        0.52384510804625
H           -0.77758622993137       -1.44262888983055       -2.25238301031758
H           -1.31746686348922       -1.16067214282550       -0.58351517414846
H            0.28284183255858       -1.85630931649254       -0.90020622336613
H           -5.25446711198650        2.65296460231360        0.07641194604094
H           -4.06867294717003        2.69810084262444        2.87728197620554
H           -5.13068281801468        1.43790375352003        2.23394807717695
H           -5.73511819139371        3.07978697620554        2.44504992363213
H           -3.28002939157755        4.60111956530227        1.33428159760656
H           -3.90494457626721        4.68680336782365       -0.32208784419165
H           -4.98831112963935        4.91157179095959        1.04214680720143
H           -0.98174032736660        2.97581508118367        2.54497559619230

          :  Hamiltonian                  GFN2-xTB          :
         :: total energy             -99.246533001465 Eh    ::
         :: gradient norm              0.002825008039 Eh/a0 ::
         :: HOMO-LUMO gap              0.234667865624 eV    ::
         :: SCC energy              -100.629505684961 Eh    ::
         :: -> dispersion             -0.071840688644 Eh    ::
         :: repulsion energy           1.381665311339 Eh    ::

    * Orbital Energies and Occupations

         #    Occupation            Energy/Eh            Energy/eV
      -------------------------------------------------------------
         1        2.0000           -0.8094820             -22.0271
       ...           ...                  ...                  ...
        78        1.9981           -0.5286361             -14.3849
        79        1.9980           -0.5277375             -14.3605
        80        1.9971           -0.5219928             -14.2041
        81        1.9969           -0.5213346             -14.1862
        82        1.9953           -0.5145237             -14.0009
        83        1.9945           -0.5121257             -13.9356
        84        1.9935           -0.5094416             -13.8626
        85        1.9788           -0.4905702             -13.3491
        86        1.9716           -0.4859071             -13.2222
        87        1.9292           -0.4710866             -12.8189
        88        1.8578           -0.4594588             -12.5025
        89        1.8018           -0.4537206             -12.3464
        90        1.2601           -0.4271954             -11.6246 (HOMO)
        91        0.9938           -0.4185715             -11.3899 (LUMO)
        92        0.2228           -0.3858903             -10.5006
        93        0.0124           -0.3383608              -9.2073
        94        0.0031           -0.3165592              -8.6140
        95        0.0026           -0.3134711              -8.5300
        96        0.0024           -0.3119831              -8.4895
        97        0.0010           -0.2982964              -8.1171
        98        0.0000           -0.1908891              -5.1944
        99        0.0000           -0.1773844              -4.8269
       100                         -0.1369465              -3.7265
       101                         -0.0672393              -1.8297
       ...                                ...                  ...
       171                          0.5781431              15.7321
      -------------------------------------------------------------
                  HL-Gap            0.0086239 Eh            0.2347 eV

     #   Z          covCN         q      C6AA      α(0)
     1   7 N        1.774    -0.267    27.760     7.802
     2   6 C        2.828     0.102    25.736     8.313
     3   6 C        3.908     0.006    20.412     6.422
     4   6 C        2.974     0.002    27.977     8.676
     5   6 C        2.920    -0.080    30.007     8.983
     6   6 C        2.862     0.130    25.161     8.222
     7   8 O        1.706    -0.229    17.796     5.696
     8   6 C        3.644     0.027    20.452     6.500
     9   6 C        2.864     0.129    25.170     8.224
    10   8 O        1.706    -0.227    17.768     5.691
    11   6 C        3.645     0.026    20.465     6.502
    12   6 C        2.914    -0.073    29.829     8.956
    13   6 C        2.921    -0.052    29.286     8.875
    14   6 C        3.813    -0.064    21.727     6.635
    15   6 C        3.802    -0.070    21.835     6.653
    16   6 C        2.840     0.016    27.655     8.618
    17   7 N        2.732     0.011    21.068     6.817
    18   6 C        3.747    -0.007    20.775     6.501
    19   6 C        2.839    -0.132    31.357     9.177
    20   6 C        2.016    -0.069    32.903     9.264
    21   6 C        2.911    -0.028    28.697     8.784
    22   6 C        2.927    -0.062    29.545     8.914
    23   6 C        2.861     0.131    25.137     8.218
    24   8 O        1.706    -0.224    17.715     5.683
    25   6 C        3.644     0.025    20.484     6.505
    26   6 C        2.873     0.138    24.979     8.193
    27   8 O        1.706    -0.216    17.580     5.661
    28   6 C        3.645     0.026    20.468     6.502
    29   6 C        2.910    -0.058    29.433     8.896
    30   6 C        3.700    -0.067    21.951     6.700
    31   6 C        3.853    -0.007    20.668     6.466
    32   6 C        3.756    -0.118    22.819     6.811
    33   6 C        3.755    -0.119    22.842     6.815
    34   1 H        0.926     0.052     2.291     2.367
    35   1 H        0.924     0.054     2.268     2.355
    36   1 H        0.925     0.082     1.962     2.190
    37   1 H        0.924     0.047     2.354     2.399
    38   1 H        0.924     0.056     2.249     2.345
    39   1 H        0.925     0.082     1.963     2.191
    40   1 H        0.924     0.049     2.327     2.385
    41   1 H        0.926     0.054     2.275     2.359
    42   1 H        0.926     0.041     2.429     2.437
    43   1 H        0.925     0.061     2.193     2.316
    44   1 H        0.924     0.055     2.264     2.353
    45   1 H        0.925     0.066     2.127     2.281
    46   1 H        0.923     0.082     1.962     2.191
    47   1 H        0.922     0.007     2.934     2.679
    48   1 H        0.925     0.072     2.067     2.248
    49   1 H        0.924     0.070     2.085     2.258
    50   1 H        0.924     0.066     2.135     2.285
    51   1 H        0.926     0.043     2.406     2.426
    52   1 H        0.927     0.049     2.331     2.387
    53   1 H        0.926     0.056     2.248     2.345
    54   1 H        0.926     0.064     2.149     2.292
    55   1 H        0.924     0.054     2.266     2.354
    56   1 H        0.924     0.056     2.248     2.345
    57   1 H        0.925     0.083     1.949     2.183
    58   1 H        0.925     0.084     1.940     2.178
    59   1 H        0.924     0.055     2.258     2.350
    60   1 H        0.924     0.057     2.238     2.340
    61   1 H        0.926     0.063     2.165     2.301
    62   1 H        0.924     0.077     2.016     2.220
    63   1 H        0.924     0.077     2.013     2.219
    64   1 H        0.925     0.084     1.935     2.175
    65   1 H        0.924     0.037     2.483     2.464
    66   1 H        0.925     0.068     2.112     2.273
    67   1 H        0.925     0.036     2.509     2.477
    68   1 H        0.925     0.052     2.298     2.371
    69   1 H        0.925     0.063     2.162     2.299
    70   1 H        0.925     0.035     2.512     2.478
    71   1 H        0.925     0.055     2.262     2.352
    72   1 H        0.860     0.158     1.349     1.819

Wiberg/Mayer (AO) data.
largest (>0.10) Wiberg bond orders for each atom

     #   Z sym  total        # sym  WBO       # sym  WBO       # sym  WBO
 ---------------------------------------------------------------------------
     1   7 N    3.036 --     2 C    1.957    72 H    0.941
     2   6 C    3.932 --     1 N    1.957     3 C    0.993    47 H    0.904
     3   6 C    3.974 --     2 C    0.993     4 C    0.972    14 C    0.956
                            31 C    0.942
     4   6 C    3.946 --    13 C    1.411     5 C    1.369     3 C    0.972
     5   6 C    3.961 --     6 C    1.399     4 C    1.369    34 H    0.958
     6   6 C    3.902 --     5 C    1.399     9 C    1.221     7 O    1.100
     7   8 O    2.253 --     6 C    1.100     8 C    0.978
     8   6 C    3.932 --     7 O    0.978    36 H    0.977    37 H    0.973
                            35 H    0.973
     9   6 C    3.898 --    12 C    1.390     6 C    1.221    10 O    1.103
    10   8 O    2.251 --     9 C    1.103    11 C    0.977
    11   6 C    3.930 --    10 O    0.977    39 H    0.977    40 H    0.973
                            38 H    0.973
    12   6 C    3.961 --    13 C    1.407     9 C    1.390    41 H    0.963
    13   6 C    3.952 --     4 C    1.411    12 C    1.407    42 H    0.962
    14   6 C    3.977 --    15 C    0.986    44 H    0.972    43 H    0.968
                             3 C    0.956
    15   6 C    3.983 --    16 C    1.052    14 C    0.986    45 H    0.960
                            46 H    0.925
    16   6 C    3.689 --    17 N    1.472    15 C    1.052    48 H    0.955
    17   7 N    3.494 --    16 C    1.472    30 C    0.998    18 C    0.902
    18   6 C    3.944 --    19 C    1.075    49 H    0.962    50 H    0.958
                            17 N    0.902
    19   6 C    3.165 --    18 C    1.075    51 H    0.984    52 H    0.984
    20   6 C    3.053 --    21 C    1.454    29 C    1.449
    21   6 C    3.898 --    20 C    1.454    22 C    1.353    53 H    0.959
    22   6 C    3.897 --    23 C    1.393    21 C    1.353    54 H    0.953
    23   6 C    3.884 --    22 C    1.393    26 C    1.218    24 O    1.102
    24   8 O    2.236 --    23 C    1.102    25 C    0.976
    25   6 C    3.927 --    57 H    0.976    24 O    0.976    55 H    0.972
                            56 H    0.972
    26   6 C    3.837 --    29 C    1.330    23 C    1.218    27 O    1.111
    27   8 O    2.253 --    26 C    1.111    28 C    0.974
    28   6 C    3.925 --    58 H    0.976    27 O    0.974    60 H    0.972
                            59 H    0.972
    29   6 C    3.923 --    20 C    1.449    26 C    1.330    61 H    0.949
    30   6 C    3.956 --    17 N    0.998    64 H    0.976    62 H    0.966
                            63 H    0.965
    31   6 C    3.972 --    33 C    1.009    32 C    1.008    65 H    0.960
                             3 C    0.942
    32   6 C    3.978 --    31 C    1.008    67 H    0.981    68 H    0.981
                            66 H    0.974
    33   6 C    3.981 --    31 C    1.009    70 H    0.983    71 H    0.980
                            69 H    0.975
    34   1 H    0.996 --     5 C    0.958
    35   1 H    0.993 --     8 C    0.973
    36   1 H    0.993 --     8 C    0.977
    37   1 H    0.993 --     8 C    0.973
    38   1 H    0.992 --    11 C    0.973
    39   1 H    0.993 --    11 C    0.977
    40   1 H    0.993 --    11 C    0.973
    41   1 H    0.995 --    12 C    0.963
    42   1 H    0.998 --    13 C    0.962
    43   1 H    0.995 --    14 C    0.968
    44   1 H    0.996 --    14 C    0.972
    45   1 H    0.995 --    15 C    0.960
    46   1 H    0.974 --    15 C    0.925
    47   1 H    0.985 --     2 C    0.904
    48   1 H    0.994 --    16 C    0.955
    49   1 H    0.989 --    18 C    0.962
    50   1 H    0.981 --    18 C    0.958
    51   1 H    0.997 --    19 C    0.984
    52   1 H    0.996 --    19 C    0.984
    53   1 H    0.985 --    21 C    0.959
    54   1 H    0.983 --    22 C    0.953
    55   1 H    0.991 --    25 C    0.972
    56   1 H    0.990 --    25 C    0.972
    57   1 H    0.992 --    25 C    0.976
    58   1 H    0.992 --    28 C    0.976
    59   1 H    0.991 --    28 C    0.972
    60   1 H    0.991 --    28 C    0.972
    61   1 H    0.980 --    29 C    0.949
    62   1 H    0.986 --    30 C    0.966
    63   1 H    0.991 --    30 C    0.965
    64   1 H    0.992 --    30 C    0.976
    65   1 H    0.992 --    31 C    0.960
    66   1 H    0.991 --    32 C    0.974
    67   1 H    0.996 --    32 C    0.981
    68   1 H    0.994 --    32 C    0.981
    69   1 H    0.992 --    33 C    0.975
    70   1 H    0.997 --    33 C    0.983
    71   1 H    0.993 --    33 C    0.980
    72   1 H    0.969 --     1 N    0.941
 ---------------------------------------------------------------------------

molecular dipole:
                 x           y           z       tot (Debye)
 q only:        0.607       0.002      -0.728
   full:        0.963      -0.040      -0.920       3.387

           -------------------------------------------------
          | TOTAL ENERGY              -99.246533001465 Eh   |
          | GRADIENT NORM               0.002825008039 Eh/α |
          | HOMO-LUMO GAP               0.234667865624 eV   |
           -------------------------------------------------

 * finished run on 2024/04/06 at 11:13:46.863
