   * xtb version 6.6.1 (8d0f1dd) compiled by 'conda@1efc2f54142f' on 2023-08-01
          program call               : xtb struc.xyz --opt loose --input .xc1 --gfn2

   ID    Z sym.   atoms
    1    7 N      1, 17
    2    6 C      2-6, 8, 9, 11-16, 18-23, 25, 26, 28-33
    3    8 O      7, 10, 24, 27
    4    1 H      34-72
constraining bond 6 8 to    5.0000000 Å, actual value:    2.3793203 Å

          :  Hamiltonian                  GFN2-xTB          :
 * total energy  :   -98.1778343 Eh     change       -0.4035485E-08 Eh
 * total energy  :   -98.4553208 Eh     change       -0.2774866E+00 Eh
 * total energy  :   -98.6563965 Eh     change       -0.2010757E+00 Eh
 * total energy  :   -98.7969541 Eh     change       -0.1405576E+00 Eh
 * total energy  :   -98.9028924 Eh     change       -0.1059383E+00 Eh
 * total energy  :   -98.9737221 Eh     change       -0.7082969E-01 Eh
 * total energy  :   -99.0270397 Eh     change       -0.5331765E-01 Eh
 * total energy  :   -99.0855456 Eh     change       -0.5850591E-01 Eh
 * total energy  :   -99.1621769 Eh     change       -0.7663124E-01 Eh
 * total energy  :   -99.2138689 Eh     change       -0.5169199E-01 Eh
 * total energy  :   -99.2941869 Eh     change       -0.5963872E-04 Eh
 * total energy  :   -99.2942560 Eh     change       -0.6901802E-04 Eh
 * total energy  :   -99.2943406 Eh     change       -0.8459622E-04 Eh
 * total energy  :   -99.2944275 Eh     change       -0.8695989E-04 Eh
 * total energy  :   -99.2945057 Eh     change       -0.7814814E-04 Eh
 * total energy  :   -99.2945702 Eh     change       -0.6456132E-04 Eh
 * total energy  :   -99.2945892 Eh     change       -0.1895531E-04 Eh
 * total energy  :   -99.2946533 Eh     change       -0.6407629E-04 Eh
 * total energy  :   -99.2946925 Eh     change       -0.3926803E-04 Eh
   *** GEOMETRY OPTIMIZATION CONVERGED AFTER 35 ITERATIONS ***

 final structure:
================
72
 xtb: 6.6.1 (8d0f1dd)
N           -1.75770375883879        3.00040893359476        2.27436410984986
C           -1.73165619404161        2.19832160901422        1.31884823516851
C           -2.87776680806109        1.95203093212618        0.37845789079639
C           -3.29408708567793        0.49005788293197        0.45444095787243
C           -4.08368083554304       -0.05592347031926       -0.53282805379720
C           -4.53784294571424       -1.41199653807303       -0.51562786288977
O           -5.22642202074413       -1.89203683723535       -1.42930225426458
C           -8.17441854472573       -1.03670581027789       -3.92267540966502
C           -4.13579324844110       -2.20249854743859        0.65165794978366
O           -4.59954562569329       -3.45691681210171        0.64569435044167
C           -4.33071894207745       -4.31256797259972        1.73286561680539
C           -3.34869128764180       -1.62906569517784        1.63545915522054
C           -2.92666804544666       -0.30914940195546        1.54327755345403
C           -2.34020719034125        2.29724612272800       -1.03547085504953
C           -1.40201005720924        1.24245462216486       -1.64981754435728
C           -0.07461958459690        1.17010036982918       -1.00520393284649
N            0.55494506574496        0.05721474424667       -0.66638669382107
C            1.93355365974601        0.09111072785815       -0.23653364158398
C            2.89078630633469       -0.37088369316084       -1.35294812930961
C            4.31618823964401       -0.17572464951374       -0.91650027913000
C            4.95745276554829        1.03351248028967       -1.13563440100679
C            6.26086480589214        1.23431971034905       -0.71004910015225
C            6.95084116164826        0.22761095145333       -0.04901256227638
O            8.21174734604465        0.31099026312134        0.40969940138908
C            8.93751925026019        1.50407657717100        0.21933822960947
C            6.30147135670875       -1.01827530649142        0.17996282818295
O            7.04492532328723       -1.93979472731213        0.82091443353994
C            6.50519976102725       -3.21645811241825        1.06762205729282
C            4.99627416191987       -1.19448306635601       -0.25400292874644
C           -0.07039434545142       -1.24004721878942       -0.77837814613896
C           -4.13743265550193        2.81584270272957        0.68571519969185
C           -4.71982888373552        2.48980396822778        2.05873216553175
C           -3.88127522941315        4.31646510375122        0.57973470139069
H           -4.41504442528522        0.53015634333485       -1.37552526129565
H           -8.79208893620768       -0.31149192768754       -3.43676855778060
H           -8.14206236232380       -2.04146788256018       -3.56057287801092
H           -7.57156416082346       -0.75081674669873       -4.75820299797521
H           -4.74686586330580       -3.91470836999829        2.66281778248315
H           -4.81700367995327       -5.25527181741240        1.49145384716672
H           -3.25580267155005       -4.47779688813537        1.85400102623289
H           -3.06426970769673       -2.20561901300287        2.50233930917010
H           -2.33612403676496        0.10460910990973        2.34608676590748
H           -3.18904157945433        2.41694484230304       -1.70770693785746
H           -1.81957732657223        3.25468833316554       -0.98608792941553
H           -1.90016411548625        0.27509523206916       -1.66396489828029
H           -1.23614691147269        1.54704566438593       -2.69137682480576
H           -0.83594367184710        1.61751861968857        1.02905543493639
H            0.48376852452949        2.09042980927430       -0.90990063808672
H            2.05414440155161       -0.55399728592874        0.63799484073463
H            2.19671041416380        1.11093611362982        0.05153516930237
H            2.69463701174639        0.22127845547266       -2.24846129096506
H            2.70783835248629       -1.42023565127245       -1.58583100442060
H            4.44610155429302        1.82948947778057       -1.65535175669910
H            6.73544238066308        2.18221962558722       -0.90327675927511
H            8.45401803188450        2.35040224882007        0.71651938906719
H            9.06649207141187        1.72881412447404       -0.84353004195979
H            9.91149908395288        1.32838547089812        0.67180914764158
H            7.29151036960848       -3.77254514030168        1.57435014937621
H            5.62577955637156       -3.16191045507762        1.71717546732953
H            6.24301613136226       -3.72780737308329        0.13634161422270
H            4.49871628263332       -2.13775358179797       -0.09134508212818
H           -0.26526937743959       -1.49638434706984       -1.82117573521553
H           -1.01655771569055       -1.25550963024445       -0.23257399700636
H            0.58740196321767       -1.99308339347811       -0.35337059575264
H           -4.88385189164293        2.53988607488808       -0.06841136004624
H           -4.01340534877621        2.75749358551684        2.83860287192813
H           -4.96020294154829        1.43278011385523        2.14342249219802
H           -5.63309277731082        3.05884425146605        2.21059455711651
H           -3.11156390043444        4.61729582958336        1.28411138399188
H           -3.58564418457217        4.60973046248739       -0.42391159487396
H           -4.79509681771218        4.85085466258695        0.82594162833231
H           -0.91518204395248        3.11660073271410        2.82804506630490

          :  Hamiltonian                  GFN2-xTB          :
         :: total energy             -99.294692532483 Eh    ::
         :: gradient norm              0.003323604532 Eh/a0 ::
         :: HOMO-LUMO gap              0.421878241269 eV    ::
         :: SCC energy              -100.680819885160 Eh    ::
         :: -> dispersion             -0.072462297279 Eh    ::
         :: repulsion energy           1.384969392221 Eh    ::

    * Orbital Energies and Occupations

         #    Occupation            Energy/Eh            Energy/eV
      -------------------------------------------------------------
         1        2.0000           -0.8116300             -22.0856
       ...           ...                  ...                  ...
        78        1.9978           -0.5316952             -14.4682
        79        1.9973           -0.5288200             -14.3899
        80        1.9966           -0.5248941             -14.2831
        81        1.9958           -0.5217604             -14.1978
        82        1.9942           -0.5163619             -14.0509
        83        1.9927           -0.5128369             -13.9550
        84        1.9921           -0.5115141             -13.9190
        85        1.9757           -0.4936594             -13.4332
        86        1.9554           -0.4838708             -13.1668
        87        1.9168           -0.4736747             -12.8893
        88        1.8359           -0.4622386             -12.5782
        89        1.8222           -0.4608442             -12.5402
        90        1.3218           -0.4345649             -11.8251 (HOMO)
        91        0.8453           -0.4190612             -11.4032 (LUMO)
        92        0.3557           -0.3997564             -10.8779
        93        0.0108           -0.3414410              -9.2911
        94        0.0024           -0.3176448              -8.6436
        95        0.0021           -0.3154666              -8.5843
        96        0.0015           -0.3100584              -8.4371
        97        0.0007           -0.2978435              -8.1047
        98        0.0000           -0.1930074              -5.2520
        99        0.0000           -0.1850950              -5.0367
       100                         -0.1411273              -3.8403
       101                         -0.0720956              -1.9618
       ...                                ...                  ...
       171                          0.6000610              16.3285
      -------------------------------------------------------------
                  HL-Gap            0.0155037 Eh            0.4219 eV

     #   Z          covCN         q      C6AA      α(0)
     1   7 N        1.774    -0.266    27.718     7.796
     2   6 C        2.828     0.103    25.705     8.308
     3   6 C        3.908     0.007    20.407     6.421
     4   6 C        2.967     0.004    27.926     8.668
     5   6 C        2.918    -0.079    29.984     8.979
     6   6 C        2.828     0.194    23.861     8.004
     7   8 O        0.858    -0.380    21.284     6.185
     8   6 C        2.780    -0.110    30.769     9.085
     9   6 C        2.857     0.123    25.297     8.244
    10   8 O        1.706    -0.201    17.356     5.625
    11   6 C        3.645     0.024    20.500     6.508
    12   6 C        2.905    -0.074    29.849     8.958
    13   6 C        2.920    -0.049    29.220     8.864
    14   6 C        3.812    -0.065    21.736     6.636
    15   6 C        3.802    -0.072    21.884     6.660
    16   6 C        2.844     0.013    27.708     8.627
    17   7 N        2.729     0.019    20.922     6.793
    18   6 C        3.756    -0.018    20.943     6.525
    19   6 C        3.808    -0.071    21.851     6.654
    20   6 C        2.969     0.001    28.003     8.680
    21   6 C        2.922    -0.048    29.193     8.860
    22   6 C        2.913    -0.067    29.663     8.931
    23   6 C        2.865     0.135    25.055     8.205
    24   8 O        1.706    -0.218    17.623     5.668
    25   6 C        3.645     0.024    20.508     6.508
    26   6 C        2.862     0.134    25.063     8.206
    27   8 O        1.706    -0.221    17.671     5.676
    28   6 C        3.645     0.026    20.474     6.504
    29   6 C        2.919    -0.079    29.970     8.977
    30   6 C        3.700    -0.072    22.042     6.714
    31   6 C        3.854    -0.008    20.680     6.468
    32   6 C        3.756    -0.117    22.796     6.808
    33   6 C        3.755    -0.120    22.855     6.817
    34   1 H        0.926     0.060     2.200     2.320
    35   1 H        0.927     0.086     1.922     2.168
    36   1 H        0.927     0.095     1.827     2.114
    37   1 H        0.927     0.085     1.926     2.170
    38   1 H        0.924     0.060     2.194     2.316
    39   1 H        0.925     0.085     1.928     2.172
    40   1 H        0.924     0.053     2.288     2.365
    41   1 H        0.926     0.048     2.340     2.392
    42   1 H        0.926     0.038     2.479     2.462
    43   1 H        0.925     0.068     2.112     2.273
    44   1 H        0.924     0.055     2.261     2.351
    45   1 H        0.925     0.075     2.034     2.230
    46   1 H        0.924     0.087     1.912     2.163
    47   1 H        0.922     0.004     2.994     2.706
    48   1 H        0.926     0.073     2.058     2.243
    49   1 H        0.924     0.069     2.092     2.262
    50   1 H        0.924     0.069     2.098     2.265
    51   1 H        0.924     0.057     2.233     2.337
    52   1 H        0.924     0.058     2.226     2.333
    53   1 H        0.926     0.047     2.360     2.402
    54   1 H        0.926     0.060     2.195     2.317
    55   1 H        0.924     0.056     2.250     2.346
    56   1 H        0.924     0.058     2.225     2.333
    57   1 H        0.925     0.084     1.937     2.177
    58   1 H        0.925     0.084     1.942     2.179
    59   1 H        0.924     0.050     2.318     2.381
    60   1 H        0.924     0.054     2.265     2.354
    61   1 H        0.926     0.049     2.332     2.388
    62   1 H        0.924     0.082     1.955     2.186
    63   1 H        0.924     0.082     1.963     2.191
    64   1 H        0.925     0.082     1.956     2.187
    65   1 H        0.924     0.044     2.397     2.421
    66   1 H        0.925     0.066     2.126     2.280
    67   1 H        0.925     0.037     2.483     2.464
    68   1 H        0.925     0.053     2.279     2.361
    69   1 H        0.925     0.064     2.153     2.295
    70   1 H        0.925     0.037     2.491     2.468
    71   1 H        0.925     0.056     2.241     2.341
    72   1 H        0.860     0.158     1.348     1.818

Wiberg/Mayer (AO) data.
largest (>0.10) Wiberg bond orders for each atom

     #   Z sym  total        # sym  WBO       # sym  WBO       # sym  WBO
 ---------------------------------------------------------------------------
     1   7 N    3.035 --     2 C    1.955    72 H    0.941
     2   6 C    3.933 --     1 N    1.955     3 C    0.995    47 H    0.905
     3   6 C    3.968 --     2 C    0.995     4 C    0.966    14 C    0.955
                            31 C    0.940
     4   6 C    3.936 --     5 C    1.478    13 C    1.327     3 C    0.966
     5   6 C    3.801 --     4 C    1.478     6 C    1.172    34 H    0.960
     6   6 C    3.889 --     7 O    1.563     5 C    1.172     9 C    1.058
     7   8 O    1.705 --     6 C    1.563
     8   6 C    2.970 --    37 H    0.991    35 H    0.991    36 H    0.989
     9   6 C    3.741 --    12 C    1.396    10 O    1.139     6 C    1.058
    10   8 O    2.248 --     9 C    1.139    11 C    0.974
    11   6 C    3.926 --    39 H    0.976    10 O    0.974    40 H    0.971
                            38 H    0.970
    12   6 C    3.944 --    13 C    1.406     9 C    1.396    41 H    0.960
    13   6 C    3.813 --    12 C    1.406     4 C    1.327    42 H    0.963
    14   6 C    3.971 --    15 C    0.979    44 H    0.972    43 H    0.966
                             3 C    0.955
    15   6 C    3.983 --    16 C    1.064    14 C    0.979    45 H    0.958
                            46 H    0.922
    16   6 C    3.620 --    17 N    1.427    15 C    1.064    48 H    0.956
    17   7 N    3.502 --    16 C    1.427    30 C    0.996    18 C    0.987
    18   6 C    3.954 --    17 N    0.987    50 H    0.968    19 C    0.966
                            49 H    0.963
    19   6 C    3.977 --    20 C    1.008    52 H    0.972    51 H    0.971
                            18 C    0.966
    20   6 C    3.940 --    21 C    1.405    29 C    1.382    19 C    1.008
    21   6 C    3.946 --    22 C    1.419    20 C    1.405    53 H    0.968
    22   6 C    3.957 --    21 C    1.419    23 C    1.380    54 H    0.963
    23   6 C    3.890 --    22 C    1.380    26 C    1.216    24 O    1.115
    24   8 O    2.256 --    23 C    1.115    25 C    0.975
    25   6 C    3.926 --    57 H    0.976    24 O    0.975    55 H    0.972
                            56 H    0.972
    26   6 C    3.894 --    29 C    1.392    23 C    1.216    27 O    1.108
    27   8 O    2.255 --    26 C    1.108    28 C    0.977
    28   6 C    3.930 --    27 O    0.977    58 H    0.976    59 H    0.973
                            60 H    0.973
    29   6 C    3.957 --    26 C    1.392    20 C    1.382    61 H    0.962
    30   6 C    3.955 --    17 N    0.996    64 H    0.977    62 H    0.965
                            63 H    0.962
    31   6 C    3.967 --    32 C    1.008    33 C    1.008    65 H    0.958
                             3 C    0.940
    32   6 C    3.974 --    31 C    1.008    68 H    0.980    67 H    0.980
                            66 H    0.973
    33   6 C    3.977 --    31 C    1.008    70 H    0.982    71 H    0.979
                            69 H    0.974
    34   1 H    0.992 --     5 C    0.960
    35   1 H    0.992 --     8 C    0.991
    36   1 H    0.990 --     8 C    0.989
    37   1 H    0.992 --     8 C    0.991
    38   1 H    0.988 --    11 C    0.970
    39   1 H    0.992 --    11 C    0.976
    40   1 H    0.989 --    11 C    0.971
    41   1 H    0.992 --    12 C    0.960
    42   1 H    0.998 --    13 C    0.963
    43   1 H    0.994 --    14 C    0.966
    44   1 H    0.996 --    14 C    0.972
    45   1 H    0.994 --    15 C    0.958
    46   1 H    0.970 --    15 C    0.922
    47   1 H    0.983 --     2 C    0.905
    48   1 H    0.994 --    16 C    0.956
    49   1 H    0.990 --    18 C    0.963
    50   1 H    0.994 --    18 C    0.968
    51   1 H    0.995 --    19 C    0.971
    52   1 H    0.996 --    19 C    0.972
    53   1 H    0.997 --    21 C    0.968
    54   1 H    0.995 --    22 C    0.963
    55   1 H    0.991 --    25 C    0.972
    56   1 H    0.990 --    25 C    0.972
    57   1 H    0.992 --    25 C    0.976
    58   1 H    0.992 --    28 C    0.976
    59   1 H    0.992 --    28 C    0.973
    60   1 H    0.992 --    28 C    0.973
    61   1 H    0.996 --    29 C    0.962
    62   1 H    0.985 --    30 C    0.965
    63   1 H    0.987 --    30 C    0.962
    64   1 H    0.993 --    30 C    0.977
    65   1 H    0.989 --    31 C    0.958
    66   1 H    0.990 --    32 C    0.973
    67   1 H    0.995 --    32 C    0.980
    68   1 H    0.993 --    32 C    0.980
    69   1 H    0.991 --    33 C    0.974
    70   1 H    0.996 --    33 C    0.982
    71   1 H    0.992 --    33 C    0.979
    72   1 H    0.969 --     1 N    0.941
 ---------------------------------------------------------------------------

molecular dipole:
                 x           y           z       tot (Debye)
 q only:        1.494       0.327      -0.482
   full:        1.873       0.205      -0.384       4.889

           -------------------------------------------------
          | TOTAL ENERGY              -99.294692532483 Eh   |
          | GRADIENT NORM               0.003323604532 Eh/α |
          | HOMO-LUMO GAP               0.421878241269 eV   |
           -------------------------------------------------

 * finished run on 2024/04/06 at 11:12:33.514
