   * xtb version 6.6.1 (8d0f1dd) compiled by 'conda@1efc2f54142f' on 2023-08-01
          program call               : xtb struc.xyz --opt loose --input .xc1 --gfn2

   ID    Z sym.   atoms
    1    6 C      1, 3, 5-7, 10, 11, 14
    2    7 N      2, 4, 9, 13
    3    8 O      8, 12
    4    1 H      15-25
constraining bond 6 25 to    3.7133300 Å, actual value:    3.1881491 Å

          :  Hamiltonian                  GFN2-xTB          :
 * total energy  :   -42.7403350 Eh     change       -0.6650680E-10 Eh
 * total energy  :   -44.6630836 Eh     change       -0.1922749E+01 Eh
 * total energy  :   -47.3509656 Eh     change       -0.2687882E+01 Eh
 * total energy  :   -50.5169300 Eh     change       -0.3165964E+01 Eh
 * total energy  :   -54.0472328 Eh     change       -0.3530303E+01 Eh
 * total energy  :   -56.8793394 Eh     change       -0.2832107E+01 Eh
 * total energy  :   -57.9230496 Eh     change       -0.1043710E+01 Eh
 * total energy  :   -58.8718587 Eh     change       -0.9488091E+00 Eh
 * total energy  :   -58.9283542 Eh     change       -0.5649552E-01 Eh
 * total energy  :   -56.0067121 Eh     change        0.2921642E+01 Eh
 * total energy  :   -59.7418903 Eh     change       -0.1267541E-03 Eh
 * total energy  :   -59.7419966 Eh     change       -0.1062960E-03 Eh
 * total energy  :   -59.7420440 Eh     change       -0.4739779E-04 Eh
 * total energy  :   -59.7421204 Eh     change       -0.7641904E-04 Eh
 * total energy  :   -59.7421716 Eh     change       -0.5120709E-04 Eh
 * total energy  :   -59.7422165 Eh     change       -0.4487571E-04 Eh
 * total energy  :   -59.7422486 Eh     change       -0.3207915E-04 Eh
 * total energy  :   -59.7422608 Eh     change       -0.1222876E-04 Eh
 * total energy  :   -59.7422683 Eh     change       -0.7568722E-05 Eh
   *** GEOMETRY OPTIMIZATION CONVERGED AFTER 84 ITERATIONS ***

 final structure:
================
25
 xtb: 6.6.1 (8d0f1dd)
C            5.03462265321861        0.76437762511646       -0.53039796746276
N            3.76049597428535        0.19767307856363       -0.51866338421619
C            2.99101960038280       -0.01449736804126        0.48317653254836
N            1.76271449150849       -0.40715351711805        0.41423676572131
C           -0.48493093470400       -0.68589677448140        0.12189991142394
C            0.82874124178525       -1.29146997953532        0.15000594085118
C           -0.79216865067669        0.74351980714320        0.33015634385437
O           -0.03267753309999        1.64579902495369        0.57582411527799
N           -2.16410246657823        0.82794781499874        0.17931611369151
C           -2.93168250746151        2.04279461699543        0.29046675394573
C           -2.71933835970205       -0.40252703651511       -0.10090938904874
O           -3.86564346977009       -0.67814037157725       -0.29120139286855
N           -1.64430214464651       -1.32465425219769       -0.12807168111682
C           -1.84531047949660       -2.71821556926660       -0.39812985807857
H            5.46637632738736        0.91025756699765        0.46906042129091
H            5.69497608270819        0.12078123426881       -1.12033541688746
H            4.98959288056158        1.73212019925346       -1.04317998551086
H            3.31309471704793        0.23996182176683        1.50767239353908
H           -2.23795228244030        2.88136943116487        0.31619761405204
H           -3.60509350002075        2.13000854223639       -0.56283804847294
H           -3.52921601982370        2.03221393706662        1.20437969091178
H           -1.48338660801051       -3.32801571168793        0.43160751483510
H           -1.32266063998759       -3.01447239786398       -1.30985063618551
H           -2.91573116202921       -2.87929142979801       -0.52790637313886
H            0.89299430363869       -1.70625175085085        0.08865563895176

          :  Hamiltonian                  GFN2-xTB          :
         :: total energy             -59.742268350210 Eh    ::
         :: gradient norm              0.002948016432 Eh/a0 ::
         :: HOMO-LUMO gap              0.554250584146 eV    ::
         :: SCC energy               -42.706795658497 Eh    ::
         :: -> dispersion             -0.019702479287 Eh    ::
         :: repulsion energy           2.281262634797 Eh    ::

    * Orbital Energies and Occupations

         #    Occupation            Energy/Eh            Energy/eV
      -------------------------------------------------------------
         1        2.0000           -0.8910542             -24.2468
       ...           ...                  ...                  ...
        25        1.9998           -0.6680231             -18.1778
        26        1.9995           -0.6517718             -17.7356
        27        1.9992           -0.6438046             -17.5188
        28        1.9984           -0.6335470             -17.2397
        29        1.9984           -0.6330689             -17.2267
        30        1.9968           -0.6223723             -16.9356
        31        1.9955           -0.6170905             -16.7919
        32        1.9921           -0.6080007             -16.5445
        33        1.9807           -0.5938383             -16.1592
        34        1.9363           -0.5745821             -15.6352
        35        1.9147           -0.5697758             -15.5044
        36        1.6422           -0.5446472             -14.8206
        37        1.5543           -0.5403011             -14.7023 (HOMO)
        38        0.9814           -0.5199327             -14.1481 (LUMO)
        39        0.0110           -0.4382398             -11.9251
        40        0.0002           -0.3733817             -10.1602
        41        0.0000           -0.3489214              -9.4946
        42        0.0000           -0.3255508              -8.8587
        43                         -0.1846313              -5.0241
        44                         -0.1386012              -3.7715
        45                         -0.1112628              -3.0276
        46                         -0.0528755              -1.4388
        47                         -0.0278918              -0.7590
        48                         -0.0084197              -0.2291
       ...                                ...                  ...
        67                         10.5221252             286.3216
      -------------------------------------------------------------
                  HL-Gap            0.0203683 Eh            0.5543 eV

     #   Z          covCN         q      C6AA      α(0)
     1   6 C        3.695    -0.050    21.642     6.655
     2   7 N        1.833    -0.109    24.144     7.281
     3   6 C        2.760     0.140    24.924     8.176
     4   7 N        1.901    -0.063    23.203     7.141
     5   6 C        3.036     0.021    27.515     8.604
     6   6 C        2.824     0.011    27.751     8.632
     7   6 C        2.843     0.268    22.488     7.772
     8   8 O        0.857    -0.315    20.052     6.004
     9   7 N        2.795    -0.070    22.586     7.058
    10   6 C        3.690    -0.059    21.840     6.688
    11   6 C        2.828     0.318    21.600     7.616
    12   8 O        0.857    -0.313    20.016     5.998
    13   7 N        2.786    -0.017    21.570     6.898
    14   6 C        3.690    -0.074    22.106     6.729
    15   1 H        0.923     0.096     1.822     2.111
    16   1 H        0.924     0.123     1.588     1.971
    17   1 H        0.924     0.125     1.576     1.963
    18   1 H        0.923     0.118     1.632     1.998
    19   1 H        0.925     0.113     1.673     2.023
    20   1 H        0.924     0.109     1.706     2.043
    21   1 H        0.924     0.107     1.723     2.053
    22   1 H        0.924     0.103     1.757     2.073
    23   1 H        0.924     0.104     1.751     2.069
    24   1 H        0.924     0.123     1.586     1.970
    25   1 H        0.982     0.190     1.146     1.673

Wiberg/Mayer (AO) data.
largest (>0.10) Wiberg bond orders for each atom

     #   Z sym  total        # sym  WBO       # sym  WBO       # sym  WBO
 ---------------------------------------------------------------------------
     1   6 C    3.876 --     2 N    1.094    16 H    0.920    15 H    0.919
                            17 H    0.910
     2   7 N    2.773 --     3 C    1.545     1 C    1.094
     3   6 C    3.926 --     2 N    1.545     4 N    1.417    18 H    0.855
     4   7 N    3.138 --     6 C    1.532     3 C    1.417
     5   6 C    3.685 --    13 N    1.267     6 C    1.217     7 C    1.013
     6   6 C    3.850 --     4 N    1.532     5 C    1.217    25 H    0.928
     7   6 C    3.922 --     8 O    1.705     9 N    1.113     5 C    1.013
     8   8 O    1.972 --     7 C    1.705     9 N    0.126
     9   7 N    3.510 --     7 C    1.113    11 C    1.109    10 C    0.983
                             8 O    0.126    12 O    0.116
    10   6 C    3.893 --     9 N    0.983    19 H    0.966    20 H    0.955
                            21 H    0.948
    11   6 C    3.930 --    12 O    1.726     9 N    1.109    13 N    1.012
    12   8 O    2.010 --    11 C    1.726     9 N    0.116
    13   7 N    3.460 --     5 C    1.267    11 C    1.012    14 C    0.995
    14   6 C    3.911 --    13 N    0.995    24 H    0.965    22 H    0.953
                            23 H    0.951
    15   1 H    0.923 --     1 C    0.919
    16   1 H    0.945 --     1 C    0.920
    17   1 H    0.936 --     1 C    0.910
    18   1 H    0.898 --     3 C    0.855
    19   1 H    0.981 --    10 C    0.966
    20   1 H    0.972 --    10 C    0.955
    21   1 H    0.967 --    10 C    0.948
    22   1 H    0.971 --    14 C    0.953
    23   1 H    0.970 --    14 C    0.951
    24   1 H    0.983 --    14 C    0.965
    25   1 H    0.951 --     6 C    0.928
 ---------------------------------------------------------------------------

molecular dipole:
                 x           y           z       tot (Debye)
 q only:        1.916      -0.892       0.027
   full:        2.103      -0.991       0.248       5.942

           -------------------------------------------------
          | TOTAL ENERGY              -59.742268350210 Eh   |
          | GRADIENT NORM               0.002948016432 Eh/α |
          | HOMO-LUMO GAP               0.554250584146 eV   |
           -------------------------------------------------

 * finished run on 2024/06/05 at 19:59:14.183
