   * xtb version 6.6.1 (8d0f1dd) compiled by 'conda@1efc2f54142f' on 2023-08-01
          program call               : xtb xtbopt.xyz --opt crude --input .xc2 --gfn2

   ID    Z sym.   atoms
    1    6 C      1, 3, 5-7, 10, 11, 14
    2    7 N      2, 4, 9, 13
    3    8 O      8, 12
    4    1 H      15-25
########################################################################
[WARNING] Please study the warnings concerning your input carefully
-1- readin_getIntValue: could not parse ''
########################################################################

          :  Hamiltonian                  GFN2-xTB          :
 * total energy  :   -40.4255809 Eh     change       -0.1421085E-13 Eh
 * total energy  :   -42.1274200 Eh     change       -0.1701839E+01 Eh
 * total energy  :   -42.1499019 Eh     change       -0.2248191E-01 Eh
 * total energy  :   -42.1538149 Eh     change       -0.3913009E-02 Eh
 * total energy  :   -42.1556247 Eh     change       -0.1809781E-02 Eh
 * total energy  :   -42.1561833 Eh     change       -0.5585975E-03 Eh
 * total energy  :   -42.1568211 Eh     change       -0.6378024E-03 Eh
 * total energy  :   -42.1572675 Eh     change       -0.4464101E-03 Eh
 * total energy  :   -42.1576191 Eh     change       -0.3516147E-03 Eh
   *** GEOMETRY OPTIMIZATION CONVERGED AFTER 9 ITERATIONS ***

 final structure:
================
25
 xtb: 6.6.1 (8d0f1dd)
C            5.05578384267554        0.79665285396858       -0.52250288962037
N            3.77922511353697        0.23705001211681       -0.52464890298764
C            3.01943954863932       -0.02857024380767        0.46891709117835
N            1.78602699713486       -0.39960901651724        0.37985077188140
C           -0.49271740068920       -0.64836218802551        0.12390832443666
C            0.80441781476178       -1.17773403997687        0.16852430162814
C           -0.80373370995995        0.77916761792250        0.31890399759096
O           -0.05750261327605        1.69564030290414        0.55131001438004
N           -2.17890307767345        0.85138504159249        0.17262990360772
C           -2.96293048247879        2.05434035161192        0.28650782603716
C           -2.72720559185561       -0.38439577658695       -0.09411775324223
O           -3.87309821802597       -0.66634004874358       -0.28043276896690
N           -1.64926508732309       -1.29997065885516       -0.11450198816435
C           -1.84649966192129       -2.69376672446621       -0.38246442330280
H            5.47380641261058        0.94423187106036        0.48209359861858
H            5.72144793183938        0.14931136709409       -1.10167369966631
H            5.01557977963212        1.76204432833522       -1.03808914959191
H            3.35176227645704        0.16867122180216        1.50362703036111
H           -2.28481729766184        2.90507784159775        0.30969459359349
H           -3.64111067848191        2.12849072624402       -0.56421814516793
H           -3.55721355069773        2.03165078116819        1.20228258778126
H           -1.49385671290631       -3.30217052763687        0.45219854956825
H           -1.31906853618510       -2.99169436417253       -1.29073500189094
H           -2.91657380718313       -2.85154315832874       -0.51872772084502
H            0.95743822310833       -2.24131902870856        0.04283547069111

          :  Hamiltonian                  GFN2-xTB          :
         :: total energy             -42.157619149787 Eh    ::
         :: gradient norm              0.009803474869 Eh/a0 ::
         :: HOMO-LUMO gap              0.616855687274 eV    ::
         :: SCC energy               -42.706591179535 Eh    ::
         :: -> dispersion             -0.019630615656 Eh    ::
         :: repulsion energy           0.549019841747 Eh    ::

    * Orbital Energies and Occupations

         #    Occupation            Energy/Eh            Energy/eV
      -------------------------------------------------------------
         1        2.0000           -0.8895440             -24.2057
       ...           ...                  ...                  ...
        25        1.9998           -0.6661122             -18.1258
        26        1.9995           -0.6510972             -17.7173
        27        1.9992           -0.6423126             -17.4782
        28        1.9985           -0.6333382             -17.2340
        29        1.9985           -0.6328374             -17.2204
        30        1.9969           -0.6215212             -16.9125
        31        1.9955           -0.6157679             -16.7559
        32        1.9923           -0.6072714             -16.5247
        33        1.9804           -0.5923457             -16.1185
        34        1.9317           -0.5721615             -15.5693
        35        1.9120           -0.5679816             -15.4556
        36        1.6350           -0.5429696             -14.7750
        37        1.5916           -0.5407642             -14.7149 (HOMO)
        38        0.9642           -0.5180952             -14.0981 (LUMO)
        39        0.0050           -0.4243981             -11.5485
        40        0.0002           -0.3737107             -10.1692
        41        0.0000           -0.3451054              -9.3908
        42        0.0000           -0.3153804              -8.5819
        43                         -0.1816184              -4.9421
        44                         -0.1388817              -3.7792
        45                         -0.1002152              -2.7270
        46                         -0.0492282              -1.3396
        47                         -0.0397961              -1.0829
        48                         -0.0188454              -0.5128
       ...                                ...                  ...
        67                          0.6288718              17.1125
      -------------------------------------------------------------
                  HL-Gap            0.0226690 Eh            0.6169 eV

     #   Z          covCN         q      C6AA      α(0)
     1   6 C        3.695    -0.050    21.643     6.655
     2   7 N        1.835    -0.109    24.149     7.282
     3   6 C        2.761     0.140    24.925     8.176
     4   7 N        1.858    -0.037    22.682     7.059
     5   6 C        3.018     0.028    27.358     8.580
     6   6 C        2.823     0.070    26.434     8.425
     7   6 C        2.842     0.270    22.458     7.766
     8   8 O        0.857    -0.317    20.085     6.009
     9   7 N        2.797    -0.071    22.609     7.062
    10   6 C        3.690    -0.059    21.829     6.686
    11   6 C        2.830     0.318    21.598     7.616
    12   8 O        0.857    -0.316    20.077     6.007
    13   7 N        2.787    -0.016    21.566     6.897
    14   6 C        3.690    -0.073    22.090     6.726
    15   1 H        0.923     0.095     1.830     2.115
    16   1 H        0.924     0.122     1.599     1.978
    17   1 H        0.924     0.125     1.577     1.964
    18   1 H        0.923     0.116     1.644     2.005
    19   1 H        0.925     0.112     1.677     2.025
    20   1 H        0.924     0.109     1.709     2.044
    21   1 H        0.924     0.106     1.730     2.057
    22   1 H        0.924     0.101     1.773     2.082
    23   1 H        0.924     0.102     1.768     2.079
    24   1 H        0.925     0.124     1.581     1.967
    25   1 H        0.925     0.110     1.694     2.035

Wiberg/Mayer (AO) data.
largest (>0.10) Wiberg bond orders for each atom

     #   Z sym  total        # sym  WBO       # sym  WBO       # sym  WBO
 ---------------------------------------------------------------------------
     1   6 C    3.877 --     2 N    1.092    16 H    0.920    15 H    0.919
                            17 H    0.912
     2   7 N    2.786 --     3 C    1.556     1 C    1.092
     3   6 C    3.925 --     2 N    1.556     4 N    1.404    18 H    0.856
     4   7 N    3.184 --     6 C    1.593     3 C    1.404
     5   6 C    3.688 --    13 N    1.256     6 C    1.245     7 C    1.013
     6   6 C    3.899 --     4 N    1.593     5 C    1.245    25 H    0.910
     7   6 C    3.923 --     8 O    1.705     9 N    1.110     5 C    1.013
     8   8 O    1.965 --     7 C    1.705     9 N    0.126
     9   7 N    3.509 --    11 C    1.110     7 C    1.110    10 C    0.983
                             8 O    0.126    12 O    0.117
    10   6 C    3.893 --     9 N    0.983    19 H    0.967    20 H    0.955
                            21 H    0.948
    11   6 C    3.930 --    12 O    1.721     9 N    1.110    13 N    1.016
    12   8 O    2.003 --    11 C    1.721     9 N    0.117
    13   7 N    3.455 --     5 C    1.256    11 C    1.016    14 C    0.996
    14   6 C    3.913 --    13 N    0.996    24 H    0.965    22 H    0.953
                            23 H    0.952
    15   1 H    0.923 --     1 C    0.919
    16   1 H    0.945 --     1 C    0.920
    17   1 H    0.938 --     1 C    0.912
    18   1 H    0.899 --     3 C    0.856
    19   1 H    0.981 --    10 C    0.967
    20   1 H    0.971 --    10 C    0.955
    21   1 H    0.967 --    10 C    0.948
    22   1 H    0.971 --    14 C    0.953
    23   1 H    0.970 --    14 C    0.952
    24   1 H    0.982 --    14 C    0.965
    25   1 H    0.950 --     6 C    0.910
 ---------------------------------------------------------------------------

molecular dipole:
                 x           y           z       tot (Debye)
 q only:        1.973      -0.902       0.064
   full:        2.152      -1.104       0.293       6.192

           -------------------------------------------------
          | TOTAL ENERGY              -42.157619149787 Eh   |
          | GRADIENT NORM               0.009803474869 Eh/α |
          | HOMO-LUMO GAP               0.616855687274 eV   |
           -------------------------------------------------

 * finished run on 2024/06/05 at 19:59:14.539
