   * xtb version 6.6.1 (8d0f1dd) compiled by 'conda@1efc2f54142f' on 2023-08-01
          program call               : xtb xtbopt.xyz --opt crude --input .xc2 --gfn2

   ID    Z sym.   atoms
    1    6 C      1, 3, 5-7, 10, 11, 14
    2    7 N      2, 4, 9, 13
    3    8 O      8, 12
    4    1 H      15-25
########################################################################
[WARNING] Please study the warnings concerning your input carefully
-1- readin_getIntValue: could not parse ''
########################################################################

          :  Hamiltonian                  GFN2-xTB          :
 * total energy  :   -42.0664845 Eh     change       -0.1804779E-11 Eh
   *** GEOMETRY OPTIMIZATION CONVERGED AFTER 1 ITERATIONS ***

 final structure:
================
25
 xtb: 6.6.1 (8d0f1dd)
C            3.42187893944874        0.87782647621347        0.28109993233450
N            2.08343717030274        1.24578546537345        0.35065233775400
C            1.97504384278197       -2.59202731375275       -0.44173859321838
N            1.66409448822872       -1.59825118875988        0.30295910563669
C            0.60185909096172       -0.67293605202999        0.16248383486726
C            0.92650777742342        0.70872971489885        0.26492871880518
C           -0.22038582741630        1.68890308969896        0.25440759363440
O           -0.06994682462942        2.85511699379908        0.48495680131649
N           -1.44700750699113        1.14268996542590       -0.07172962349753
C           -2.58472627226812        2.04549755027608       -0.19297141497233
C           -1.72924530677929       -0.18915794209661       -0.25571340758618
O           -2.82201647972838       -0.59781545132061       -0.53138738229171
N           -0.65629658326426       -1.09480199591218       -0.06615153309758
C           -1.02913091494721       -2.49569680347343       -0.10021624685305
H            3.83358109235152        0.80941316272532        1.29529778108270
H            3.62936282043450       -0.04902434644990       -0.26975169354913
H            3.95496778279418        1.70467979779613       -0.20210726207868
H            1.37158199884196       -2.84691810450191       -1.30357111701412
H           -2.21375164349008        3.06779257903416       -0.19452083438122
H           -3.12241773194298        1.82761693013643       -1.11513176391918
H           -3.26684730060944        1.90180141150656        0.64598087625127
H           -0.39172631117143       -3.08489055019929        0.55587328955329
H           -0.97824330817489       -2.88439368656907       -1.11970290823526
H           -2.06782711053119       -2.57599345776421        0.22329978664738
H            2.29768563245420       -1.37570770245647        1.07392534072389

          :  Hamiltonian                  GFN2-xTB          :
         :: total energy             -42.066484495420 Eh    ::
         :: gradient norm              0.004659343274 Eh/a0 ::
         :: HOMO-LUMO gap              0.596269971849 eV    ::
         :: SCC energy               -42.584408247025 Eh    ::
         :: -> dispersion             -0.022376810377 Eh    ::
         :: repulsion energy           0.517783506587 Eh    ::

    * Orbital Energies and Occupations

         #    Occupation            Energy/Eh            Energy/eV
      -------------------------------------------------------------
         1        2.0000           -0.9003524             -24.4998
       ...           ...                  ...                  ...
        25        1.9999           -0.6826475             -18.5758
        26        1.9999           -0.6751048             -18.3705
        27        1.9996           -0.6591063             -17.9352
        28        1.9993           -0.6511104             -17.7176
        29        1.9990           -0.6441797             -17.5290
        30        1.9986           -0.6391811             -17.3930
        31        1.9938           -0.6157456             -16.7553
        32        1.9915           -0.6107288             -16.6188
        33        1.9856           -0.6023320             -16.3903
        34        1.9558           -0.5843846             -15.9019
        35        1.9445           -0.5806868             -15.8013
        36        1.7047           -0.5521371             -15.0244
        37        1.5166           -0.5424839             -14.7617 (HOMO)
        38        0.8803           -0.5205714             -14.1655 (LUMO)
        39        0.0286           -0.4573271             -12.4445
        40        0.0023           -0.4175589             -11.3624
        41        0.0004           -0.3913575             -10.6494
        42        0.0000           -0.3093155              -8.4169
        43                         -0.2179264              -5.9301
        44                         -0.1787403              -4.8638
        45                         -0.1591110              -4.3296
        46                         -0.1139893              -3.1018
        47                         -0.0884585              -2.4071
        48                         -0.0384284              -1.0457
       ...                                ...                  ...
        67                          0.5699611              15.5094
      -------------------------------------------------------------
                  HL-Gap            0.0219125 Eh            0.5963 eV

     #   Z          covCN         q      C6AA      α(0)
     1   6 C        3.684    -0.054    21.761     6.679
     2   7 N        1.837    -0.097    23.897     7.244
     3   6 C        1.846    -0.070    33.053     9.287
     4   7 N        2.685    -0.002    21.309     6.856
     5   6 C        2.837     0.086    26.087     8.370
     6   6 C        2.883     0.047    26.949     8.511
     7   6 C        2.776     0.274    22.372     7.747
     8   8 O        0.858    -0.285    19.521     5.924
     9   7 N        2.737    -0.068    22.555     7.053
    10   6 C        3.710    -0.065    21.897     6.688
    11   6 C        2.726     0.317    21.608     7.610
    12   8 O        0.860    -0.335    20.430     6.060
    13   7 N        2.738    -0.024    21.707     6.920
    14   6 C        3.702    -0.069    21.993     6.706
    15   1 H        0.924     0.121     1.604     1.980
    16   1 H        0.923     0.080     1.975     2.198
    17   1 H        0.924     0.134     1.508     1.920
    18   1 H        0.925     0.110     1.698     2.038
    19   1 H        0.925     0.120     1.615     1.987
    20   1 H        0.925     0.112     1.678     2.026
    21   1 H        0.924     0.108     1.716     2.048
    22   1 H        0.925     0.092     1.861     2.133
    23   1 H        0.924     0.106     1.727     2.055
    24   1 H        0.924     0.128     1.554     1.949
    25   1 H        0.859     0.236     0.938     1.517

Wiberg/Mayer (AO) data.
largest (>0.10) Wiberg bond orders for each atom

     #   Z sym  total        # sym  WBO       # sym  WBO       # sym  WBO
 ---------------------------------------------------------------------------
     1   6 C    3.904 --     2 N    1.097    16 H    0.930    17 H    0.918
                            15 H    0.909
     2   7 N    2.801 --     6 C    1.586     1 C    1.097
     3   6 C    2.696 --     4 N    1.655    18 H    0.928
     4   7 N    3.646 --     3 C    1.655     5 C    1.026    25 H    0.891
     5   6 C    3.637 --    13 N    1.268     6 C    1.180     4 N    1.026
     6   6 C    3.917 --     2 N    1.586     5 C    1.180     7 C    0.937
     7   6 C    3.917 --     8 O    1.765     9 N    1.122     6 C    0.937
     8   8 O    2.055 --     7 C    1.765     9 N    0.137
     9   7 N    3.541 --    11 C    1.128     7 C    1.122    10 C    0.964
                             8 O    0.137    12 O    0.129
    10   6 C    3.884 --    19 H    0.964     9 N    0.964    20 H    0.958
                            21 H    0.953
    11   6 C    3.937 --    12 O    1.708     9 N    1.128    13 N    1.017
    12   8 O    2.017 --    11 C    1.708     9 N    0.129
    13   7 N    3.493 --     5 C    1.268    11 C    1.017    14 C    0.979
    14   6 C    3.908 --    13 N    0.979    22 H    0.968    24 H    0.957
                            23 H    0.950
    15   1 H    0.949 --     1 C    0.909
    16   1 H    0.947 --     1 C    0.930
    17   1 H    0.941 --     1 C    0.918
    18   1 H    0.953 --     3 C    0.928
    19   1 H    0.981 --    10 C    0.964
    20   1 H    0.976 --    10 C    0.958
    21   1 H    0.973 --    10 C    0.953
    22   1 H    0.986 --    14 C    0.968
    23   1 H    0.972 --    14 C    0.950
    24   1 H    0.978 --    14 C    0.957
    25   1 H    0.926 --     4 N    0.891
 ---------------------------------------------------------------------------

molecular dipole:
                 x           y           z       tot (Debye)
 q only:        1.670      -1.304       0.306
   full:        1.692      -1.495       0.304       5.790

           -------------------------------------------------
          | TOTAL ENERGY              -42.066484495420 Eh   |
          | GRADIENT NORM               0.004659343274 Eh/α |
          | HOMO-LUMO GAP               0.596269971849 eV   |
           -------------------------------------------------

 * finished run on 2024/06/05 at 20:00:07.692
