   * xtb version 6.6.1 (8d0f1dd) compiled by 'conda@1efc2f54142f' on 2023-08-01
          program call               : xtb struc.xyz --opt loose --input .xc1 --gfn2

   ID    Z sym.   atoms
    1    7 N      1, 17
    2    6 C      2-6, 8, 9, 11-16, 18-23, 25, 26, 28-33
    3    8 O      7, 10, 24, 27
    4    1 H      34-72
constraining bond 32 71 to    5.1400000 Å, actual value:    2.6756474 Å

          :  Hamiltonian                  GFN2-xTB          :
 * total energy  :   -98.3197712 Eh     change       -0.4035485E-08 Eh
 * total energy  :   -98.6904437 Eh     change       -0.3706725E+00 Eh
 * total energy  :   -98.9347386 Eh     change       -0.2442948E+00 Eh
 * total energy  :   -99.0703728 Eh     change       -0.1356343E+00 Eh
 * total energy  :   -99.1392210 Eh     change       -0.6884814E-01 Eh
 * total energy  :   -99.1713962 Eh     change       -0.3217523E-01 Eh
 * total energy  :   -99.1877675 Eh     change       -0.1637131E-01 Eh
 * total energy  :   -99.2004484 Eh     change       -0.1268092E-01 Eh
 * total energy  :   -99.2104808 Eh     change       -0.1003233E-01 Eh
 * total energy  :   -99.2189062 Eh     change       -0.8425397E-02 Eh
 * total energy  :   -99.4410391 Eh     change       -0.1149936E-03 Eh
 * total energy  :   -99.4411393 Eh     change       -0.1001645E-03 Eh
 * total energy  :   -99.4412109 Eh     change       -0.7160127E-04 Eh
 * total energy  :   -99.4412834 Eh     change       -0.7248363E-04 Eh
 * total energy  :   -99.4413556 Eh     change       -0.7220239E-04 Eh
 * total energy  :   -99.4414255 Eh     change       -0.6994484E-04 Eh
 * total energy  :   -99.4414251 Eh     change        0.4575430E-06 Eh
 * total energy  :   -99.4414827 Eh     change       -0.5760260E-04 Eh
 * total energy  :   -99.4415236 Eh     change       -0.4093522E-04 Eh
   *** GEOMETRY OPTIMIZATION CONVERGED AFTER 134 ITERATIONS ***

 final structure:
================
72
 xtb: 6.6.1 (8d0f1dd)
N           -2.68180146096113        3.67210158540496        1.96696729571477
C           -2.36557972801973        2.43121582194888        1.61739727041709
C           -3.18553280575187        1.97432154365414        0.45906934882807
C           -3.63692097785831        0.53102857789250        0.50123093969204
C           -4.41082609280461        0.04011601213222       -0.55318759131843
C           -4.85808194291127       -1.26904753334957       -0.57028469780765
O           -5.62553590006292       -1.81915208520455       -1.53622916798215
C           -6.11472679261701       -1.00124108690841       -2.57257819394560
C           -4.50769110919152       -2.13985009139151        0.49602900348272
O           -4.96534424179621       -3.40333951425385        0.38590758986082
C           -4.66976519801570       -4.32896404690054        1.40575918479529
C           -3.75566452477613       -1.63869137815973        1.54566655611331
C           -3.33432266910402       -0.31511800987097        1.55235591992913
C           -2.37166993083056        2.24976447849581       -0.84777062496433
C           -1.43808919362757        1.12294761368431       -1.28568545753697
C           -0.38068394663687        0.75881727451781       -0.23961498147999
N            0.59626290845402       -0.15569289419961       -0.79231114315605
C            1.97058970584354        0.02540821306257       -0.37925759910753
C            2.94639663491600       -0.30939312555166       -1.52194527707319
C            4.36422194593853       -0.06267279109365       -1.09826980467498
C            4.99697966648497        1.14041262109783       -1.37104262459674
C            6.30757960376102        1.36145539488170       -0.97599610811544
C            7.01377854205595        0.38303257403802       -0.29091939677109
O            8.29290411055620        0.48016348027545        0.12392678828182
C            9.02269314027439        1.64826061267413       -0.16966120311912
C            6.36826642753871       -0.84741071379888        0.01214738452385
O            7.12042597442426       -1.74065357146227        0.68827989330523
C            6.57837634596988       -3.00382579787083        0.98992014163843
C            5.05905762934509       -1.04539971887632       -0.39673813150110
C            0.16265389364916       -1.53189703354357       -0.77570556364365
C           -4.38929086524062        2.96735689612185        0.55085469747792
C           -5.50190266037858        2.43179372398156        1.44588277500458
C           -3.76455914381245        4.21834119930609        1.18661999746181
H           -4.67078591289132        0.70129876433197       -1.36314872337655
H           -6.70893114533033       -0.16991352282692       -2.18002333486175
H           -6.75202698044069       -1.64440174796874       -3.17586101078248
H           -5.30468890451432       -0.61023048049115       -3.19651417277472
H           -5.10007230382952       -4.02123204936606        2.36419839679674
H           -5.12561617200015       -5.26569160684672        1.09031045638968
H           -3.58985551457511       -4.47079055854558        1.51787783751007
H           -3.49768113864194       -2.27062769711954        2.37956768943071
H           -2.77699043626789        0.04237287652655        2.40385685915824
H           -3.07674550854608        2.43212482407121       -1.65897932158061
H           -1.79025746843445        3.16335390344063       -0.70976671895243
H           -2.02606002702788        0.23846999440214       -1.52973223517261
H           -0.92185394347498        1.44076792790880       -2.19345463232555
H           -1.53768843541558        1.92554520074028        2.07138451812515
H            0.12954215011172        1.67232853023483        0.07557599837355
H            2.21444701470392       -0.59657628313480        0.49666932559324
H            2.12487306504660        1.07016956356920       -0.10145368473280
H            2.69420697666636        0.31288957176742       -2.38064735188402
H            2.82768328283285       -1.35406909155195       -1.80895947756608
H            4.47166419065004        1.91372879509040       -1.91033539065523
H            6.77601206999153        2.30256188261239       -1.21426424296447
H            8.57554104406126        2.52979012282257        0.29979146441551
H            9.10196751138433        1.80996036681429       -1.24907860416210
H           10.01581720013687        1.48400236348380        0.24428311768021
H            7.36841874577392       -3.54595550088687        1.50607342928990
H            5.70759560707478       -2.92049785770110        1.64815727417641
H            6.29945174403168       -3.54740727275921        0.08202898546824
H            4.56288085057353       -1.97943273217116       -0.18459360083810
H           -0.83564666934712       -1.60696790457833       -1.20081718121919
H            0.13781413794369       -1.94384507750726        0.24586407652110
H            0.83630047559282       -2.13830770550895       -1.37776342045940
H           -4.79628551980629        3.18980334895108       -0.43527944179558
H           -5.11799386601835        2.19213226755897        2.43456621703037
H           -5.94299914089180        1.53290017673371        1.02639901833519
H           -6.28634289721952        3.17810621694743        1.54766889760120
H           -4.46711848153266        4.75967132036056        1.82212902690485
H           -3.37421691404948        4.91149084856498        0.43249524607906
H           -0.88233063388154        0.31390470703076        0.63341253109491
H           -2.19770980024865        4.20852480680479        2.66880980295114

          :  Hamiltonian                  GFN2-xTB          :
         :: total energy             -99.441523591514 Eh    ::
         :: gradient norm              0.001730179774 Eh/a0 ::
         :: HOMO-LUMO gap              1.414837651955 eV    ::
         :: SCC energy              -100.791462667887 Eh    ::
         :: -> dispersion             -0.073737340190 Eh    ::
         :: repulsion energy           1.348765664394 Eh    ::

    * Orbital Energies and Occupations

         #    Occupation            Energy/Eh            Energy/eV
      -------------------------------------------------------------
         1        2.0000           -0.8028522             -21.8467
       ...           ...                  ...                  ...
        78        1.9991           -0.5302668             -14.4293
        79        1.9989           -0.5265425             -14.3280
        80        1.9986           -0.5227849             -14.2257
        81        1.9986           -0.5224649             -14.2170
        82        1.9981           -0.5176634             -14.0863
        83        1.9978           -0.5153753             -14.0241
        84        1.9975           -0.5135426             -13.9742
        85        1.9960           -0.5062693             -13.7763
        86        1.9848           -0.4850224             -13.1981
        87        1.9718           -0.4751195             -12.9287
        88        1.9040           -0.4551702             -12.3858
        89        1.8641           -0.4493432             -12.2272
        90        1.7934           -0.4420936             -12.0300 (HOMO)
        91        0.4910           -0.3900993             -10.6151 (LUMO)
        92        0.0046           -0.3118049              -8.4846
        93        0.0037           -0.3081969              -8.3865
        94        0.0021           -0.2990498              -8.1376
        95        0.0017           -0.2962899              -8.0625
        96        0.0000           -0.1861041              -5.0642
        97        0.0000           -0.1739070              -4.7323
        98                         -0.1171951              -3.1890
        99                         -0.0937275              -2.5505
       100                         -0.0826927              -2.2502
       101                         -0.0579970              -1.5782
       ...                                ...                  ...
       171                          0.5888662              16.0239
      -------------------------------------------------------------
                  HL-Gap            0.0519943 Eh            1.4148 eV

     #   Z          covCN         q      C6AA      α(0)
     1   7 N        2.713    -0.070    22.595     7.060
     2   6 C        2.902     0.014    27.701     8.630
     3   6 C        3.932     0.014    20.285     6.401
     4   6 C        2.969     0.002    27.975     8.676
     5   6 C        2.922    -0.079    29.976     8.978
     6   6 C        2.863     0.129    25.171     8.224
     7   8 O        1.706    -0.233    17.859     5.706
     8   6 C        3.645     0.028    20.434     6.497
     9   6 C        2.865     0.130    25.145     8.220
    10   8 O        1.706    -0.230    17.807     5.697
    11   6 C        3.645     0.027    20.448     6.499
    12   6 C        2.915    -0.071    29.776     8.948
    13   6 C        2.921    -0.051    29.264     8.871
    14   6 C        3.806    -0.064    21.723     6.635
    15   6 C        3.801    -0.070    21.848     6.655
    16   6 C        3.751    -0.002    20.676     6.485
    17   7 N        2.728    -0.128    23.768     7.241
    18   6 C        3.752     0.005    20.555     6.465
    19   6 C        3.809    -0.072    21.866     6.656
    20   6 C        2.968     0.007    27.858     8.657
    21   6 C        2.922    -0.047    29.160     8.855
    22   6 C        2.913    -0.067    29.676     8.933
    23   6 C        2.864     0.132    25.113     8.214
    24   8 O        1.706    -0.224    17.724     5.684
    25   6 C        3.645     0.026    20.464     6.502
    26   6 C        2.863     0.132    25.100     8.212
    27   8 O        1.706    -0.226    17.756     5.689
    28   6 C        3.645     0.028    20.436     6.497
    29   6 C        2.920    -0.077    29.932     8.972
    30   6 C        3.707    -0.044    21.508     6.629
    31   6 C        3.896    -0.022    20.904     6.499
    32   6 C        3.755    -0.117    22.794     6.808
    33   6 C        3.794    -0.014    20.839     6.501
    34   1 H        0.926     0.050     2.320     2.382
    35   1 H        0.924     0.049     2.335     2.390
    36   1 H        0.925     0.080     1.978     2.199
    37   1 H        0.924     0.048     2.344     2.394
    38   1 H        0.924     0.053     2.288     2.365
    39   1 H        0.925     0.080     1.981     2.201
    40   1 H        0.924     0.049     2.330     2.387
    41   1 H        0.926     0.053     2.285     2.364
    42   1 H        0.926     0.036     2.500     2.472
    43   1 H        0.925     0.057     2.230     2.335
    44   1 H        0.924     0.042     2.429     2.437
    45   1 H        0.925     0.050     2.321     2.382
    46   1 H        0.924     0.060     2.194     2.317
    47   1 H        0.926     0.068     2.106     2.270
    48   1 H        0.924     0.038     2.470     2.458
    49   1 H        0.923     0.030     2.585     2.514
    50   1 H        0.924     0.043     2.415     2.430
    51   1 H        0.925     0.058     2.220     2.330
    52   1 H        0.925     0.053     2.283     2.363
    53   1 H        0.926     0.048     2.343     2.394
    54   1 H        0.926     0.056     2.250     2.345
    55   1 H        0.924     0.053     2.287     2.365
    56   1 H        0.924     0.055     2.262     2.352
    57   1 H        0.925     0.080     1.978     2.200
    58   1 H        0.925     0.079     1.985     2.203
    59   1 H        0.924     0.049     2.334     2.389
    60   1 H        0.924     0.053     2.288     2.365
    61   1 H        0.926     0.050     2.325     2.384
    62   1 H        0.925     0.052     2.293     2.368
    63   1 H        0.923     0.029     2.604     2.524
    64   1 H        0.925     0.058     2.221     2.331
    65   1 H        0.925     0.056     2.248     2.345
    66   1 H        0.925     0.047     2.357     2.401
    67   1 H        0.925     0.056     2.250     2.346
    68   1 H        0.925     0.055     2.264     2.353
    69   1 H        0.924     0.077     2.014     2.219
    70   1 H        0.924     0.068     2.113     2.273
    71   1 H        0.923     0.030     2.580     2.512
    72   1 H        0.860     0.187     1.175     1.698

Wiberg/Mayer (AO) data.
largest (>0.10) Wiberg bond orders for each atom

     #   Z sym  total        # sym  WBO       # sym  WBO       # sym  WBO
 ---------------------------------------------------------------------------
     1   7 N    3.391 --     2 C    1.401    33 C    0.994    72 H    0.937
     2   6 C    3.491 --     1 N    1.401     3 C    1.027    47 H    0.960
     3   6 C    3.984 --     2 C    1.027     4 C    0.982    31 C    0.946
                            14 C    0.928
     4   6 C    3.949 --    13 C    1.426     5 C    1.362     3 C    0.982
     5   6 C    3.966 --     6 C    1.407     4 C    1.362    34 H    0.961
     6   6 C    3.912 --     5 C    1.407     9 C    1.224     7 O    1.095
     7   8 O    2.254 --     6 C    1.095     8 C    0.979
     8   6 C    3.934 --     7 O    0.979    36 H    0.977    35 H    0.974
                            37 H    0.974
     9   6 C    3.910 --    12 C    1.396     6 C    1.224    10 O    1.101
    10   8 O    2.258 --     9 C    1.101    11 C    0.978
    11   6 C    3.933 --    10 O    0.978    39 H    0.977    40 H    0.974
                            38 H    0.974
    12   6 C    3.966 --    13 C    1.401     9 C    1.396    41 H    0.964
    13   6 C    3.962 --     4 C    1.426    12 C    1.401    42 H    0.965
    14   6 C    3.958 --    15 C    1.009    44 H    0.975    43 H    0.966
                             3 C    0.928
    15   6 C    3.983 --    14 C    1.009    16 C    0.995    46 H    0.970
                            45 H    0.969
    16   6 C    3.976 --    17 N    1.005    15 C    0.995    48 H    0.970
                            71 H    0.955
    17   7 N    3.105 --    30 C    1.018    18 C    1.007    16 C    1.005
    18   6 C    3.969 --    17 N    1.007    19 C    0.974    50 H    0.971
                            49 H    0.959
    19   6 C    3.982 --    20 C    1.014    18 C    0.974    51 H    0.972
                            52 H    0.966
    20   6 C    3.937 --    21 C    1.402    29 C    1.380    19 C    1.014
    21   6 C    3.939 --    22 C    1.418    20 C    1.402    53 H    0.968
    22   6 C    3.956 --    21 C    1.418    23 C    1.382    54 H    0.963
    23   6 C    3.884 --    22 C    1.382    26 C    1.219    24 O    1.104
    24   8 O    2.244 --    23 C    1.104    25 C    0.978
    25   6 C    3.930 --    24 O    0.978    57 H    0.977    56 H    0.973
                            55 H    0.973
    26   6 C    3.890 --    29 C    1.395    23 C    1.219    27 O    1.100
    27   8 O    2.246 --    26 C    1.100    28 C    0.979
    28   6 C    3.933 --    27 O    0.979    58 H    0.977    59 H    0.973
                            60 H    0.973
    29   6 C    3.957 --    26 C    1.395    20 C    1.380    61 H    0.962
    30   6 C    3.974 --    17 N    1.018    62 H    0.978    64 H    0.976
                            63 H    0.966
    31   6 C    3.982 --    32 C    1.013    33 C    0.990    65 H    0.967
                             3 C    0.946
    32   6 C    3.990 --    31 C    1.013    66 H    0.986    68 H    0.982
                            67 H    0.980
    33   6 C    3.957 --     1 N    0.994    31 C    0.990    69 H    0.963
                            70 H    0.955
    34   1 H    0.996 --     5 C    0.961
    35   1 H    0.995 --     8 C    0.974
    36   1 H    0.993 --     8 C    0.977
    37   1 H    0.994 --     8 C    0.974
    38   1 H    0.994 --    11 C    0.974
    39   1 H    0.993 --    11 C    0.977
    40   1 H    0.994 --    11 C    0.974
    41   1 H    0.996 --    12 C    0.964
    42   1 H    0.998 --    13 C    0.965
    43   1 H    0.992 --    14 C    0.966
    44   1 H    0.997 --    14 C    0.975
    45   1 H    0.997 --    15 C    0.969
    46   1 H    0.994 --    15 C    0.970
    47   1 H    0.995 --     2 C    0.960
    48   1 H    0.998 --    16 C    0.970
    49   1 H    0.984 --    18 C    0.959
    50   1 H    0.998 --    18 C    0.971
    51   1 H    0.994 --    19 C    0.972
    52   1 H    0.995 --    19 C    0.966
    53   1 H    0.997 --    21 C    0.968
    54   1 H    0.995 --    22 C    0.963
    55   1 H    0.991 --    25 C    0.973
    56   1 H    0.991 --    25 C    0.973
    57   1 H    0.993 --    25 C    0.977
    58   1 H    0.993 --    28 C    0.977
    59   1 H    0.993 --    28 C    0.973
    60   1 H    0.992 --    28 C    0.973
    61   1 H    0.996 --    29 C    0.962
    62   1 H    0.995 --    30 C    0.978
    63   1 H    0.983 --    30 C    0.966
    64   1 H    0.994 --    30 C    0.976
    65   1 H    0.997 --    31 C    0.967
    66   1 H    0.998 --    32 C    0.986
    67   1 H    0.996 --    32 C    0.980
    68   1 H    0.996 --    32 C    0.982
    69   1 H    0.989 --    33 C    0.963
    70   1 H    0.983 --    33 C    0.955
    71   1 H    0.986 --    16 C    0.955
    72   1 H    0.965 --     1 N    0.937
 ---------------------------------------------------------------------------

molecular dipole:
                 x           y           z       tot (Debye)
 q only:       -1.267       2.292       0.769
   full:       -1.156       2.540       1.176       7.697

           -------------------------------------------------
          | TOTAL ENERGY              -99.441523591514 Eh   |
          | GRADIENT NORM               0.001730179774 Eh/α |
          | HOMO-LUMO GAP               1.414837651955 eV   |
           -------------------------------------------------

 * finished run on 2024/04/06 at 11:11:53.422
