   * xtb version 6.6.1 (8d0f1dd) compiled by 'conda@1efc2f54142f' on 2023-08-01
          program call               : xtb xtbopt.xyz --opt crude --input .xc2 --gfn2

   ID    Z sym.   atoms
    1    6 C      1, 3, 5-7, 10, 11, 14
    2    7 N      2, 4, 9, 13
    3    8 O      8, 12
    4    1 H      15-25
########################################################################
[WARNING] Please study the warnings concerning your input carefully
-1- readin_getIntValue: could not parse ''
########################################################################

          :  Hamiltonian                  GFN2-xTB          :
 * total energy  :   -40.4369102 Eh     change       -0.1563194E-12 Eh
 * total energy  :   -42.1507387 Eh     change       -0.1713829E+01 Eh
 * total energy  :   -42.1681731 Eh     change       -0.1743437E-01 Eh
 * total energy  :   -42.1724378 Eh     change       -0.4264769E-02 Eh
 * total energy  :   -42.1732328 Eh     change       -0.7949454E-03 Eh
 * total energy  :   -42.1738239 Eh     change       -0.5911423E-03 Eh
 * total energy  :   -42.1744586 Eh     change       -0.6346637E-03 Eh
 * total energy  :   -42.1750225 Eh     change       -0.5639423E-03 Eh
 * total energy  :   -42.1753190 Eh     change       -0.2964552E-03 Eh
   *** GEOMETRY OPTIMIZATION CONVERGED AFTER 9 ITERATIONS ***

 final structure:
================
25
 xtb: 6.6.1 (8d0f1dd)
C            3.27102862387669        1.14877385692564       -0.01469606998491
N            2.41662833526339        0.15318739944410        0.00530601713204
C            2.57295796229057       -1.08724566475248        0.51692647716436
N            1.41427972599810       -1.80050540000448        0.39434007886846
C            0.47768230343540       -1.07331473102717       -0.22647683217835
C            1.07103206837174        0.24508259970106       -0.54688947099403
C            0.17447003182722        1.34435309305139        0.10966518659708
O            0.63759039027019        2.32154795668372        0.62432317820221
N           -1.15276705407602        1.05891331432084       -0.02473037618987
C           -2.11448453810425        2.12568292759746        0.25138734141339
C           -1.72300092669466       -0.17544235119914       -0.34782696405172
O           -2.89323446277816       -0.31175600099907       -0.56377757607224
N           -0.84973514088126       -1.27883884981274       -0.30675074268895
C           -1.42394281752795       -2.61061247730958       -0.22797564648594
H            4.23675383700708        1.02125650279595        0.43779057602958
H            1.08665701999721        0.50800545376682       -1.61294919222593
H            2.98702911045798        2.09046736238696       -0.43958530050396
H            3.47249853016007       -1.46222905339158        0.95452109978319
H           -1.57814871205231        3.06878439110377        0.30660165202768
H           -2.85058924748523        2.14980675030115       -0.55072789802778
H           -2.62724172016632        1.93809934089562        1.19384927637585
H           -1.38338031025329       -2.99204594856371        0.79379142153271
H           -0.89708575787023       -3.28477868807213       -0.90120213071496
H           -2.46704539134798       -2.53577484787014       -0.53276673460076
H            1.30247965438124       -2.74317839437255        0.73902424749156

          :  Hamiltonian                  GFN2-xTB          :
         :: total energy             -42.175318990679 Eh    ::
         :: gradient norm              0.008237004739 Eh/a0 ::
         :: HOMO-LUMO gap              1.594187106267 eV    ::
         :: SCC energy               -42.691947091482 Eh    ::
         :: -> dispersion             -0.023052779091 Eh    ::
         :: repulsion energy           0.516463858635 Eh    ::

    * Orbital Energies and Occupations

         #    Occupation            Energy/Eh            Energy/eV
      -------------------------------------------------------------
         1        2.0000           -0.9067098             -24.6728
       ...           ...                  ...                  ...
        25        2.0000           -0.6771979             -18.4275
        26        2.0000           -0.6729129             -18.3109
        27        2.0000           -0.6644627             -18.0810
        28        2.0000           -0.6605897             -17.9756
        29        1.9999           -0.6369696             -17.3328
        30        1.9999           -0.6328757             -17.2214
        31        1.9998           -0.6282893             -17.0966
        32        1.9993           -0.6077308             -16.5372
        33        1.9991           -0.6040601             -16.4373
        34        1.9974           -0.5870343             -15.9740
        35        1.9953           -0.5776493             -15.7186
        36        1.9921           -0.5694485             -15.4955
        37        1.7256           -0.5110147             -13.9054 (HOMO)
        38        0.2691           -0.4524294             -12.3112 (LUMO)
        39        0.0180           -0.4074135             -11.0863
        40        0.0044           -0.3851768             -10.4812
        41        0.0003           -0.3421732              -9.3110
        42                         -0.2121194              -5.7721
        43                         -0.1910946              -5.1999
        44                         -0.1580169              -4.2999
        45                         -0.1487483              -4.0476
        46                         -0.1066374              -2.9018
        47                         -0.0781844              -2.1275
        48                         -0.0604868              -1.6459
       ...                                ...                  ...
        67                          0.5343230              14.5397
      -------------------------------------------------------------
                  HL-Gap            0.0585853 Eh            1.5942 eV

     #   Z          covCN         q      C6AA      α(0)
     1   6 C        2.789    -0.071    29.759     8.936
     2   7 N        2.780     0.107    19.398     6.541
     3   6 C        2.952    -0.002    28.076     8.691
     4   7 N        2.743    -0.047    22.154     6.991
     5   6 C        2.975     0.090    26.000     8.364
     6   6 C        3.901    -0.009    20.679     6.464
     7   6 C        2.762     0.271    22.418     7.754
     8   8 O        0.857    -0.327    20.268     6.036
     9   7 N        2.736    -0.088    22.966     7.118
    10   6 C        3.708    -0.062    21.839     6.680
    11   6 C        2.723     0.314    21.666     7.620
    12   8 O        0.859    -0.340    20.526     6.074
    13   7 N        2.735    -0.059    22.382     7.027
    14   6 C        3.697    -0.072    22.062     6.718
    15   1 H        0.926     0.109     1.707     2.043
    16   1 H        0.923     0.121     1.603     1.980
    17   1 H        0.926     0.119     1.620     1.990
    18   1 H        0.927     0.115     1.655     2.012
    19   1 H        0.925     0.106     1.735     2.060
    20   1 H        0.925     0.107     1.721     2.051
    21   1 H        0.925     0.095     1.834     2.118
    22   1 H        0.924     0.084     1.943     2.180
    23   1 H        0.925     0.086     1.914     2.164
    24   1 H        0.925     0.127     1.557     1.952
    25   1 H        0.860     0.228     0.975     1.547

Wiberg/Mayer (AO) data.
largest (>0.10) Wiberg bond orders for each atom

     #   Z sym  total        # sym  WBO       # sym  WBO       # sym  WBO
 ---------------------------------------------------------------------------
     1   6 C    3.660 --     2 N    1.427    17 H    0.964    15 H    0.964
                             3 C    0.167
     2   7 N    3.715 --     1 C    1.427     3 C    1.236     6 C    0.977
     3   6 C    3.702 --     2 N    1.236     4 N    1.187    18 H    0.956
                             1 C    0.167     5 C    0.100
     4   7 N    3.559 --     5 C    1.282     3 C    1.187    25 H    0.918
     5   6 C    3.764 --     4 N    1.282    13 N    1.219     6 C    1.017
                             3 C    0.100
     6   6 C    3.964 --     5 C    1.017     2 N    0.977    16 H    0.913
                             7 C    0.866
     7   6 C    3.920 --     8 O    1.765     9 N    1.185     6 C    0.866
     8   8 O    2.108 --     7 C    1.765     9 N    0.158
     9   7 N    3.552 --     7 C    1.185    11 C    1.071    10 C    0.955
                             8 O    0.158    12 O    0.113
    10   6 C    3.913 --    19 H    0.973    21 H    0.969    20 H    0.967
                             9 N    0.955
    11   6 C    3.919 --    12 O    1.720     9 N    1.071    13 N    1.039
    12   8 O    2.041 --    11 C    1.720     9 N    0.113    13 N    0.113
    13   7 N    3.514 --     5 C    1.219    11 C    1.039    14 C    0.969
                            12 O    0.113
    14   6 C    3.921 --    23 H    0.974    13 N    0.969    22 H    0.968
                            24 H    0.964
    15   1 H    0.987 --     1 C    0.964
    16   1 H    0.965 --     6 C    0.913
    17   1 H    0.986 --     1 C    0.964
    18   1 H    0.986 --     3 C    0.956
    19   1 H    0.988 --    10 C    0.973
    20   1 H    0.986 --    10 C    0.967
    21   1 H    0.988 --    10 C    0.969
    22   1 H    0.988 --    14 C    0.968
    23   1 H    0.989 --    14 C    0.974
    24   1 H    0.983 --    14 C    0.964
    25   1 H    0.948 --     4 N    0.918
 ---------------------------------------------------------------------------

molecular dipole:
                 x           y           z       tot (Debye)
 q only:        2.029      -1.641      -0.036
   full:        2.291      -1.969      -0.041       7.680

           -------------------------------------------------
          | TOTAL ENERGY              -42.175318990679 Eh   |
          | GRADIENT NORM               0.008237004739 Eh/α |
          | HOMO-LUMO GAP               1.594187106267 eV   |
           -------------------------------------------------

 * finished run on 2024/06/05 at 19:58:08.625
