   * xtb version 6.6.1 (8d0f1dd) compiled by 'conda@1efc2f54142f' on 2023-08-01
          program call               : xtb xtbopt.xyz --opt crude --input .xc2 --gfn2

   ID    Z sym.   atoms
    1    7 N      1, 17
    2    6 C      2-6, 8, 9, 11-16, 18-23, 25, 26, 28-33
    3    8 O      7, 10, 24, 27
    4    1 H      34-72

          :  Hamiltonian                  GFN2-xTB          :
 * total energy  :   -99.2940868 Eh     change       -0.1008971E-11 Eh
   *** GEOMETRY OPTIMIZATION CONVERGED AFTER 1 ITERATIONS ***

 final structure:
================
72
 xtb: 6.6.1 (8d0f1dd)
N           -1.88829284795708        2.91602311948606        2.19064576659176
C           -1.81347983024039        2.13981978693217        1.21555170751242
C           -2.94565910265604        1.83662137494575        0.27543425642101
C           -3.32564051439743        0.36658165873605        0.39326395976073
C           -4.10011866684214       -0.22804680882673       -0.57678048647846
C           -4.51548588963024       -1.59757939581120       -0.52004163388800
O           -5.18451605241728       -2.12403726061843       -1.41893455741862
C           -7.53705244365502        0.06560013287247       -3.36080008853032
C           -4.09188537391258       -2.33987092145578        0.67087760897964
O           -4.52097274595826       -3.60724440591982        0.70489556240886
C           -4.25450093169392       -4.41048833897237        1.82937980399104
C           -3.32143451629682       -1.71767431584647        1.63787664554316
C           -2.93407053015165       -0.39102631074831        1.50460698743793
C           -2.41166706695734        2.15316705591081       -1.14643047051292
C           -1.45120813615463        1.10094734237772       -1.73054597812754
C           -0.12191472446884        1.08091551155999       -1.08663113155869
N            0.52181433811579       -0.00283753237821       -0.68625387606457
C            1.90060754258815        0.07858903702013       -0.26344070697696
C            2.86600677641859       -0.36912900169363       -1.37822016715644
C            4.28637140569184       -0.16209990128622       -0.93189239253850
C            4.92162465451549        1.05098488136067       -1.14753774689758
C            6.21953339309416        1.26117869015372       -0.70970381001494
C            6.90954337489142        0.26029034577027       -0.03965408974990
O            8.16565091375879        0.35118187102565        0.42927425029166
C            8.89405557513901        1.54079155571960        0.22703216569944
C            6.26484715892637       -0.98849771116328        0.18846936414079
O            7.00657031321034       -1.90277526924073        0.84084194374072
C            6.47043371233093       -3.18059732353587        1.08965340210826
C            4.96540094863905       -1.17409632280651       -0.25822429982289
C           -0.08525597153427       -1.31284617010040       -0.72230738864544
C           -4.22824099438904        2.67689354085833        0.55180375350309
C           -4.82987853602922        2.35516875219944        1.91756053270744
C           -3.99731882308734        4.18042632548856        0.43407702855108
H           -4.44790324025597        0.32165407068048       -1.43719302159649
H           -7.78932878540567        0.68514688325103       -2.52707734360802
H           -8.06688078254762       -0.84796902785597       -3.52518387954978
H           -6.74610192844689        0.34843993370992       -4.02188705479507
H           -4.69041905128124       -3.98294908139907        2.73704752494979
H           -4.72056418805603       -5.37169322249745        1.62386912271504
H           -3.17904454786520       -4.55161325961156        1.97284390567955
H           -3.02046888960932       -2.25842410654946        2.52163113823584
H           -2.35350965769148        0.06640104759619        2.29094059224461
H           -3.26036205302546        2.23968027712352       -1.82324841634692
H           -1.90792174113544        3.12044135275719       -1.12177395630448
H           -1.92546494208372        0.12161326741415       -1.71295138007907
H           -1.29496778037779        1.37680248510252       -2.78141149944108
H           -0.88275799495008        1.62197913083897        0.91312789860175
H            0.42599848201950        2.01170371317361       -1.04540305198593
H            2.04460524533142       -0.55112684595382        0.61826741550152
H            2.13468754872869        1.10948897332866        0.01062229170374
H            2.66791379057865        0.22416667407237       -2.27252087238213
H            2.69307627205045       -1.41945201977664       -1.61482759699268
H            4.41012386020910        1.84267962959507       -1.67360396166577
H            6.68956376941500        2.21208140390624       -0.89936370535003
H            8.41689041794781        2.39154005285830        0.72287023730035
H            9.01616041661660        1.75892938598462       -0.83795865714980
H            9.87053635028534        1.36426146830490        0.67380713096716
H            7.25589889859408       -3.73150508177380        1.60323246988679
H            5.58705114058462       -3.12652440899782        1.73389174444973
H            6.21549189211058       -3.69683720355627        0.15909343004924
H            4.47168123160661       -2.11966020245655       -0.09731769454147
H           -0.26779773677486       -1.63731340027181       -1.74857481621161
H           -1.03564791129601       -1.30645069807126       -0.18346652600217
H            0.57841266750679       -2.02931724986887       -0.24544128419047
H           -4.95473160278805        2.37818781300056       -0.21292521786771
H           -4.13777397437240        2.63333509493678        2.70643405965372
H           -5.06400385717888        1.29714909739048        2.00661614514616
H           -5.74945039500298        2.91909943998260        2.05077015483714
H           -3.25713360542992        4.50421358945061        1.15928945406074
H           -3.67288199913083        4.46591252664541       -0.56287007602719
H           -4.92777251370106        4.70128758091819        0.64295263140317
H           -1.05255361707408        3.07244644711276        2.74511159229053

          :  Hamiltonian                  GFN2-xTB          :
         :: total energy             -99.294086785032 Eh    ::
         :: gradient norm              0.002845267106 Eh/a0 ::
         :: HOMO-LUMO gap              0.403593203484 eV    ::
         :: SCC energy              -100.680484123473 Eh    ::
         :: -> dispersion             -0.073142579438 Eh    ::
         :: repulsion energy           1.385161784215 Eh    ::

    * Orbital Energies and Occupations

         #    Occupation            Energy/Eh            Energy/eV
      -------------------------------------------------------------
         1        2.0000           -0.8131826             -22.1278
       ...           ...                  ...                  ...
        78        1.9978           -0.5335334             -14.5182
        79        1.9973           -0.5307464             -14.4423
        80        1.9965           -0.5262861             -14.3210
        81        1.9958           -0.5236163             -14.2483
        82        1.9942           -0.5184110             -14.1067
        83        1.9928           -0.5150158             -14.0143
        84        1.9922           -0.5136531             -13.9772
        85        1.9750           -0.4951012             -13.4724
        86        1.9561           -0.4860444             -13.2259
        87        1.9172           -0.4756561             -12.9433
        88        1.8353           -0.4640862             -12.6284
        89        1.8170           -0.4622576             -12.5787
        90        1.3161           -0.4362758             -11.8717 (HOMO)
        91        0.8599           -0.4214440             -11.4681 (LUMO)
        92        0.3521           -0.4014752             -10.9247
        93        0.0111           -0.3437542              -9.3540
        94        0.0023           -0.3190920              -8.6829
        95        0.0020           -0.3169032              -8.6234
        96        0.0015           -0.3120584              -8.4915
        97        0.0007           -0.2996968              -8.1552
        98        0.0000           -0.1944678              -5.2917
        99        0.0000           -0.1871034              -5.0913
       100                         -0.1423475              -3.8735
       101                         -0.0729732              -1.9857
       ...                                ...                  ...
       171                          0.6010962              16.3567
      -------------------------------------------------------------
                  HL-Gap            0.0148318 Eh            0.4036 eV

     #   Z          covCN         q      C6AA      α(0)
     1   7 N        1.774    -0.265    27.705     7.794
     2   6 C        2.827     0.103    25.708     8.308
     3   6 C        3.908     0.007    20.409     6.421
     4   6 C        2.967     0.005    27.914     8.666
     5   6 C        2.917    -0.080    30.000     8.982
     6   6 C        2.827     0.195    23.850     8.002
     7   8 O        0.858    -0.375    21.189     6.172
     8   6 C        2.780    -0.112    30.815     9.092
     9   6 C        2.857     0.123    25.296     8.244
    10   8 O        1.706    -0.200    17.331     5.621
    11   6 C        3.645     0.025    20.497     6.507
    12   6 C        2.904    -0.074    29.837     8.957
    13   6 C        2.920    -0.049    29.229     8.866
    14   6 C        3.812    -0.065    21.737     6.636
    15   6 C        3.802    -0.072    21.885     6.660
    16   6 C        2.845     0.014    27.700     8.626
    17   7 N        2.729     0.019    20.912     6.792
    18   6 C        3.757    -0.018    20.944     6.525
    19   6 C        3.808    -0.071    21.850     6.654
    20   6 C        2.969     0.001    27.995     8.679
    21   6 C        2.922    -0.048    29.186     8.859
    22   6 C        2.913    -0.067    29.659     8.930
    23   6 C        2.864     0.135    25.049     8.204
    24   8 O        1.706    -0.217    17.609     5.666
    25   6 C        3.645     0.024    20.513     6.509
    26   6 C        2.862     0.135    25.058     8.205
    27   8 O        1.706    -0.220    17.658     5.674
    28   6 C        3.645     0.026    20.478     6.504
    29   6 C        2.919    -0.079    29.971     8.978
    30   6 C        3.700    -0.072    22.052     6.716
    31   6 C        3.854    -0.007    20.673     6.467
    32   6 C        3.756    -0.118    22.809     6.810
    33   6 C        3.755    -0.120    22.850     6.816
    34   1 H        0.926     0.059     2.211     2.325
    35   1 H        0.927     0.081     1.970     2.195
    36   1 H        0.927     0.092     1.861     2.133
    37   1 H        0.927     0.080     1.978     2.199
    38   1 H        0.924     0.060     2.194     2.316
    39   1 H        0.925     0.086     1.922     2.168
    40   1 H        0.924     0.053     2.286     2.364
    41   1 H        0.926     0.049     2.327     2.386
    42   1 H        0.926     0.038     2.471     2.458
    43   1 H        0.925     0.067     2.121     2.277
    44   1 H        0.924     0.054     2.266     2.354
    45   1 H        0.925     0.075     2.036     2.232
    46   1 H        0.924     0.087     1.913     2.163
    47   1 H        0.922     0.004     2.992     2.705
    48   1 H        0.926     0.073     2.055     2.242
    49   1 H        0.924     0.070     2.088     2.260
    50   1 H        0.924     0.069     2.100     2.266
    51   1 H        0.924     0.057     2.233     2.337
    52   1 H        0.924     0.058     2.221     2.331
    53   1 H        0.926     0.047     2.354     2.399
    54   1 H        0.926     0.061     2.190     2.314
    55   1 H        0.924     0.056     2.243     2.342
    56   1 H        0.924     0.058     2.221     2.331
    57   1 H        0.925     0.085     1.933     2.174
    58   1 H        0.925     0.084     1.938     2.177
    59   1 H        0.924     0.050     2.315     2.379
    60   1 H        0.924     0.055     2.261     2.351
    61   1 H        0.926     0.049     2.328     2.386
    62   1 H        0.924     0.083     1.953     2.185
    63   1 H        0.924     0.082     1.957     2.187
    64   1 H        0.925     0.082     1.959     2.189
    65   1 H        0.924     0.043     2.414     2.430
    66   1 H        0.925     0.068     2.110     2.272
    67   1 H        0.925     0.038     2.481     2.463
    68   1 H        0.925     0.053     2.278     2.360
    69   1 H        0.925     0.063     2.162     2.299
    70   1 H        0.925     0.037     2.494     2.470
    71   1 H        0.925     0.056     2.242     2.341
    72   1 H        0.860     0.159     1.344     1.816

Wiberg/Mayer (AO) data.
largest (>0.10) Wiberg bond orders for each atom

     #   Z sym  total        # sym  WBO       # sym  WBO       # sym  WBO
 ---------------------------------------------------------------------------
     1   7 N    3.035 --     2 C    1.955    72 H    0.941
     2   6 C    3.933 --     1 N    1.955     3 C    0.995    47 H    0.905
     3   6 C    3.968 --     2 C    0.995     4 C    0.964    14 C    0.957
                            31 C    0.940
     4   6 C    3.936 --     5 C    1.481    13 C    1.324     3 C    0.964
     5   6 C    3.800 --     4 C    1.481     6 C    1.167    34 H    0.960
     6   6 C    3.889 --     7 O    1.569     5 C    1.167     9 C    1.057
     7   8 O    1.713 --     6 C    1.569
     8   6 C    2.973 --    37 H    0.991    35 H    0.991    36 H    0.990
     9   6 C    3.740 --    12 C    1.396    10 O    1.140     6 C    1.057
    10   8 O    2.249 --     9 C    1.140    11 C    0.975
    11   6 C    3.925 --    39 H    0.976    10 O    0.975    40 H    0.971
                            38 H    0.970
    12   6 C    3.944 --    13 C    1.407     9 C    1.396    41 H    0.960
    13   6 C    3.812 --    12 C    1.407     4 C    1.324    42 H    0.963
    14   6 C    3.971 --    15 C    0.977    44 H    0.972    43 H    0.967
                             3 C    0.957
    15   6 C    3.983 --    16 C    1.064    14 C    0.977    45 H    0.958
                            46 H    0.923
    16   6 C    3.623 --    17 N    1.428    15 C    1.064    48 H    0.956
    17   7 N    3.504 --    16 C    1.428    30 C    0.996    18 C    0.987
    18   6 C    3.954 --    17 N    0.987    50 H    0.967    19 C    0.966
                            49 H    0.964
    19   6 C    3.976 --    20 C    1.008    52 H    0.971    51 H    0.971
                            18 C    0.966
    20   6 C    3.939 --    21 C    1.404    29 C    1.382    19 C    1.008
    21   6 C    3.945 --    22 C    1.420    20 C    1.404    53 H    0.968
    22   6 C    3.956 --    21 C    1.420    23 C    1.379    54 H    0.963
    23   6 C    3.889 --    22 C    1.379    26 C    1.214    24 O    1.116
    24   8 O    2.256 --    23 C    1.116    25 C    0.975
    25   6 C    3.925 --    57 H    0.976    24 O    0.975    55 H    0.972
                            56 H    0.972
    26   6 C    3.893 --    29 C    1.391    23 C    1.214    27 O    1.109
    27   8 O    2.255 --    26 C    1.109    28 C    0.977
    28   6 C    3.929 --    27 O    0.977    58 H    0.976    59 H    0.973
                            60 H    0.973
    29   6 C    3.956 --    26 C    1.391    20 C    1.382    61 H    0.962
    30   6 C    3.954 --    17 N    0.996    64 H    0.977    62 H    0.965
                            63 H    0.961
    31   6 C    3.967 --    33 C    1.008    32 C    1.008    65 H    0.958
                             3 C    0.940
    32   6 C    3.974 --    31 C    1.008    67 H    0.980    68 H    0.980
                            66 H    0.973
    33   6 C    3.977 --    31 C    1.008    70 H    0.982    71 H    0.979
                            69 H    0.974
    34   1 H    0.992 --     5 C    0.960
    35   1 H    0.993 --     8 C    0.991
    36   1 H    0.991 --     8 C    0.990
    37   1 H    0.993 --     8 C    0.991
    38   1 H    0.987 --    11 C    0.970
    39   1 H    0.992 --    11 C    0.976
    40   1 H    0.989 --    11 C    0.971
    41   1 H    0.992 --    12 C    0.960
    42   1 H    0.998 --    13 C    0.963
    43   1 H    0.994 --    14 C    0.967
    44   1 H    0.996 --    14 C    0.972
    45   1 H    0.994 --    15 C    0.958
    46   1 H    0.971 --    15 C    0.923
    47   1 H    0.983 --     2 C    0.905
    48   1 H    0.994 --    16 C    0.956
    49   1 H    0.991 --    18 C    0.964
    50   1 H    0.994 --    18 C    0.967
    51   1 H    0.995 --    19 C    0.971
    52   1 H    0.995 --    19 C    0.971
    53   1 H    0.997 --    21 C    0.968
    54   1 H    0.995 --    22 C    0.963
    55   1 H    0.990 --    25 C    0.972
    56   1 H    0.990 --    25 C    0.972
    57   1 H    0.992 --    25 C    0.976
    58   1 H    0.992 --    28 C    0.976
    59   1 H    0.992 --    28 C    0.973
    60   1 H    0.992 --    28 C    0.973
    61   1 H    0.996 --    29 C    0.962
    62   1 H    0.984 --    30 C    0.965
    63   1 H    0.987 --    30 C    0.961
    64   1 H    0.993 --    30 C    0.977
    65   1 H    0.989 --    31 C    0.958
    66   1 H    0.989 --    32 C    0.973
    67   1 H    0.995 --    32 C    0.980
    68   1 H    0.993 --    32 C    0.980
    69   1 H    0.991 --    33 C    0.974
    70   1 H    0.996 --    33 C    0.982
    71   1 H    0.993 --    33 C    0.979
    72   1 H    0.969 --     1 N    0.941
 ---------------------------------------------------------------------------

molecular dipole:
                 x           y           z       tot (Debye)
 q only:        1.817       0.601      -0.262
   full:        2.209       0.507      -0.176       5.777

           -------------------------------------------------
          | TOTAL ENERGY              -99.294086785032 Eh   |
          | GRADIENT NORM               0.002845267106 Eh/α |
          | HOMO-LUMO GAP               0.403593203484 eV   |
           -------------------------------------------------

 * finished run on 2024/04/06 at 11:12:42.150
