   * xtb version 6.6.1 (8d0f1dd) compiled by 'conda@1efc2f54142f' on 2023-08-01
          program call               : xtb struc.xyz --opt loose --input .xc1 --gfn2

   ID    Z sym.   atoms
    1    7 N      1, 17
    2    6 C      2-6, 8, 9, 11-16, 18-23, 25, 26, 28-33
    3    8 O      7, 10, 24, 27
    4    1 H      34-72
constraining bond 19 21 to    5.0000000 Å, actual value:    2.5068926 Å

          :  Hamiltonian                  GFN2-xTB          :
 * total energy  :   -98.2943184 Eh     change       -0.4035485E-08 Eh
 * total energy  :   -98.5578461 Eh     change       -0.2635277E+00 Eh
 * total energy  :   -98.7249139 Eh     change       -0.1670678E+00 Eh
 * total energy  :   -98.8417414 Eh     change       -0.1168274E+00 Eh
 * total energy  :   -98.9342214 Eh     change       -0.9247998E-01 Eh
 * total energy  :   -98.9986247 Eh     change       -0.6440339E-01 Eh
 * total energy  :   -99.0362722 Eh     change       -0.3764749E-01 Eh
 * total energy  :   -99.0703293 Eh     change       -0.3405703E-01 Eh
 * total energy  :   -99.1156073 Eh     change       -0.4527802E-01 Eh
 * total energy  :   -99.1665404 Eh     change       -0.5093312E-01 Eh
 * total energy  :   -99.2489827 Eh     change       -0.1530110E-03 Eh
 * total energy  :   -99.2491674 Eh     change       -0.1846729E-03 Eh
 * total energy  :   -99.2493482 Eh     change       -0.1808598E-03 Eh
 * total energy  :   -99.2495336 Eh     change       -0.1854171E-03 Eh
 * total energy  :   -99.2496676 Eh     change       -0.1339874E-03 Eh
 * total energy  :   -99.2497787 Eh     change       -0.1110817E-03 Eh
 * total energy  :   -99.2498738 Eh     change       -0.9513276E-04 Eh
 * total energy  :   -99.2499267 Eh     change       -0.5286970E-04 Eh
 * total energy  :   -99.2499721 Eh     change       -0.4541568E-04 Eh
   *** GEOMETRY OPTIMIZATION CONVERGED AFTER 56 ITERATIONS ***

 final structure:
================
72
 xtb: 6.6.1 (8d0f1dd)
N           -1.67238537333143        2.71641742475100        2.13288803656482
C           -1.71106360405426        1.90932373314876        1.18086960805196
C           -2.85752153756821        1.78124877988882        0.21490953013219
C           -3.48602841894962        0.40371868682329        0.35174683460159
C           -4.40810948200562       -0.03577692280944       -0.60035314899009
C           -5.02008822794963       -1.27405188459228       -0.49815822810199
O           -5.92172562568408       -1.77153057303506       -1.36848553241253
C           -6.37865063575006       -0.96311731360568       -2.42718930889710
C           -4.70036414216680       -2.12498565386187        0.59520998859544
O           -5.33393012486120       -3.31373983173063        0.60742999683697
C           -5.12107573507390       -4.19541073722471        1.68495052680068
C           -3.79197611133532       -1.67828088987661        1.54194739919044
C           -3.19543556888837       -0.42945974964922        1.42145598091030
C           -2.23984058772808        1.95496521021099       -1.19905781336853
C           -1.45449983109662        0.73583881994238       -1.71361046862381
C           -0.15598336756098        0.54210004522163       -1.03000471318376
N            0.31285235663499       -0.60078936684419       -0.57917040480669
C            1.70851287154686       -0.72120825017976       -0.13138346459221
C            2.47733967613309       -1.60720113326717       -1.02850945970900
C            4.57480946980248        1.32340832673770       -0.62789859746535
C            5.40048334626269        2.39830382099373       -0.47786031735693
C            6.73221168081659        2.11269960962145       -0.16772953548882
C            7.16586395044961        0.80175511564631       -0.01557543848501
O            8.42340084129961        0.42744187468908        0.29679877359954
C            9.41059834752859        1.41510797484067        0.48535881883500
C            6.25340730287824       -0.28018614190681       -0.18792728277045
O            6.76084247719952       -1.51314627702917       -0.01411309186744
C            5.90481002930039       -2.62655524575353       -0.11020150571558
C            4.93070762000693        0.01675655231716       -0.51323728853254
C           -0.46463288054902       -1.81696061089337       -0.59679670614465
C           -3.97296333152827        2.84540039452593        0.43758797441467
C           -4.65260041504234        2.66601066616231        1.79295740194854
C           -3.47277602074417        4.28036342261942        0.29827200928042
H           -4.66044828340418        0.60747862250001       -1.42697436218725
H           -6.84073056178238       -0.04273853482563       -2.05773793436867
H           -7.12719841752406       -1.55832735846972       -2.94628039830211
H           -5.57058085453612       -0.71478075354536       -3.12305034539269
H           -5.41975343249922       -3.74557665956833        2.63646760908917
H           -5.74923055580461       -5.06041730883060        1.48181681762696
H           -4.07505869030310       -4.51342274375913        1.74351427096538
H           -3.54828644330036       -2.29216721662061        2.39370759747046
H           -2.51641800693640       -0.10414817682199        2.19441190703756
H           -3.04181409999380        2.16244737536069       -1.90673509772403
H           -1.58017786218735        2.82371018874512       -1.18687142775876
H           -2.07693992265976       -0.15541233732130       -1.65555542628761
H           -1.23488404915038        0.92515983658696       -2.77197946231166
H           -0.87895447838535        1.23005869420028        0.91831746251941
H            0.51355576148880        1.39036673588509       -0.99425620837488
H            1.70097808116489       -1.10768939001259        0.89185252947225
H            2.13144684028733        0.29194209186318       -0.11987156464347
H            2.48209162921688       -1.37052685797393       -2.07755807608029
H            2.62673273535612       -2.63734450747280       -0.76233569102749
H            5.07193607079010        3.41840189477792       -0.59015007384231
H            7.41921763244232        2.93431192941666       -0.04445161287816
H            9.15633873691822        2.08304714262208        1.31413212675368
H            9.56840773856996        2.00271979715736       -0.42407965504158
H           10.32222612451869        0.87169076572759        0.72641890918636
H            6.52206609507201       -3.49248533012482        0.12241088096839
H            5.08414599965234       -2.55908231741237        0.61143885947179
H            5.49644222823504       -2.73100842288449       -1.12061340969844
H            4.18579716234848       -0.78405305764205       -0.68261057322415
H           -0.67006060787786       -2.14515760740503       -1.61765802466050
H           -1.41361114481629       -1.66715776407894       -0.07629897687704
H            0.09560102320444       -2.59997052544253       -0.09143922482251
H           -4.72524061842074        2.67119132344073       -0.34049268415743
H           -3.94024281023819        2.84064047420979        2.59288082809005
H           -5.06445110311957        1.66522370824561        1.89764438524526
H           -5.46430060362884        3.38182331228635        1.89090047460885
H           -2.71088355618087        4.48704710789452        1.04334753226533
H           -3.06994631162493        4.47704068555507       -0.69149506832305
H           -4.30196717415308        4.96366340832307        0.46137893649567
H           -0.83347762175529        2.73918142202933        2.70399844026768

          :  Hamiltonian                  GFN2-xTB          :
         :: total energy             -99.249972129833 Eh    ::
         :: gradient norm              0.002242534585 Eh/a0 ::
         :: HOMO-LUMO gap              0.588585638282 eV    ::
         :: SCC energy              -100.628501081797 Eh    ::
         :: -> dispersion             -0.074254771224 Eh    ::
         :: repulsion energy           1.377129089612 Eh    ::

    * Orbital Energies and Occupations

         #    Occupation            Energy/Eh            Energy/eV
      -------------------------------------------------------------
         1        2.0000           -0.8115409             -22.0832
       ...           ...                  ...                  ...
        78        1.9980           -0.5306289             -14.4391
        79        1.9979           -0.5294836             -14.4080
        80        1.9971           -0.5245135             -14.2727
        81        1.9970           -0.5236888             -14.2503
        82        1.9953           -0.5166416             -14.0585
        83        1.9945           -0.5141513             -13.9908
        84        1.9935           -0.5115417             -13.9198
        85        1.9790           -0.4928260             -13.4105
        86        1.9723           -0.4884282             -13.2908
        87        1.9283           -0.4729984             -12.8709
        88        1.8587           -0.4616728             -12.5628
        89        1.8059           -0.4561927             -12.4136
        90        1.4304           -0.4354529             -11.8493 (HOMO)
        91        0.7810           -0.4138228             -11.2607 (LUMO)
        92        0.2595           -0.3907361             -10.6325
        93        0.0127           -0.3408131              -9.2740
        94        0.0032           -0.3189850              -8.6800
        95        0.0027           -0.3159986              -8.5988
        96        0.0023           -0.3139412              -8.5428
        97        0.0010           -0.3006311              -8.1806
        98        0.0000           -0.1934210              -5.2633
        99        0.0000           -0.1791270              -4.8743
       100                         -0.1356968              -3.6925
       101                         -0.0697757              -1.8987
       ...                                ...                  ...
       171                          0.5768990              15.6982
      -------------------------------------------------------------
                  HL-Gap            0.0216301 Eh            0.5886 eV

     #   Z          covCN         q      C6AA      α(0)
     1   7 N        1.774    -0.267    27.747     7.800
     2   6 C        2.827     0.101    25.746     8.314
     3   6 C        3.907     0.006    20.413     6.422
     4   6 C        2.974     0.002    27.977     8.676
     5   6 C        2.920    -0.080    30.007     8.983
     6   6 C        2.862     0.130    25.157     8.221
     7   8 O        1.706    -0.228    17.787     5.694
     8   6 C        3.644     0.027    20.455     6.501
     9   6 C        2.864     0.129    25.170     8.224
    10   8 O        1.706    -0.226    17.754     5.689
    11   6 C        3.645     0.026    20.469     6.502
    12   6 C        2.913    -0.074    29.846     8.958
    13   6 C        2.921    -0.052    29.300     8.877
    14   6 C        3.812    -0.064    21.724     6.634
    15   6 C        3.802    -0.070    21.841     6.654
    16   6 C        2.841     0.017    27.625     8.614
    17   7 N        2.729     0.016    20.973     6.802
    18   6 C        3.749    -0.010    20.813     6.507
    19   6 C        2.834    -0.142    31.635     9.217
    20   6 C        2.022    -0.073    32.996     9.277
    21   6 C        2.910    -0.024    28.613     8.771
    22   6 C        2.930    -0.062    29.532     8.912
    23   6 C        2.861     0.131    25.140     8.218
    24   8 O        1.706    -0.224    17.710     5.682
    25   6 C        3.644     0.025    20.492     6.507
    26   6 C        2.875     0.139    24.964     8.191
    27   8 O        1.706    -0.218    17.626     5.668
    28   6 C        3.646     0.025    20.484     6.504
    29   6 C        2.907    -0.067    29.675     8.932
    30   6 C        3.700    -0.068    21.967     6.703
    31   6 C        3.853    -0.007    20.671     6.466
    32   6 C        3.756    -0.118    22.823     6.812
    33   6 C        3.755    -0.120    22.849     6.816
    34   1 H        0.926     0.053     2.288     2.365
    35   1 H        0.924     0.055     2.263     2.352
    36   1 H        0.925     0.082     1.957     2.188
    37   1 H        0.924     0.048     2.348     2.396
    38   1 H        0.924     0.056     2.244     2.343
    39   1 H        0.925     0.082     1.957     2.187
    40   1 H        0.924     0.049     2.329     2.386
    41   1 H        0.926     0.054     2.273     2.358
    42   1 H        0.926     0.041     2.441     2.443
    43   1 H        0.925     0.062     2.177     2.308
    44   1 H        0.924     0.055     2.261     2.351
    45   1 H        0.925     0.067     2.117     2.276
    46   1 H        0.924     0.083     1.951     2.184
    47   1 H        0.922     0.006     2.959     2.690
    48   1 H        0.925     0.075     2.032     2.229
    49   1 H        0.924     0.063     2.161     2.299
    50   1 H        0.923     0.072     2.061     2.245
    51   1 H        0.926     0.038     2.473     2.459
    52   1 H        0.926     0.036     2.502     2.474
    53   1 H        0.926     0.063     2.162     2.299
    54   1 H        0.926     0.068     2.110     2.271
    55   1 H        0.924     0.056     2.250     2.346
    56   1 H        0.924     0.057     2.237     2.339
    57   1 H        0.925     0.083     1.946     2.182
    58   1 H        0.925     0.083     1.945     2.181
    59   1 H        0.924     0.051     2.303     2.373
    60   1 H        0.924     0.057     2.238     2.340
    61   1 H        0.922     0.082     1.959     2.189
    62   1 H        0.924     0.077     2.011     2.217
    63   1 H        0.924     0.077     2.008     2.216
    64   1 H        0.925     0.085     1.930     2.173
    65   1 H        0.924     0.038     2.480     2.463
    66   1 H        0.925     0.068     2.106     2.269
    67   1 H        0.925     0.036     2.509     2.477
    68   1 H        0.925     0.052     2.293     2.368
    69   1 H        0.925     0.063     2.158     2.297
    70   1 H        0.925     0.035     2.511     2.478
    71   1 H        0.925     0.055     2.258     2.350
    72   1 H        0.860     0.158     1.346     1.817

Wiberg/Mayer (AO) data.
largest (>0.10) Wiberg bond orders for each atom

     #   Z sym  total        # sym  WBO       # sym  WBO       # sym  WBO
 ---------------------------------------------------------------------------
     1   7 N    3.036 --     2 C    1.958    72 H    0.941
     2   6 C    3.934 --     1 N    1.958     3 C    0.993    47 H    0.906
     3   6 C    3.975 --     2 C    0.993     4 C    0.972    14 C    0.956
                            31 C    0.942
     4   6 C    3.946 --    13 C    1.411     5 C    1.368     3 C    0.972
     5   6 C    3.961 --     6 C    1.400     4 C    1.368    34 H    0.958
     6   6 C    3.903 --     5 C    1.400     9 C    1.219     7 O    1.101
     7   8 O    2.254 --     6 C    1.101     8 C    0.978
     8   6 C    3.931 --     7 O    0.978    36 H    0.976    35 H    0.973
                            37 H    0.973
     9   6 C    3.899 --    12 C    1.390     6 C    1.219    10 O    1.104
    10   8 O    2.253 --     9 C    1.104    11 C    0.977
    11   6 C    3.930 --    10 O    0.977    39 H    0.977    40 H    0.973
                            38 H    0.973
    12   6 C    3.961 --    13 C    1.404     9 C    1.390    41 H    0.963
    13   6 C    3.952 --     4 C    1.411    12 C    1.404    42 H    0.962
    14   6 C    3.974 --    15 C    0.981    44 H    0.972    43 H    0.968
                             3 C    0.956
    15   6 C    3.985 --    16 C    1.056    14 C    0.981    45 H    0.961
                            46 H    0.928
    16   6 C    3.672 --    17 N    1.468    15 C    1.056    48 H    0.955
    17   7 N    3.504 --    16 C    1.468    30 C    0.997    18 C    0.930
    18   6 C    3.946 --    19 C    1.056    49 H    0.961    50 H    0.946
                            17 N    0.930
    19   6 C    3.252 --    18 C    1.056    51 H    0.982    52 H    0.982
    20   6 C    3.130 --    29 C    1.473    21 C    1.447
    21   6 C    3.898 --    20 C    1.447    22 C    1.357    53 H    0.958
    22   6 C    3.897 --    23 C    1.391    21 C    1.357    54 H    0.952
    23   6 C    3.881 --    22 C    1.391    26 C    1.217    24 O    1.103
    24   8 O    2.236 --    23 C    1.103    25 C    0.976
    25   6 C    3.925 --    57 H    0.976    24 O    0.976    55 H    0.972
                            56 H    0.972
    26   6 C    3.839 --    29 C    1.331    23 C    1.217    27 O    1.105
    27   8 O    2.250 --    26 C    1.105    28 C    0.975
    28   6 C    3.927 --    58 H    0.976    27 O    0.975    59 H    0.973
                            60 H    0.972
    29   6 C    3.868 --    20 C    1.473    26 C    1.331    61 H    0.857
    30   6 C    3.954 --    17 N    0.997    64 H    0.977    62 H    0.966
                            63 H    0.961
    31   6 C    3.971 --    33 C    1.009    32 C    1.008    65 H    0.960
                             3 C    0.942
    32   6 C    3.978 --    31 C    1.008    67 H    0.982    68 H    0.981
                            66 H    0.974
    33   6 C    3.980 --    31 C    1.009    70 H    0.983    71 H    0.980
                            69 H    0.975
    34   1 H    0.996 --     5 C    0.958
    35   1 H    0.993 --     8 C    0.973
    36   1 H    0.993 --     8 C    0.976
    37   1 H    0.993 --     8 C    0.973
    38   1 H    0.992 --    11 C    0.973
    39   1 H    0.993 --    11 C    0.977
    40   1 H    0.993 --    11 C    0.973
    41   1 H    0.995 --    12 C    0.963
    42   1 H    0.998 --    13 C    0.962
    43   1 H    0.995 --    14 C    0.968
    44   1 H    0.996 --    14 C    0.972
    45   1 H    0.995 --    15 C    0.961
    46   1 H    0.974 --    15 C    0.928
    47   1 H    0.985 --     2 C    0.906
    48   1 H    0.994 --    16 C    0.955
    49   1 H    0.991 --    18 C    0.961
    50   1 H    0.977 --    18 C    0.946
    51   1 H    0.997 --    19 C    0.982
    52   1 H    0.995 --    19 C    0.982
    53   1 H    0.984 --    21 C    0.958
    54   1 H    0.982 --    22 C    0.952
    55   1 H    0.990 --    25 C    0.972
    56   1 H    0.990 --    25 C    0.972
    57   1 H    0.992 --    25 C    0.976
    58   1 H    0.992 --    28 C    0.976
    59   1 H    0.992 --    28 C    0.973
    60   1 H    0.991 --    28 C    0.972
    61   1 H    0.979 --    29 C    0.857
    62   1 H    0.986 --    30 C    0.966
    63   1 H    0.989 --    30 C    0.961
    64   1 H    0.992 --    30 C    0.977
    65   1 H    0.992 --    31 C    0.960
    66   1 H    0.991 --    32 C    0.974
    67   1 H    0.996 --    32 C    0.982
    68   1 H    0.994 --    32 C    0.981
    69   1 H    0.992 --    33 C    0.975
    70   1 H    0.997 --    33 C    0.983
    71   1 H    0.993 --    33 C    0.980
    72   1 H    0.969 --     1 N    0.941
 ---------------------------------------------------------------------------

molecular dipole:
                 x           y           z       tot (Debye)
 q only:        0.524      -0.136      -0.515
   full:        0.860      -0.244      -0.610       2.751

           -------------------------------------------------
          | TOTAL ENERGY              -99.249972129833 Eh   |
          | GRADIENT NORM               0.002242534585 Eh/α |
          | HOMO-LUMO GAP               0.588585638282 eV   |
           -------------------------------------------------

 * finished run on 2024/04/06 at 11:13:50.256
