   * xtb version 6.6.1 (8d0f1dd) compiled by 'conda@1efc2f54142f' on 2023-08-01
          program call               : xtb struc.xyz --opt loose --input .xc1 --gfn2

   ID    Z sym.   atoms
    1    6 C      1, 3, 5-7, 10, 11, 14
    2    7 N      2, 4, 9, 13
    3    8 O      8, 12
    4    1 H      15-25
constraining bond 4 18 to    2.6866700 Å, actual value:    2.1494719 Å

          :  Hamiltonian                  GFN2-xTB          :
 * total energy  :   -42.7605554 Eh     change       -0.6633627E-10 Eh
 * total energy  :   -44.8285568 Eh     change       -0.2068001E+01 Eh
 * total energy  :   -48.1397894 Eh     change       -0.3311233E+01 Eh
 * total energy  :   -24.8893961 Eh     change        0.2325039E+02 Eh
 * total energy  :   -49.3499882 Eh     change       -0.2446059E+02 Eh
 * total energy  :   -49.3145703 Eh     change        0.3541782E-01 Eh
 * total energy  :   -49.4528805 Eh     change       -0.1383102E+00 Eh
 * total energy  :   -49.4827858 Eh     change       -0.2990531E-01 Eh
 * total energy  :   -49.5030371 Eh     change       -0.2025125E-01 Eh
 * total energy  :   -49.5096463 Eh     change       -0.6609211E-02 Eh
 * total energy  :   -49.7365306 Eh     change       -0.2630661E-03 Eh
 * total energy  :   -49.7367334 Eh     change       -0.2027761E-03 Eh
 * total energy  :   -49.7366256 Eh     change        0.1077990E-03 Eh
 * total energy  :   -49.7369775 Eh     change       -0.3519145E-03 Eh
 * total energy  :   -49.7370670 Eh     change       -0.8948121E-04 Eh
 * total energy  :   -49.7371668 Eh     change       -0.9983350E-04 Eh
 * total energy  :   -49.7143492 Eh     change        0.2281765E-01 Eh
 * total energy  :   -49.7372462 Eh     change       -0.2289702E-01 Eh
 * total energy  :   -49.7372634 Eh     change       -0.1719753E-04 Eh
   *** GEOMETRY OPTIMIZATION CONVERGED AFTER 70 ITERATIONS ***

 final structure:
================
25
 xtb: 6.6.1 (8d0f1dd)
C            2.96347438264357        1.05732055062240        0.67524084368938
N            2.28318748136859       -0.02377571751366       -0.04113181637266
C            2.94122557262590       -0.85608295827339       -0.71139546748553
N            3.56352032445425       -1.66197636272473       -1.30839546874866
C            0.19442648930686       -1.26113559159950        0.19728391806757
C            0.85120475176996       -0.09160566522571       -0.01544410616575
C            0.11140084688784        1.14993016021244       -0.26489100495092
O            0.63472186193811        2.20695926918575       -0.53626055935316
N           -1.25735355923220        0.99711345955048       -0.16015684768721
C           -2.09403357966747        2.17653486767509       -0.33424468138055
C           -1.94267431410474       -0.18107624314491        0.05660820380030
O           -3.13855326526204       -0.23844366258808        0.09947718433709
N           -1.14265300988486       -1.32596253003472        0.22954004176725
C           -1.81852048310771       -2.59212160721491        0.43893920344031
H            2.69255579483680        1.00508394030522        1.72932813613312
H            4.04049926782451        0.95840688278143        0.56551381260370
H            2.63180642886364        2.01305880635011        0.26409261244732
H            3.82773020549682       -2.00092378082577       -1.55607345843184
H           -1.44512691866116        3.03997974680448       -0.45444818159142
H           -2.72698748354828        2.05611902117637       -1.21251372132705
H           -2.73356187217244        2.29676235284637        0.53910611082563
H           -1.42068960214805       -3.09275244330825        1.31994521144418
H           -1.70059309703731       -3.23506545291914       -0.43351376938976
H           -2.87786138991454       -2.38591535495798        0.58461220952516
H            0.72328668082312       -2.19219314558048        0.35995321270548

          :  Hamiltonian                  GFN2-xTB          :
         :: total energy             -49.737263381576 Eh    ::
         :: gradient norm              0.002279819489 Eh/a0 ::
         :: HOMO-LUMO gap              2.203690398103 eV    ::
         :: SCC energy               -42.801591130531 Eh    ::
         :: -> dispersion             -0.021752934991 Eh    ::
         :: repulsion energy           1.632862520561 Eh    ::

    * Orbital Energies and Occupations

         #    Occupation            Energy/Eh            Energy/eV
      -------------------------------------------------------------
         1        2.0000           -0.9080628             -24.7096
       ...           ...                  ...                  ...
        25        2.0000           -0.6655535             -18.1106
        26        2.0000           -0.6591096             -17.9353
        27        2.0000           -0.6530428             -17.7702
        28        2.0000           -0.6435982             -17.5132
        29        2.0000           -0.6278507             -17.0847
        30        2.0000           -0.6177330             -16.8094
        31        2.0000           -0.6143948             -16.7185
        32        2.0000           -0.6106769             -16.6174
        33        2.0000           -0.5922710             -16.1165
        34        1.9990           -0.5654845             -15.3876
        35        1.9967           -0.5557852             -15.1237
        36        1.9957           -0.5536620             -15.0659
        37        1.9916           -0.5483162             -14.9204 (HOMO)
        38        0.0169           -0.4673321             -12.7168 (LUMO)
        39        0.0001           -0.4249016             -11.5622
        40        0.0000           -0.4011922             -10.9170
        41                         -0.3673641              -9.9965
        42                         -0.2875350              -7.8242
        43                         -0.2289335              -6.2296
        44                         -0.1604268              -4.3654
        45                         -0.1155765              -3.1450
        46                         -0.0649449              -1.7672
        47                         -0.0518108              -1.4098
        48                         -0.0120027              -0.3266
       ...                                ...                  ...
        67                          4.2299030             115.1015
      -------------------------------------------------------------
                  HL-Gap            0.0809841 Eh            2.2037 eV

     #   Z          covCN         q      C6AA      α(0)
     1   6 C        3.711    -0.084    22.249     6.741
     2   7 N        2.731     0.080    19.847     6.617
     3   6 C        1.915     0.203    26.299     8.282
     4   7 N        1.774    -0.112    24.176     7.281
     5   6 C        2.856     0.022    27.505     8.596
     6   6 C        2.931    -0.023    28.585     8.768
     7   6 C        2.770     0.271    22.430     7.756
     8   8 O        0.858    -0.395    21.577     6.228
     9   7 N        2.743    -0.079    22.782     7.089
    10   6 C        3.710    -0.060    21.806     6.674
    11   6 C        2.724     0.316    21.627     7.613
    12   8 O        0.859    -0.364    20.983     6.142
    13   7 N        2.744    -0.025    21.727     6.923
    14   6 C        3.702    -0.075    22.093     6.721
    15   1 H        0.925     0.111     1.689     2.032
    16   1 H        0.925     0.099     1.791     2.093
    17   1 H        0.924     0.148     1.403     1.853
    18   1 H        0.892     0.283     0.764     1.368
    19   1 H        0.925     0.109     1.707     2.043
    20   1 H        0.925     0.095     1.832     2.117
    21   1 H        0.925     0.096     1.822     2.111
    22   1 H        0.925     0.087     1.904     2.158
    23   1 H        0.925     0.088     1.897     2.154
    24   1 H        0.925     0.124     1.585     1.969
    25   1 H        0.925     0.085     1.928     2.171

Wiberg/Mayer (AO) data.
largest (>0.10) Wiberg bond orders for each atom

     #   Z sym  total        # sym  WBO       # sym  WBO       # sym  WBO
 ---------------------------------------------------------------------------
     1   6 C    3.894 --    16 H    0.975    15 H    0.965    17 H    0.945
                             2 N    0.915
     2   7 N    3.644 --     3 C    1.521     6 C    0.940     1 C    0.915
                             4 N    0.225
     3   6 C    3.931 --     4 N    2.276     2 N    1.521
     4   7 N    3.535 --     3 C    2.276    18 H    0.913     2 N    0.225
     5   6 C    3.972 --     6 C    1.558    13 N    1.289    25 H    0.953
     6   6 C    3.892 --     5 C    1.558     7 C    1.051     2 N    0.940
     7   6 C    3.964 --     8 O    1.676     9 N    1.129     6 C    1.051
     8   8 O    2.042 --     7 C    1.676     9 N    0.153
     9   7 N    3.583 --     7 C    1.129    11 C    1.119    10 C    0.968
                             8 O    0.153    12 O    0.143
    10   6 C    3.922 --    19 H    0.971     9 N    0.968    21 H    0.967
                            20 H    0.966
    11   6 C    3.961 --    12 O    1.712     9 N    1.119    13 N    1.040
    12   8 O    2.071 --    11 C    1.712     9 N    0.143    13 N    0.117
    13   7 N    3.624 --     5 C    1.289    11 C    1.040    14 C    0.976
                            12 O    0.117
    14   6 C    3.925 --    13 N    0.976    22 H    0.972    23 H    0.968
                            24 H    0.965
    15   1 H    0.988 --     1 C    0.965
    16   1 H    0.989 --     1 C    0.975
    17   1 H    0.978 --     1 C    0.945
    18   1 H    0.920 --     4 N    0.913
    19   1 H    0.988 --    10 C    0.971
    20   1 H    0.990 --    10 C    0.966
    21   1 H    0.990 --    10 C    0.967
    22   1 H    0.990 --    14 C    0.972
    23   1 H    0.989 --    14 C    0.968
    24   1 H    0.984 --    14 C    0.965
    25   1 H    0.993 --     5 C    0.953
 ---------------------------------------------------------------------------

molecular dipole:
                 x           y           z       tot (Debye)
 q only:        3.296      -1.834      -0.044
   full:        3.598      -2.212      -0.094      10.739

           -------------------------------------------------
          | TOTAL ENERGY              -49.737263381576 Eh   |
          | GRADIENT NORM               0.002279819489 Eh/α |
          | HOMO-LUMO GAP               2.203690398103 eV   |
           -------------------------------------------------

 * finished run on 2024/06/05 at 19:58:11.047
