   * xtb version 6.6.1 (8d0f1dd) compiled by 'conda@1efc2f54142f' on 2023-08-01
          program call               : xtb xtbopt.xyz --opt crude --input .xc2 --gfn2

   ID    Z sym.   atoms
    1    6 C      1, 3, 5-7, 10, 11, 14
    2    7 N      2, 4, 9, 13
    3    8 O      8, 12
    4    1 H      15-25
########################################################################
[WARNING] Please study the warnings concerning your input carefully
-1- readin_getIntValue: could not parse ''
########################################################################

          :  Hamiltonian                  GFN2-xTB          :
 * total energy  :   -41.1685952 Eh     change       -0.1136868E-12 Eh
 * total energy  :   -42.0217521 Eh     change       -0.8531569E+00 Eh
 * total energy  :   -42.1303516 Eh     change       -0.1085995E+00 Eh
 * total energy  :   -42.1547901 Eh     change       -0.2443851E-01 Eh
 * total energy  :   -42.1602234 Eh     change       -0.5433332E-02 Eh
 * total energy  :   -42.1608360 Eh     change       -0.6125653E-03 Eh
 * total energy  :   -42.1613317 Eh     change       -0.4957207E-03 Eh
 * total energy  :   -42.1617732 Eh     change       -0.4414424E-03 Eh
 * total energy  :   -42.1620744 Eh     change       -0.3012916E-03 Eh
 * total energy  :   -42.1622722 Eh     change       -0.1977072E-03 Eh
   *** GEOMETRY OPTIMIZATION CONVERGED AFTER 10 ITERATIONS ***

 final structure:
================
25
 xtb: 6.6.1 (8d0f1dd)
C            2.94935021000708        1.05186141582150        0.73192695241988
N            2.27549850238558       -0.00601330698781       -0.02214681934110
C            2.93241210744372       -0.82414391583482       -0.71328592604498
N            3.49709817437178       -1.64024193671713       -1.32602840989029
C            0.19029321767553       -1.23896920236087        0.22723389477280
C            0.84382699718251       -0.07210923630266       -0.00075051369122
C            0.10385847843687        1.16629917878626       -0.25593165760690
O            0.62268674751642        2.22835920678208       -0.51615689391501
N           -1.26631006212364        1.00499807847554       -0.16774694761127
C           -2.11005444115568        2.17608860200327       -0.36803416942731
C           -1.94964421898551       -0.17222927974378        0.06085412126857
O           -3.14602566210703       -0.23250753733186        0.09676343815897
N           -1.14740092588791       -1.31055965365428        0.25322639132698
C           -1.81594056417873       -2.57973317051953        0.46440859312396
H            2.69040089423058        0.95208380884967        1.78591694213341
H            4.02652121118951        0.97377736695972        0.60824709421406
H            2.60098511069146        2.01841942395487        0.36233472589741
H            4.08342193970699       -2.21401732564663       -1.88931782859486
H           -1.46681299567056        3.04200954357123       -0.49771956166090
H           -2.73446453266914        2.03348705971664       -1.24899831109533
H           -2.75770218968094        2.30601978793590        0.49777630988548
H           -1.42717902235007       -3.06999394074347        1.35524432959310
H           -1.67917957046158       -3.22872811240700       -0.40112288070096
H           -2.87876178909748       -2.38048168222202        0.59258776671903
H            0.72355389762935       -2.16543663078589        0.40189097796848

          :  Hamiltonian                  GFN2-xTB          :
         :: total energy             -42.162272151178 Eh    ::
         :: gradient norm              0.006999628124 Eh/a0 ::
         :: HOMO-LUMO gap              2.479649478382 eV    ::
         :: SCC energy               -42.751731613231 Eh    ::
         :: -> dispersion             -0.021757411469 Eh    ::
         :: repulsion energy           0.589325882961 Eh    ::

    * Orbital Energies and Occupations

         #    Occupation            Energy/Eh            Energy/eV
      -------------------------------------------------------------
         1        2.0000           -0.8948891             -24.3512
       ...           ...                  ...                  ...
        25        2.0000           -0.6601245             -17.9629
        26        2.0000           -0.6539372             -17.7945
        27        2.0000           -0.6473438             -17.6151
        28        2.0000           -0.6380484             -17.3622
        29        2.0000           -0.6224934             -16.9389
        30        2.0000           -0.6122091             -16.6591
        31        2.0000           -0.6101033             -16.6018
        32        2.0000           -0.6032262             -16.4146
        33        2.0000           -0.5879366             -15.9986
        34        1.9995           -0.5599880             -15.2380
        35        1.9983           -0.5500228             -14.9669
        36        1.9980           -0.5486253             -14.9289
        37        1.9954           -0.5421637             -14.7530 (HOMO)
        38        0.0087           -0.4510382             -12.2734 (LUMO)
        39        0.0001           -0.4164640             -11.3326
        40        0.0000           -0.3884738             -10.5709
        41        0.0000           -0.3610030              -9.8234
        42                         -0.2817348              -7.6664
        43                         -0.2430397              -6.6134
        44                         -0.1719322              -4.6785
        45                         -0.1365621              -3.7160
        46                         -0.1076733              -2.9299
        47                         -0.0582244              -1.5844
        48                         -0.0417388              -1.1358
       ...                                ...                  ...
        67                          1.1178690              30.4188
      -------------------------------------------------------------
                  HL-Gap            0.0911254 Eh            2.4796 eV

     #   Z          covCN         q      C6AA      α(0)
     1   6 C        3.709    -0.081    22.191     6.733
     2   7 N        2.732     0.069    20.034     6.648
     3   6 C        1.885     0.218    26.004     8.236
     4   7 N        1.773    -0.102    23.970     7.250
     5   6 C        2.856     0.021    27.530     8.600
     6   6 C        2.931    -0.023    28.577     8.767
     7   6 C        2.769     0.270    22.439     7.758
     8   8 O        0.858    -0.398    21.641     6.237
     9   7 N        2.743    -0.082    22.843     7.098
    10   6 C        3.710    -0.059    21.784     6.670
    11   6 C        2.725     0.316    21.627     7.613
    12   8 O        0.859    -0.369    21.077     6.155
    13   7 N        2.744    -0.028    21.785     6.932
    14   6 C        3.702    -0.073    22.066     6.717
    15   1 H        0.925     0.105     1.740     2.063
    16   1 H        0.925     0.095     1.833     2.117
    17   1 H        0.924     0.143     1.440     1.877
    18   1 H        0.861     0.307     0.692     1.303
    19   1 H        0.925     0.108     1.717     2.049
    20   1 H        0.925     0.093     1.853     2.129
    21   1 H        0.925     0.095     1.835     2.119
    22   1 H        0.925     0.086     1.920     2.167
    23   1 H        0.924     0.085     1.924     2.169
    24   1 H        0.925     0.122     1.596     1.976
    25   1 H        0.925     0.083     1.952     2.185

Wiberg/Mayer (AO) data.
largest (>0.10) Wiberg bond orders for each atom

     #   Z sym  total        # sym  WBO       # sym  WBO       # sym  WBO
 ---------------------------------------------------------------------------
     1   6 C    3.902 --    16 H    0.976    15 H    0.967    17 H    0.948
                             2 N    0.920
     2   7 N    3.626 --     3 C    1.488     6 C    0.942     1 C    0.920
                             4 N    0.223
     3   6 C    3.943 --     4 N    2.328     2 N    1.488
     4   7 N    3.551 --     3 C    2.328    18 H    0.883     2 N    0.223
     5   6 C    3.972 --     6 C    1.564    13 N    1.282    25 H    0.953
     6   6 C    3.900 --     5 C    1.564     7 C    1.053     2 N    0.942
     7   6 C    3.964 --     8 O    1.675     9 N    1.127     6 C    1.053
     8   8 O    2.041 --     7 C    1.675     9 N    0.154
     9   7 N    3.582 --     7 C    1.127    11 C    1.120    10 C    0.968
                             8 O    0.154    12 O    0.143
    10   6 C    3.924 --    19 H    0.971     9 N    0.968    21 H    0.968
                            20 H    0.967
    11   6 C    3.961 --    12 O    1.708     9 N    1.120    13 N    1.043
    12   8 O    2.069 --    11 C    1.708     9 N    0.143    13 N    0.118
    13   7 N    3.622 --     5 C    1.282    11 C    1.043    14 C    0.977
                            12 O    0.118
    14   6 C    3.927 --    13 N    0.977    22 H    0.972    23 H    0.969
                            24 H    0.966
    15   1 H    0.989 --     1 C    0.967
    16   1 H    0.990 --     1 C    0.976
    17   1 H    0.979 --     1 C    0.948
    18   1 H    0.905 --     4 N    0.883
    19   1 H    0.988 --    10 C    0.971
    20   1 H    0.991 --    10 C    0.967
    21   1 H    0.990 --    10 C    0.968
    22   1 H    0.990 --    14 C    0.972
    23   1 H    0.990 --    14 C    0.969
    24   1 H    0.985 --    14 C    0.966
    25   1 H    0.993 --     5 C    0.953
 ---------------------------------------------------------------------------

molecular dipole:
                 x           y           z       tot (Debye)
 q only:        3.719      -2.124      -0.340
   full:        4.053      -2.489      -0.416      12.136

           -------------------------------------------------
          | TOTAL ENERGY              -42.162272151178 Eh   |
          | GRADIENT NORM               0.006999628124 Eh/α |
          | HOMO-LUMO GAP               2.479649478382 eV   |
           -------------------------------------------------

 * finished run on 2024/06/05 at 19:58:11.805
