   * xtb version 6.6.1 (8d0f1dd) compiled by 'conda@1efc2f54142f' on 2023-08-01
          program call               : xtb struc.xyz --opt loose --input .xc1 --gfn2

   ID    Z sym.   atoms
    1    6 C      1, 3, 5-7, 10, 11, 14
    2    7 N      2, 4, 9, 13
    3    8 O      8, 12
    4    1 H      15-25
constraining bond 5 7 to    5.0000000 Å, actual value:    2.4816200 Å

          :  Hamiltonian                  GFN2-xTB          :
 * total energy  :     3.0492175 Eh     change       -0.6650680E-10 Eh
 * total energy  :   -17.7570108 Eh     change       -0.2080623E+02 Eh
 * total energy  :   -29.9319701 Eh     change       -0.1217496E+02 Eh
 * total energy  :   -37.6286290 Eh     change       -0.7696659E+01 Eh
 * total energy  :   -41.0650188 Eh     change       -0.3436390E+01 Eh
 * total energy  :   -41.5382593 Eh     change       -0.4732405E+00 Eh
 * total energy  :   -41.5576590 Eh     change       -0.1939973E-01 Eh
 * total energy  :   -41.5780474 Eh     change       -0.2038839E-01 Eh
 * total energy  :   -41.5972350 Eh     change       -0.1918761E-01 Eh
 * total energy  :   -41.6064148 Eh     change       -0.9179823E-02 Eh
 * total energy  :   -42.0276834 Eh     change       -0.7270958E-03 Eh
 * total energy  :   -42.0282212 Eh     change       -0.5378635E-03 Eh
 * total energy  :   -42.0286007 Eh     change       -0.3794948E-03 Eh
 * total energy  :   -42.0289637 Eh     change       -0.3629276E-03 Eh
 * total energy  :   -42.0292936 Eh     change       -0.3299700E-03 Eh
 * total energy  :   -42.0295545 Eh     change       -0.2609235E-03 Eh
 * total energy  :   -42.0296787 Eh     change       -0.1242018E-03 Eh
 * total energy  :   -42.0297301 Eh     change       -0.5136822E-04 Eh
 * total energy  :   -42.0297583 Eh     change       -0.2820932E-04 Eh
   *** GEOMETRY OPTIMIZATION CONVERGED AFTER 56 ITERATIONS ***

 final structure:
================
25
 xtb: 6.6.1 (8d0f1dd)
C            2.72725604973633        1.07541157921538        0.10766271702607
N            1.73636649048221        0.00174948985420       -0.00408910106862
C            2.32213799939705       -1.19465861739394       -0.07065688563193
N            1.87593934924913       -2.48883990792618       -0.13607016778977
C            0.64890856609606       -3.04962178828270       -0.07110948615175
C            0.39961479481359        0.33238217466214       -0.01639020002069
C           -0.14085255191618        1.88123208094434       -0.01388929793054
O            0.61472666327212        2.83592205994766       -0.06237817229555
N           -1.43954098055510        1.88432494954385        0.04240092016327
C           -2.34106559072984        2.94021648525235       -0.00163259151679
C           -0.61616156395298       -0.69499064674178       -0.06109392857408
O           -1.78579619596663       -0.39941142764996       -0.12185563464733
N           -0.39939074554211       -2.25375884829177       -0.00996272863187
C           -1.66542308274985       -2.97293283826428        0.07141305193219
H            3.22758524211408        1.01837378244135        1.07440460795745
H            3.46654862867236        0.99211676367891       -0.68742092593315
H            2.24178011423804        2.04822231351255        0.02721006114225
H            3.40319149987690       -1.13822174927224       -0.05831075977452
H           -1.83119559335142        3.91436429781150       -0.02755516482686
H           -2.96907261363337        2.84429743659143       -0.89470826029202
H           -2.99535590422848        2.89558241987106        0.87509535744468
H           -1.65401835815426       -3.63161671780594        0.93905369989318
H           -1.80114559595441       -3.58033029728914       -0.82344869154588
H           -2.49404675576875       -2.27410040039226        0.15587193070097
H            2.62944164865480       -3.16747405241598       -0.20136873172972

          :  Hamiltonian                  GFN2-xTB          :
         :: total energy             -42.029758324012 Eh    ::
         :: gradient norm              0.003038675763 Eh/a0 ::
         :: HOMO-LUMO gap              0.144982269965 eV    ::
         :: SCC energy               -42.514054001054 Eh    ::
         :: -> dispersion             -0.021124752056 Eh    ::
         :: repulsion energy           0.483952478060 Eh    ::

    * Orbital Energies and Occupations

         #    Occupation            Energy/Eh            Energy/eV
      -------------------------------------------------------------
         1        2.0000           -0.8773774             -23.8747
       ...           ...                  ...                  ...
        25        1.9998           -0.6568398             -17.8735
        26        1.9998           -0.6523231             -17.7506
        27        1.9993           -0.6356493             -17.2969
        28        1.9992           -0.6339887             -17.2517
        29        1.9987           -0.6258866             -17.0312
        30        1.9983           -0.6213258             -16.9071
        31        1.9964           -0.6094527             -16.5841
        32        1.9920           -0.5969063             -16.2426
        33        1.9816           -0.5835659             -15.8796
        34        1.9090           -0.5576836             -15.1753
        35        1.7422           -0.5397441             -14.6872
        36        1.7120           -0.5377090             -14.6318
        37        1.3435           -0.5208267             -14.1724 (HOMO)
        38        1.1876           -0.5154987             -14.0274 (LUMO)
        39        0.1401           -0.4685435             -12.7497
        40        0.0005           -0.3774869             -10.2719
        41        0.0001           -0.3590142              -9.7693
        42        0.0000           -0.3101656              -8.4400
        43        0.0000           -0.2740450              -7.4571
        44                         -0.2063081              -5.6139
        45                         -0.1843965              -5.0177
        46                         -0.1334043              -3.6301
        47                         -0.0797263              -2.1695
        48                         -0.0589407              -1.6039
       ...                                ...                  ...
        67                          0.5400113              14.6945
      -------------------------------------------------------------
                  HL-Gap            0.0053280 Eh            0.1450 eV

     #   Z          covCN         q      C6AA      α(0)
     1   6 C        3.737    -0.107    22.624     6.788
     2   7 N        2.729     0.085    19.769     6.604
     3   6 C        2.805     0.058    26.696     8.465
     4   7 N        2.693    -0.049    22.188     6.996
     5   6 C        1.868    -0.017    31.574     9.076
     6   6 C        2.867    -0.027    28.682     8.779
     7   6 C        2.729     0.288    22.118     7.699
     8   8 O        0.858    -0.362    20.927     6.133
     9   7 N        1.828    -0.117    24.304     7.305
    10   6 C        3.690    -0.038    21.449     6.628
    11   6 C        2.732     0.245    22.890     7.833
    12   8 O        0.860    -0.272    19.284     5.888
    13   7 N        2.722    -0.013    21.507     6.888
    14   6 C        3.728    -0.075    22.039     6.702
    15   1 H        0.925     0.102     1.766     2.078
    16   1 H        0.925     0.099     1.795     2.095
    17   1 H        0.925     0.159     1.331     1.804
    18   1 H        0.925     0.108     1.711     2.045
    19   1 H        0.923     0.126     1.570     1.959
    20   1 H        0.924     0.125     1.571     1.960
    21   1 H        0.924     0.123     1.588     1.970
    22   1 H        0.925     0.101     1.774     2.083
    23   1 H        0.925     0.102     1.763     2.076
    24   1 H        0.925     0.119     1.620     1.990
    25   1 H        0.860     0.235     0.946     1.524

Wiberg/Mayer (AO) data.
largest (>0.10) Wiberg bond orders for each atom

     #   Z sym  total        # sym  WBO       # sym  WBO       # sym  WBO
 ---------------------------------------------------------------------------
     1   6 C    3.875 --    16 H    0.964     2 N    0.962    15 H    0.959
                            17 H    0.918
     2   7 N    3.666 --     3 C    1.375     6 C    1.194     1 C    0.962
     3   6 C    3.734 --     2 N    1.375     4 N    1.212    18 H    0.947
     4   7 N    3.507 --     5 C    1.239     3 C    1.212    25 H    0.914
     5   6 C    2.921 --    13 N    1.514     4 N    1.239
     6   6 C    3.537 --     2 N    1.194    11 C    1.178     7 C    0.876
     7   6 C    3.920 --     8 O    1.574     9 N    1.388     6 C    0.876
     8   8 O    1.864 --     7 C    1.574     9 N    0.129
     9   7 N    2.703 --     7 C    1.388    10 C    1.102     8 O    0.129
    10   6 C    3.853 --     9 N    1.102    21 H    0.914    20 H    0.907
                            19 H    0.892
    11   6 C    3.847 --    12 O    1.742     6 C    1.178    13 N    0.810
    12   8 O    2.048 --    11 C    1.742
    13   7 N    3.486 --     5 C    1.514    14 C    0.985    11 C    0.810
    14   6 C    3.895 --    13 N    0.985    22 H    0.956    23 H    0.954
                            24 H    0.953
    15   1 H    0.981 --     1 C    0.959
    16   1 H    0.984 --     1 C    0.964
    17   1 H    0.970 --     1 C    0.918
    18   1 H    0.985 --     3 C    0.947
    19   1 H    0.898 --    10 C    0.892
    20   1 H    0.928 --    10 C    0.907
    21   1 H    0.933 --    10 C    0.914
    22   1 H    0.975 --    14 C    0.956
    23   1 H    0.972 --    14 C    0.954
    24   1 H    0.981 --    14 C    0.953
    25   1 H    0.942 --     4 N    0.914
 ---------------------------------------------------------------------------

molecular dipole:
                 x           y           z       tot (Debye)
 q only:        1.381      -1.482       0.062
   full:        1.716      -1.414       0.037       5.652

           -------------------------------------------------
          | TOTAL ENERGY              -42.029758324012 Eh   |
          | GRADIENT NORM               0.003038675763 Eh/α |
          | HOMO-LUMO GAP               0.144982269965 eV   |
           -------------------------------------------------

 * finished run on 2024/06/05 at 20:00:11.458
