   * xtb version 6.6.1 (8d0f1dd) compiled by 'conda@1efc2f54142f' on 2023-08-01
          program call               : xtb xtbopt.xyz --opt crude --input .xc2 --gfn2

   ID    Z sym.   atoms
    1    6 C      1, 3, 5-7, 10, 11, 14
    2    7 N      2, 4, 9, 13
    3    8 O      8, 12
    4    1 H      15-25
########################################################################
[WARNING] Please study the warnings concerning your input carefully
-1- readin_getIntValue: could not parse ''
########################################################################

          :  Hamiltonian                  GFN2-xTB          :
 * total energy  :   -42.0300130 Eh     change       -0.2416556E-10 Eh
 * total energy  :   -42.0416573 Eh     change       -0.1164435E-01 Eh
 * total energy  :   -42.0489450 Eh     change       -0.7287693E-02 Eh
 * total energy  :   -42.0503965 Eh     change       -0.1451414E-02 Eh
 * total energy  :   -42.0515395 Eh     change       -0.1143001E-02 Eh
 * total energy  :   -42.0532264 Eh     change       -0.1686979E-02 Eh
 * total energy  :   -42.0581630 Eh     change       -0.4936519E-02 Eh
 * total energy  :   -42.0805381 Eh     change       -0.2237517E-01 Eh
 * total energy  :   -42.0755045 Eh     change        0.5033661E-02 Eh
 * total energy  :   -42.0947814 Eh     change       -0.1927692E-01 Eh
 * total energy  :   -42.0969112 Eh     change       -0.2129858E-02 Eh
 * total energy  :   -42.0985539 Eh     change       -0.1642669E-02 Eh
 * total energy  :   -42.0990745 Eh     change       -0.5205703E-03 Eh
 * total energy  :   -42.0992996 Eh     change       -0.2251451E-03 Eh
   *** GEOMETRY OPTIMIZATION CONVERGED AFTER 14 ITERATIONS ***

 final structure:
================
25
 xtb: 6.6.1 (8d0f1dd)
C            2.88329139007036        1.13254934318298        0.15885953620698
N            1.94595856127524        0.03275943422507       -0.00282294043047
C            2.44915419694446       -1.18186145948274       -0.11335467012612
N            1.78913181926754       -2.37346897812665       -0.21361893034148
C            0.50685359117679       -2.77126254405400       -0.12412279526469
C            0.58071408252876        0.31607702464033        0.00195339651705
C           -0.01109621979343        1.65648849585697       -0.01966974151329
O            0.49264369354646        2.75688897365228       -0.04837628566649
N           -1.36199231918491        1.43131065511107       -0.00448439144300
C           -2.42125814675860        2.39463602654409       -0.05519334768480
C           -0.48234207520532       -0.56926663881092        0.01078269118916
O           -1.65982209186953        0.09016837278422        0.01470018572681
N           -0.53033561629131       -1.95223039107018        0.00388524554427
C           -1.83529194163424       -2.60033595813892        0.09906572333300
H            3.32540617855302        1.10281559473329        1.15624245288135
H            3.67714823378366        1.06303823181337       -0.58352447531241
H            2.36441729159489        2.08283717809106        0.03674550678787
H            3.52811507110644       -1.24725106173390       -0.11933247127333
H           -1.93864039587174        3.37081793362902       -0.07098868699397
H           -3.02166021295737        2.25786709373089       -0.95702695561401
H           -3.06244514072191        2.30543468896747        0.82447496327483
H           -1.82405265540266       -3.30372099155399        0.93071118362356
H           -2.03618081284806       -3.15361185586829       -0.81822368963130
H           -2.61518288859254       -1.86005300365724        0.25469290485671
H            2.41789792138304       -3.16238762286451       -0.33020279074727

          :  Hamiltonian                  GFN2-xTB          :
         :: total energy             -42.099299626784 Eh    ::
         :: gradient norm              0.009063340193 Eh/a0 ::
         :: HOMO-LUMO gap              1.277422684104 eV    ::
         :: SCC energy               -42.589242419726 Eh    ::
         :: -> dispersion             -0.022090094094 Eh    ::
         :: repulsion energy           0.489825598316 Eh    ::

    * Orbital Energies and Occupations

         #    Occupation            Energy/Eh            Energy/eV
      -------------------------------------------------------------
         1        2.0000           -0.9379331             -25.5225
       ...           ...                  ...                  ...
        25        2.0000           -0.6673983             -18.1608
        26        2.0000           -0.6642858             -18.0761
        27        1.9999           -0.6541120             -17.7993
        28        1.9998           -0.6435657             -17.5123
        29        1.9995           -0.6259941             -17.0342
        30        1.9993           -0.6203051             -16.8794
        31        1.9991           -0.6175383             -16.8041
        32        1.9991           -0.6169391             -16.7878
        33        1.9983           -0.6067184             -16.5096
        34        1.9580           -0.5554772             -15.1153
        35        1.9364           -0.5487461             -14.9321
        36        1.8621           -0.5358718             -14.5818
        37        1.7374           -0.5245702             -14.2743 (HOMO)
        38        0.5088           -0.4776258             -12.9969 (LUMO)
        39        0.0021           -0.3863569             -10.5133
        40        0.0002           -0.3480852              -9.4719
        41        0.0000           -0.3041163              -8.2754
        42        0.0000           -0.2495575              -6.7908
        43                         -0.1937415              -5.2720
        44                         -0.1705124              -4.6399
        45                         -0.1319572              -3.5907
        46                         -0.1070421              -2.9128
        47                         -0.0763004              -2.0762
        48                         -0.0371344              -1.0105
       ...                                ...                  ...
        67                          0.5743064              15.6277
      -------------------------------------------------------------
                  HL-Gap            0.0469444 Eh            1.2774 eV

     #   Z          covCN         q      C6AA      α(0)
     1   6 C        3.714    -0.097    22.486     6.775
     2   7 N        2.730     0.056    20.259     6.685
     3   6 C        2.790     0.060    26.641     8.455
     4   7 N        2.685    -0.059    22.389     7.028
     5   6 C        1.865    -0.056    32.649     9.229
     6   6 C        2.953    -0.035    28.862     8.812
     7   6 C        2.823     0.248    22.854     7.833
     8   8 O        0.857    -0.389    21.461     6.211
     9   7 N        2.874     0.065    20.107     6.660
    10   6 C        3.684    -0.074    22.133     6.736
    11   6 C        2.926     0.168    24.375     8.096
    12   8 O        1.784    -0.139    16.391     5.467
    13   7 N        2.732     0.025    20.805     6.774
    14   6 C        3.718    -0.081    22.172     6.726
    15   1 H        0.924     0.098     1.802     2.099
    16   1 H        0.925     0.095     1.831     2.116
    17   1 H        0.925     0.142     1.444     1.879
    18   1 H        0.926     0.105     1.741     2.063
    19   1 H        0.925     0.125     1.570     1.959
    20   1 H        0.924     0.101     1.772     2.082
    21   1 H        0.924     0.102     1.767     2.078
    22   1 H        0.925     0.104     1.746     2.066
    23   1 H        0.925     0.103     1.759     2.074
    24   1 H        0.925     0.097     1.809     2.103
    25   1 H        0.860     0.233     0.951     1.528

Wiberg/Mayer (AO) data.
largest (>0.10) Wiberg bond orders for each atom

     #   Z sym  total        # sym  WBO       # sym  WBO       # sym  WBO
 ---------------------------------------------------------------------------
     1   6 C    3.904 --     2 N    0.972    16 H    0.967    15 H    0.959
                            17 H    0.946
     2   7 N    3.576 --     3 C    1.398     6 C    1.066     1 C    0.972
     3   6 C    3.687 --     2 N    1.398     4 N    1.199    18 H    0.949
     4   7 N    3.547 --     5 C    1.254     3 C    1.199    25 H    0.914
     5   6 C    2.721 --    13 N    1.338     4 N    1.254
     6   6 C    3.824 --    11 C    1.400     7 C    1.070     2 N    1.066
     7   6 C    3.956 --     8 O    1.621     9 N    1.153     6 C    1.070
     8   8 O    1.972 --     7 C    1.621     9 N    0.165
     9   7 N    3.426 --     7 C    1.153    10 C    0.992    12 O    0.985
                             8 O    0.165
    10   6 C    3.914 --     9 N    0.992    21 H    0.960    20 H    0.959
                            19 H    0.958
    11   6 C    3.774 --     6 C    1.400    12 O    1.096    13 N    1.092
    12   8 O    2.298 --    11 C    1.096     9 N    0.985
    13   7 N    3.570 --     5 C    1.338    11 C    1.092    14 C    0.968
    14   6 C    3.919 --    24 H    0.973    13 N    0.968    22 H    0.967
                            23 H    0.966
    15   1 H    0.980 --     1 C    0.959
    16   1 H    0.985 --     1 C    0.967
    17   1 H    0.978 --     1 C    0.946
    18   1 H    0.986 --     3 C    0.949
    19   1 H    0.983 --    10 C    0.958
    20   1 H    0.979 --    10 C    0.959
    21   1 H    0.980 --    10 C    0.960
    22   1 H    0.982 --    14 C    0.967
    23   1 H    0.982 --    14 C    0.966
    24   1 H    0.990 --    14 C    0.973
    25   1 H    0.941 --     4 N    0.914
 ---------------------------------------------------------------------------

molecular dipole:
                 x           y           z       tot (Debye)
 q only:        0.822      -1.727      -0.007
   full:        0.960      -1.613      -0.001       4.771

           -------------------------------------------------
          | TOTAL ENERGY              -42.099299626784 Eh   |
          | GRADIENT NORM               0.009063340193 Eh/α |
          | HOMO-LUMO GAP               1.277422684104 eV   |
           -------------------------------------------------

 * finished run on 2024/06/05 at 20:00:11.998
