   * xtb version 6.6.1 (8d0f1dd) compiled by 'conda@1efc2f54142f' on 2023-08-01
          program call               : xtb struc.xyz --opt loose --input .xc1 --gfn2

   ID    Z sym.   atoms
    1    6 C      1, 3, 5-7, 10, 11, 14
    2    7 N      2, 4, 9, 13
    3    8 O      8, 12
    4    1 H      15-25
constraining bond 7 10 to    5.0000000 Å, actual value:    2.4325910 Å

          :  Hamiltonian                  GFN2-xTB          :
 * total energy  :     4.8301165 Eh     change       -0.6650680E-10 Eh
 * total energy  :   -16.7201215 Eh     change       -0.2155024E+02 Eh
 * total energy  :   -30.0623918 Eh     change       -0.1334227E+02 Eh
 * total energy  :   -37.7690601 Eh     change       -0.7706668E+01 Eh
 * total energy  :   -40.9895076 Eh     change       -0.3220447E+01 Eh
 * total energy  :   -41.5309242 Eh     change       -0.5414166E+00 Eh
 * total energy  :   -41.5840792 Eh     change       -0.5315507E-01 Eh
 * total energy  :   -41.6334423 Eh     change       -0.4936303E-01 Eh
 * total energy  :   -41.6527211 Eh     change       -0.1927885E-01 Eh
 * total energy  :   -41.6624963 Eh     change       -0.9775168E-02 Eh
 * total energy  :   -42.1332236 Eh     change       -0.9990360E-03 Eh
 * total energy  :   -42.1339861 Eh     change       -0.7624532E-03 Eh
 * total energy  :   -42.1349190 Eh     change       -0.9329612E-03 Eh
 * total energy  :   -42.1353378 Eh     change       -0.4187737E-03 Eh
 * total energy  :   -42.1355706 Eh     change       -0.2327912E-03 Eh
 * total energy  :   -42.1358518 Eh     change       -0.2812261E-03 Eh
 * total energy  :   -42.1360855 Eh     change       -0.2336654E-03 Eh
 * total energy  :   -42.1363209 Eh     change       -0.2354055E-03 Eh
 * total energy  :   -42.1363587 Eh     change       -0.3783482E-04 Eh
   *** GEOMETRY OPTIMIZATION CONVERGED AFTER 87 ITERATIONS ***

 final structure:
================
25
 xtb: 6.6.1 (8d0f1dd)
C            3.77286094386602        0.72271614678585        0.08916130085996
N            2.59518262003549       -0.09610022135541        0.00565419970195
C            2.55295797451899       -1.43365768256182       -0.04159614792287
N            1.25386852323470       -1.84139355658512       -0.06682383490030
C            0.45201013935923       -0.73936530122261       -0.03478057844170
C            1.29871096023396        0.37064735469353        0.01337214866327
C            0.80241048030686        1.70678105640017        0.03228832161374
O            1.34151327618212        2.77625028604773        0.05883488089504
N           -0.69149702329447        1.63112867699066        0.01201728647325
C           -4.12322574639587        0.87796835007756       -0.00443054418458
C           -1.56274804043912        0.53384276891094       -0.00443141147459
O           -2.85170296786518        0.39176059844270        0.00735353110776
N           -0.90144024322455       -0.71767456392801       -0.03635953859397
C           -1.61868927695132       -1.97801639354409       -0.07437069010774
H            4.25874274088040        0.59100015447933        1.05741050248782
H            4.47798353417741        0.45321603913744       -0.69649878440569
H            3.48391394323368        1.76630994798185       -0.02190061851436
H            3.40086092007246       -2.08486205468560       -0.05874847874020
H           -1.12507633951165        2.54726395956756        0.02993714115086
H           -4.86447445439568        0.11140787810979        0.06638718964327
H           -4.32409846045723        1.92954363307663        0.06460177577766
H           -1.37493871511416       -2.57562211759761        0.80590863622728
H           -1.36217119074762       -2.52989354923279       -0.98074950054496
H           -2.68776297268231       -1.79165115463702       -0.07751552070420
H            0.95724088909001       -2.80336171372712       -0.11354964816250

          :  Hamiltonian                  GFN2-xTB          :
         :: total energy             -42.136358725975 Eh    ::
         :: gradient norm              0.002753729846 Eh/a0 ::
         :: HOMO-LUMO gap              1.248322724041 eV    ::
         :: SCC energy               -42.636311727193 Eh    ::
         :: -> dispersion             -0.022028671557 Eh    ::
         :: repulsion energy           0.499736725594 Eh    ::

    * Orbital Energies and Occupations

         #    Occupation            Energy/Eh            Energy/eV
      -------------------------------------------------------------
         1        2.0000           -0.9005254             -24.5045
       ...           ...                  ...                  ...
        25        2.0000           -0.6665245             -18.1371
        26        2.0000           -0.6602512             -17.9663
        27        2.0000           -0.6574760             -17.8908
        28        2.0000           -0.6412707             -17.4499
        29        2.0000           -0.6311134             -17.1735
        30        2.0000           -0.6186440             -16.8342
        31        2.0000           -0.6160840             -16.7645
        32        1.9999           -0.5974573             -16.2576
        33        1.9999           -0.5949259             -16.1888
        34        1.9997           -0.5820637             -15.8388
        35        1.9985           -0.5541104             -15.0781
        36        1.9977           -0.5474921             -14.8980
        37        1.5715           -0.4605899             -12.5333 (HOMO)
        38        0.3366           -0.4147149             -11.2850 (LUMO)
        39        0.0770           -0.3890624             -10.5869
        40        0.0190           -0.3664735              -9.9723
        41        0.0001           -0.2785712              -7.5803
        42        0.0000           -0.2413161              -6.5665
        43        0.0000           -0.1903448              -5.1795
        44                         -0.1678114              -4.5664
        45                         -0.1357944              -3.6952
        46                         -0.1278251              -3.4783
        47                         -0.0527898              -1.4365
        48                         -0.0347244              -0.9449
       ...                                ...                  ...
        67                          0.5930339              16.1373
      -------------------------------------------------------------
                  HL-Gap            0.0458750 Eh            1.2483 eV

     #   Z          covCN         q      C6AA      α(0)
     1   6 C        3.691    -0.088    22.380     6.770
     2   7 N        2.820     0.062    20.158     6.668
     3   6 C        3.023     0.030    27.302     8.571
     4   7 N        2.788    -0.069    22.577     7.057
     5   6 C        3.019     0.103    25.700     8.316
     6   6 C        3.098    -0.023    28.447     8.741
     7   6 C        2.746     0.270    22.447     7.758
     8   8 O        0.857    -0.347    20.659     6.094
     9   7 N        2.690    -0.214    25.664     7.524
    10   6 C        2.707    -0.021    28.513     8.740
    11   6 C        2.698     0.228    23.207     7.885
    12   8 O        1.711    -0.129    16.250     5.443
    13   7 N        2.737    -0.040    22.024     6.970
    14   6 C        3.698    -0.077    22.139     6.730
    15   1 H        0.924     0.100     1.788     2.091
    16   1 H        0.925     0.098     1.801     2.099
    17   1 H        0.925     0.125     1.576     1.963
    18   1 H        0.927     0.111     1.684     2.030
    19   1 H        0.860     0.223     0.994     1.562
    20   1 H        0.927     0.094     1.840     2.121
    21   1 H        0.926     0.071     2.070     2.250
    22   1 H        0.924     0.083     1.949     2.183
    23   1 H        0.924     0.083     1.951     2.184
    24   1 H        0.925     0.110     1.700     2.039
    25   1 H        0.860     0.218     1.018     1.581

Wiberg/Mayer (AO) data.
largest (>0.10) Wiberg bond orders for each atom

     #   Z sym  total        # sym  WBO       # sym  WBO       # sym  WBO
 ---------------------------------------------------------------------------
     1   6 C    3.927 --     2 N    0.991    17 H    0.966    16 H    0.966
                            15 H    0.960
     2   7 N    3.584 --     3 C    1.329     6 C    1.142     1 C    0.991
     3   6 C    3.716 --     2 N    1.329     4 N    1.229    18 H    0.957
     4   7 N    3.536 --     3 C    1.229     5 C    1.196    25 H    0.923
     5   6 C    3.883 --     6 C    1.308     4 N    1.196    13 N    1.190
     6   6 C    3.855 --     5 C    1.308     2 N    1.142     7 C    1.119
     7   6 C    3.856 --     8 O    1.723     6 C    1.119     9 N    0.952
     8   8 O    2.038 --     7 C    1.723     9 N    0.149
     9   7 N    3.349 --    11 C    1.140     7 C    0.952    19 H    0.924
                             8 O    0.149
    10   6 C    3.340 --    12 O    1.093    21 H    0.974    20 H    0.965
                            11 C    0.238
    11   6 C    3.770 --    12 O    1.247     9 N    1.140    13 N    1.057
                            10 C    0.238
    12   8 O    2.541 --    11 C    1.247    10 C    1.093
    13   7 N    3.496 --     5 C    1.190    11 C    1.057    14 C    0.982
    14   6 C    3.937 --    13 N    0.982    22 H    0.971    23 H    0.971
                            24 H    0.970
    15   1 H    0.983 --     1 C    0.960
    16   1 H    0.985 --     1 C    0.966
    17   1 H    0.984 --     1 C    0.966
    18   1 H    0.987 --     3 C    0.957
    19   1 H    0.950 --     9 N    0.924
    20   1 H    0.990 --    10 C    0.965
    21   1 H    0.994 --    10 C    0.974
    22   1 H    0.989 --    14 C    0.971
    23   1 H    0.989 --    14 C    0.971
    24   1 H    0.988 --    14 C    0.970
    25   1 H    0.952 --     4 N    0.923
 ---------------------------------------------------------------------------

molecular dipole:
                 x           y           z       tot (Debye)
 q only:        0.643      -2.104      -0.037
   full:        0.492      -2.332      -0.008       6.058

           -------------------------------------------------
          | TOTAL ENERGY              -42.136358725975 Eh   |
          | GRADIENT NORM               0.002753729846 Eh/α |
          | HOMO-LUMO GAP               1.248322724041 eV   |
           -------------------------------------------------

 * finished run on 2024/06/05 at 20:00:15.777
