   * xtb version 6.6.1 (8d0f1dd) compiled by 'conda@1efc2f54142f' on 2023-08-01
          program call               : xtb xtbopt.xyz --opt crude --input .xc2 --gfn2

   ID    Z sym.   atoms
    1    6 C      1, 3, 5-7, 10, 11, 14
    2    7 N      2, 4, 9, 13
    3    8 O      8, 12
    4    1 H      15-25
########################################################################
[WARNING] Please study the warnings concerning your input carefully
-1- readin_getIntValue: could not parse ''
########################################################################

          :  Hamiltonian                  GFN2-xTB          :
 * total energy  :   -42.1365362 Eh     change       -0.1804779E-11 Eh
 * total energy  :   -42.1447513 Eh     change       -0.8215053E-02 Eh
 * total energy  :   -42.1512300 Eh     change       -0.6478782E-02 Eh
 * total energy  :   -42.1548302 Eh     change       -0.3600156E-02 Eh
 * total energy  :   -42.1577242 Eh     change       -0.2894027E-02 Eh
 * total energy  :   -42.1597795 Eh     change       -0.2055233E-02 Eh
 * total energy  :   -42.1610878 Eh     change       -0.1308367E-02 Eh
 * total energy  :   -42.1616362 Eh     change       -0.5484142E-03 Eh
 * total energy  :   -42.1617020 Eh     change       -0.6576551E-04 Eh
 * total energy  :   -42.1618695 Eh     change       -0.1675222E-03 Eh
   *** GEOMETRY OPTIMIZATION CONVERGED AFTER 10 ITERATIONS ***

 final structure:
================
25
 xtb: 6.6.1 (8d0f1dd)
C            3.61398374125550        0.87191721102844        0.07978384760102
N            2.51403552311650       -0.05147462921971        0.01799326105761
C            2.59445395000121       -1.38893117815429       -0.02841553049857
N            1.33634712803715       -1.91487347682651       -0.06007771480145
C            0.44581277029568       -0.88555919807093       -0.03153034298271
C            1.18348842424666        0.29501142558436        0.01807470893537
C            0.55530881977140        1.59465330186494        0.04193733178701
O            1.07676700817141        2.68445222017240        0.06624468483822
N           -0.84234566054164        1.45130475072871        0.02870976376623
C           -3.71834158114082        1.26616440892833        0.03656048311475
C           -1.57432124127760        0.28651619115886       -0.00537478126457
O           -2.86414568618502        0.24670213995906        0.00272227982146
N           -0.90975241114593       -0.93806422159491       -0.04820135822384
C           -1.61751176920419       -2.20052005200202       -0.09406355630301
H            4.12937886364970        0.78529715833221        1.03756786756647
H            4.32414918584067        0.66806033776951       -0.72116712128708
H            3.22475845630460        1.88391757425162       -0.02303976495164
H            3.49859757494613       -1.95878127754924       -0.04085276901562
H           -1.36382293508477        2.31985429941936        0.04275438555563
H           -4.74674011693170        0.97199083186693        0.04783592916942
H           -3.41194665545041        2.29202702219346        0.08139833529937
H           -1.37679249621336       -2.80014145682130        0.78540012675897
H           -1.34948115546716       -2.74882095273608       -0.99868892684078
H           -2.68713031178926       -2.01279313868406       -0.10520404184397
H            1.12568208890752       -2.89967074997489       -0.09919547935410

          :  Hamiltonian                  GFN2-xTB          :
         :: total energy             -42.161869525213 Eh    ::
         :: gradient norm              0.002957299963 Eh/a0 ::
         :: HOMO-LUMO gap              1.294690412606 eV    ::
         :: SCC energy               -42.674011100675 Eh    ::
         :: -> dispersion             -0.022334578013 Eh    ::
         :: repulsion energy           0.512092665953 Eh    ::

    * Orbital Energies and Occupations

         #    Occupation            Energy/Eh            Energy/eV
      -------------------------------------------------------------
         1        2.0000           -0.9142839             -24.8789
       ...           ...                  ...                  ...
        25        2.0000           -0.6670026             -18.1501
        26        2.0000           -0.6616272             -18.0038
        27        2.0000           -0.6603188             -17.9682
        28        2.0000           -0.6402570             -17.4223
        29        2.0000           -0.6346705             -17.2703
        30        2.0000           -0.6214197             -16.9097
        31        2.0000           -0.6139111             -16.7054
        32        1.9999           -0.6029987             -16.4084
        33        1.9999           -0.5955324             -16.2053
        34        1.9999           -0.5944307             -16.1753
        35        1.9982           -0.5498528             -14.9623
        36        1.9980           -0.5482437             -14.9185
        37        1.5814           -0.4598065             -12.5120 (HOMO)
        38        0.3153           -0.4122275             -11.2173 (LUMO)
        39        0.0818           -0.3888168             -10.5802
        40        0.0256           -0.3699276             -10.0662
        41        0.0001           -0.2761287              -7.5138
        42        0.0000           -0.2078749              -5.6566
        43        0.0000           -0.1794582              -4.8833
        44                         -0.1353065              -3.6819
        45                         -0.1305112              -3.5514
        46                         -0.0947906              -2.5794
        47                         -0.0456568              -1.2424
        48                         -0.0319108              -0.8683
       ...                                ...                  ...
        67                          0.5576217              15.1737
      -------------------------------------------------------------
                  HL-Gap            0.0475790 Eh            1.2947 eV

     #   Z          covCN         q      C6AA      α(0)
     1   6 C        3.691    -0.090    22.413     6.775
     2   7 N        2.823     0.065    20.106     6.660
     3   6 C        3.030     0.028    27.349     8.578
     4   7 N        2.785    -0.069    22.574     7.057
     5   6 C        3.040     0.099    25.779     8.328
     6   6 C        3.103    -0.027    28.535     8.753
     7   6 C        2.753     0.267    22.494     7.766
     8   8 O        0.858    -0.381    21.298     6.187
     9   7 N        2.699    -0.183    24.956     7.419
    10   6 C        2.736    -0.035    28.836     8.792
    11   6 C        2.748     0.214    23.467     7.932
    12   8 O        1.711    -0.106    15.916     5.387
    13   7 N        2.735    -0.037    21.956     6.959
    14   6 C        3.695    -0.075    22.120     6.728
    15   1 H        0.924     0.100     1.789     2.092
    16   1 H        0.925     0.098     1.806     2.102
    17   1 H        0.925     0.129     1.540     1.941
    18   1 H        0.927     0.111     1.684     2.029
    19   1 H        0.860     0.236     0.938     1.517
    20   1 H        0.927     0.097     1.817     2.108
    21   1 H        0.926     0.058     2.226     2.333
    22   1 H        0.924     0.086     1.919     2.166
    23   1 H        0.924     0.086     1.918     2.166
    24   1 H        0.925     0.110     1.696     2.036
    25   1 H        0.860     0.218     1.020     1.582

Wiberg/Mayer (AO) data.
largest (>0.10) Wiberg bond orders for each atom

     #   Z sym  total        # sym  WBO       # sym  WBO       # sym  WBO
 ---------------------------------------------------------------------------
     1   6 C    3.925 --     2 N    0.990    16 H    0.965    17 H    0.964
                            15 H    0.960
     2   7 N    3.590 --     3 C    1.326     6 C    1.155     1 C    0.990
     3   6 C    3.709 --     2 N    1.326     4 N    1.224    18 H    0.958
     4   7 N    3.530 --     3 C    1.224     5 C    1.199    25 H    0.924
     5   6 C    3.885 --     6 C    1.327     4 N    1.199    13 N    1.168
     6   6 C    3.862 --     5 C    1.327     2 N    1.155     7 C    1.081
     7   6 C    3.873 --     8 O    1.673     6 C    1.081     9 N    1.057
     8   8 O    1.983 --     7 C    1.673     9 N    0.141
     9   7 N    3.410 --    11 C    1.141     7 C    1.057    19 H    0.904
                             8 O    0.141
    10   6 C    3.388 --    12 O    1.128    21 H    0.970    20 H    0.968
                            11 C    0.223
    11   6 C    3.767 --    12 O    1.227     9 N    1.141    13 N    1.087
                            10 C    0.223
    12   8 O    2.531 --    11 C    1.227    10 C    1.128
    13   7 N    3.490 --     5 C    1.168    11 C    1.087    14 C    0.979
    14   6 C    3.934 --    13 N    0.979    24 H    0.971    23 H    0.971
                            22 H    0.970
    15   1 H    0.983 --     1 C    0.960
    16   1 H    0.985 --     1 C    0.965
    17   1 H    0.983 --     1 C    0.964
    18   1 H    0.987 --     3 C    0.958
    19   1 H    0.944 --     9 N    0.904
    20   1 H    0.990 --    10 C    0.968
    21   1 H    0.997 --    10 C    0.970
    22   1 H    0.989 --    14 C    0.970
    23   1 H    0.989 --    14 C    0.971
    24   1 H    0.987 --    14 C    0.971
    25   1 H    0.952 --     4 N    0.924
 ---------------------------------------------------------------------------

molecular dipole:
                 x           y           z       tot (Debye)
 q only:        0.661      -2.155      -0.050
   full:        0.566      -2.476      -0.050       6.456

           -------------------------------------------------
          | TOTAL ENERGY              -42.161869525213 Eh   |
          | GRADIENT NORM               0.002957299963 Eh/α |
          | HOMO-LUMO GAP               1.294690412606 eV   |
           -------------------------------------------------

 * finished run on 2024/06/05 at 20:00:16.176
