   * xtb version 6.6.1 (8d0f1dd) compiled by 'conda@1efc2f54142f' on 2023-08-01
          program call               : xtb struc.xyz --opt loose --input .xc1 --gfn2

   ID    Z sym.   atoms
    1    7 N      1, 17
    2    6 C      2-6, 8, 9, 11-16, 18-23, 25, 26, 28-33
    3    8 O      7, 10, 24, 27
    4    1 H      34-72
constraining bond 21 29 to    5.0000000 Å, actual value:    2.3954443 Å

          :  Hamiltonian                  GFN2-xTB          :
 * total energy  :   -98.1928777 Eh     change       -0.4035485E-08 Eh
 * total energy  :   -98.4491170 Eh     change       -0.2562394E+00 Eh
 * total energy  :   -98.6151791 Eh     change       -0.1660620E+00 Eh
 * total energy  :   -98.7177451 Eh     change       -0.1025660E+00 Eh
 * total energy  :   -98.7837600 Eh     change       -0.6601496E-01 Eh
 * total energy  :   -98.8285026 Eh     change       -0.4474253E-01 Eh
 * total energy  :   -98.8542083 Eh     change       -0.2570570E-01 Eh
 * total energy  :   -98.8651708 Eh     change       -0.1096255E-01 Eh
 * total energy  :   -98.8754660 Eh     change       -0.1029522E-01 Eh
 * total energy  :   -98.8829338 Eh     change       -0.7467794E-02 Eh
 * total energy  :   -99.1615163 Eh     change       -0.1450969E-03 Eh
 * total energy  :   -99.1617054 Eh     change       -0.1890811E-03 Eh
 * total energy  :   -99.1618034 Eh     change       -0.9797162E-04 Eh
 * total energy  :   -99.1618932 Eh     change       -0.8982476E-04 Eh
 * total energy  :   -99.1619446 Eh     change       -0.5135179E-04 Eh
 * total energy  :   -99.1620733 Eh     change       -0.1287765E-03 Eh
 * total energy  :   -99.1621519 Eh     change       -0.7856096E-04 Eh
 * total energy  :   -99.1622070 Eh     change       -0.5507687E-04 Eh
 * total energy  :   -99.1622405 Eh     change       -0.3355789E-04 Eh
   *** GEOMETRY OPTIMIZATION CONVERGED AFTER 76 ITERATIONS ***

 final structure:
================
72
 xtb: 6.6.1 (8d0f1dd)
N           -2.08488715843841        2.87254323997489        2.28167879167178
C           -2.01727240849282        2.11319809177423        1.29201586204154
C           -3.12026637848031        1.91385706080697        0.28933749819779
C           -3.62708288315254        0.48250462797181        0.36779753551700
C           -4.48172683970836       -0.00600226104734       -0.62292187971059
C           -4.97075239619392       -1.30064461093370       -0.58318608168653
O           -5.79900062590158       -1.84943837885952       -1.49778712320175
C           -6.30684683553841       -1.04520985281070       -2.53597282046726
C           -4.59299905146575       -2.15881182990793        0.48391371869645
O           -5.10245969461507       -3.40737030287612        0.43343991588054
C           -4.83332492796107       -4.29805929483496        1.49052891439730
C           -3.75570141233256       -1.66427652350610        1.47053809056133
C           -3.28123961275361       -0.35916352889023        1.41281262189529
C           -2.47657240514064        2.17657792230022       -1.09799511924478
C           -1.56760493885198        1.04460784243582       -1.61324332656787
C           -0.27791477266096        0.93341247519280       -0.89580318719706
N            0.26985477039173       -0.19891020695250       -0.45890498167729
C            1.64672279086395       -0.22415738448747       -0.03090460362996
C            2.57753564208031       -0.75800853337007       -1.14353631806235
C            3.98422378985412       -0.57260405762269       -0.77950106167119
C            7.07902170593571        2.90763001490050       -1.08031421811826
C            6.48515123574956        1.74900024046322       -0.84470929415059
C            6.94686200569059        0.45840018920109       -0.27723149196706
O            8.24961384793159        0.34767174315912        0.10054605253717
C            9.19198627248615        1.36004566663776       -0.11651821670029
C            6.28338155764332       -0.77998021969593       -0.00640569497443
O            7.19542458576882       -1.62843769813263        0.55509961779824
C            6.93272472858285       -2.99291992494812        0.76139923409036
C            4.92057258754547       -1.30227655933109       -0.19265598400015
C           -0.42984761107499       -1.46021321914030       -0.51667170947416
C           -4.33085585764597        2.87052011463872        0.50135759345213
C           -5.03320480137280        2.59646193630072        1.82919902054694
C           -3.95383227472160        4.34678528023111        0.41311410554882
H           -4.77729724524032        0.64212813383876       -1.43113736934959
H           -6.86030402806812       -0.18648754774262       -2.14432406227488
H           -6.98572772277602       -1.68581474921729       -3.09536634274982
H           -5.51084511193587       -0.69603935266174       -3.20205511494489
H           -5.19350519956621       -3.90674080871772        2.44650418794828
H           -5.37369183427147       -5.21087886199960        1.24782556612826
H           -3.76382576629668       -4.52009208146491        1.56609616272181
H           -3.47027966795895       -2.28505222415220        2.30419250300156
H           -2.65318031129210       -0.00125125282413        2.21390552794864
H           -3.27065200708620        2.32673221578292       -1.82883358603477
H           -1.89873711342635        3.10022880745642       -1.04608884440608
H           -2.11416481983151        0.10350292437332       -1.60436391543335
H           -1.33633487639257        1.28728020594109       -2.65903491456329
H           -1.11200170209260        1.53792701396664        1.01787779234881
H            0.34110368373949        1.81684435455808       -0.84422742500772
H            1.73971118131719       -0.85789548372813        0.85464432714015
H            1.96163523130154        0.78688304493796        0.23516756934957
H            2.36552520643740       -0.19892683517674       -2.06123508900804
H            2.35221842174022       -1.81596089474855       -1.34027920771596
H            7.89249012375217        3.58037302907138       -1.07694254908678
H            5.42627394308888        1.65405154499396       -1.11139049155461
H            8.98015651363143        2.24114396576035        0.49723414011674
H            9.24826663564512        1.64194892638821       -1.17183395723162
H           10.14533134357629        0.92961586675146        0.19251654782599
H            7.88766467861938       -3.41715440282738        1.07163068436497
H            6.20237771617074       -3.15605203992670        1.56211883530777
H            6.60357655281991       -3.49251876212543       -0.15530367074850
H            4.74681346246927       -2.30713614191034        0.18541394765300
H           -0.54489493201349       -1.80609129871462       -1.54669945607129
H           -1.41985432186751       -1.36593187280553       -0.06466683772692
H            0.13296715150454       -2.20670679340000        0.03854111364668
H           -5.04109419420914        2.65328833732365       -0.30492718494064
H           -4.36716655819938        2.82187820168556        2.65572284098445
H           -5.34756577381040        1.55805860223540        1.90086327892525
H           -5.91443784271509        3.22715448342632        1.91205421091775
H           -3.22155235582792        4.59465471567516        1.17512887667583
H           -3.55766088341895        4.60756797552934       -0.56471575037005
H           -4.84055782666856        4.95139869117515        0.58479830001722
H           -1.26394678787329        2.95147782708923        2.87393873858200

          :  Hamiltonian                  GFN2-xTB          :
         :: total energy             -99.162240553477 Eh    ::
         :: gradient norm              0.002079587767 Eh/a0 ::
         :: HOMO-LUMO gap              0.286311581887 eV    ::
         :: SCC energy              -100.514764012585 Eh    ::
         :: -> dispersion             -0.073272541727 Eh    ::
         :: repulsion energy           1.345072026241 Eh    ::

    * Orbital Energies and Occupations

         #    Occupation            Energy/Eh            Energy/eV
      -------------------------------------------------------------
         1        2.0000           -0.8089490             -22.0126
       ...           ...                  ...                  ...
        78        1.9985           -0.5237998             -14.2533
        79        1.9984           -0.5234237             -14.2431
        80        1.9978           -0.5178251             -14.0907
        81        1.9976           -0.5163034             -14.0493
        82        1.9964           -0.5100842             -13.8801
        83        1.9958           -0.5078137             -13.8183
        84        1.9953           -0.5059913             -13.7687
        85        1.9950           -0.5047499             -13.7349
        86        1.9832           -0.4856301             -13.2147
        87        1.9423           -0.4657467             -12.6736
        88        1.8888           -0.4549136             -12.3788
        89        1.5980           -0.4319200             -11.7531
        90        1.2220           -0.4172156             -11.3530 (HOMO)
        91        0.8939           -0.4066938             -11.0667 (LUMO)
        92        0.4262           -0.3893807             -10.5956
        93        0.0543           -0.3534065              -9.6167
        94        0.0153           -0.3330120              -9.0617
        95        0.0040           -0.3117674              -8.4836
        96        0.0033           -0.3084831              -8.3943
        97        0.0006           -0.2804687              -7.6319
        98        0.0000           -0.2252176              -6.1285
        99        0.0000           -0.1858637              -5.0576
       100                         -0.1303069              -3.5458
       101                         -0.0931685              -2.5352
       ...                                ...                  ...
       171                          0.6683819              18.1876
      -------------------------------------------------------------
                  HL-Gap            0.0105218 Eh            0.2863 eV

     #   Z          covCN         q      C6AA      α(0)
     1   7 N        1.774    -0.271    27.862     7.816
     2   6 C        2.827     0.101    25.748     8.315
     3   6 C        3.907     0.006    20.414     6.422
     4   6 C        2.974     0.002    27.988     8.678
     5   6 C        2.921    -0.081    30.015     8.984
     6   6 C        2.862     0.128    25.191     8.227
     7   8 O        1.706    -0.233    17.865     5.707
     8   6 C        3.644     0.029    20.431     6.497
     9   6 C        2.864     0.127    25.213     8.231
    10   8 O        1.706    -0.232    17.844     5.703
    11   6 C        3.645     0.028    20.439     6.497
    12   6 C        2.914    -0.075    29.880     8.964
    13   6 C        2.921    -0.054    29.330     8.881
    14   6 C        3.812    -0.064    21.717     6.633
    15   6 C        3.802    -0.068    21.808     6.649
    16   6 C        2.843     0.003    27.944     8.663
    17   7 N        2.729     0.004    21.187     6.836
    18   6 C        3.757    -0.013    20.868     6.513
    19   6 C        3.802    -0.048    21.436     6.592
    20   6 C        1.975    -0.101    33.861     9.397
    21   6 C        1.909    -0.089    33.541     9.353
    22   6 C        2.883    -0.032    28.786     8.796
    23   6 C        2.830     0.121    25.328     8.247
    24   8 O        1.710    -0.212    17.521     5.652
    25   6 C        3.635     0.025    20.536     6.521
    26   6 C        2.838     0.122    25.312     8.245
    27   8 O        1.710    -0.227    17.762     5.690
    28   6 C        3.634     0.030    20.448     6.508
    29   6 C        2.885    -0.053    29.321     8.877
    30   6 C        3.699    -0.068    21.978     6.705
    31   6 C        3.853    -0.007    20.669     6.466
    32   6 C        3.756    -0.118    22.817     6.811
    33   6 C        3.755    -0.118    22.825     6.812
    34   1 H        0.926     0.051     2.308     2.376
    35   1 H        0.924     0.053     2.285     2.364
    36   1 H        0.925     0.080     1.982     2.201
    37   1 H        0.924     0.046     2.375     2.410
    38   1 H        0.924     0.054     2.270     2.356
    39   1 H        0.925     0.080     1.982     2.202
    40   1 H        0.924     0.046     2.368     2.406
    41   1 H        0.926     0.051     2.310     2.377
    42   1 H        0.926     0.039     2.466     2.456
    43   1 H        0.925     0.059     2.210     2.325
    44   1 H        0.924     0.053     2.287     2.365
    45   1 H        0.925     0.065     2.145     2.290
    46   1 H        0.923     0.077     2.014     2.219
    47   1 H        0.922     0.005     2.980     2.700
    48   1 H        0.926     0.066     2.126     2.280
    49   1 H        0.924     0.065     2.140     2.287
    50   1 H        0.924     0.070     2.090     2.261
    51   1 H        0.924     0.062     2.171     2.304
    52   1 H        0.923     0.056     2.250     2.346
    53   1 H        0.928     0.093     1.846     2.125
    54   1 H        0.924     0.086     1.914     2.164
    55   1 H        0.924     0.063     2.166     2.302
    56   1 H        0.924     0.063     2.164     2.300
    57   1 H        0.924     0.088     1.902     2.157
    58   1 H        0.925     0.082     1.960     2.189
    59   1 H        0.924     0.052     2.299     2.371
    60   1 H        0.924     0.054     2.275     2.359
    61   1 H        0.925     0.062     2.173     2.305
    62   1 H        0.924     0.073     2.051     2.240
    63   1 H        0.924     0.079     1.987     2.204
    64   1 H        0.925     0.077     2.015     2.220
    65   1 H        0.924     0.036     2.504     2.475
    66   1 H        0.925     0.068     2.108     2.271
    67   1 H        0.925     0.035     2.519     2.482
    68   1 H        0.925     0.050     2.322     2.383
    69   1 H        0.925     0.061     2.189     2.314
    70   1 H        0.925     0.034     2.532     2.488
    71   1 H        0.925     0.053     2.280     2.361
    72   1 H        0.860     0.155     1.367     1.832

Wiberg/Mayer (AO) data.
largest (>0.10) Wiberg bond orders for each atom

     #   Z sym  total        # sym  WBO       # sym  WBO       # sym  WBO
 ---------------------------------------------------------------------------
     1   7 N    3.036 --     2 C    1.955    72 H    0.943
     2   6 C    3.929 --     1 N    1.955     3 C    0.995    47 H    0.904
     3   6 C    3.977 --     2 C    0.995     4 C    0.971    14 C    0.956
                            31 C    0.943
     4   6 C    3.953 --    13 C    1.417     5 C    1.367     3 C    0.971
     5   6 C    3.964 --     6 C    1.403     4 C    1.367    34 H    0.958
     6   6 C    3.909 --     5 C    1.403     9 C    1.225     7 O    1.095
     7   8 O    2.253 --     6 C    1.095     8 C    0.979
     8   6 C    3.934 --     7 O    0.979    36 H    0.977    35 H    0.974
                            37 H    0.974
     9   6 C    3.905 --    12 C    1.395     6 C    1.225    10 O    1.097
    10   8 O    2.252 --     9 C    1.097    11 C    0.978
    11   6 C    3.933 --    10 O    0.978    39 H    0.977    40 H    0.974
                            38 H    0.974
    12   6 C    3.965 --    13 C    1.400     9 C    1.395    41 H    0.964
    13   6 C    3.958 --     4 C    1.417    12 C    1.400    42 H    0.963
    14   6 C    3.971 --    15 C    0.980    44 H    0.973    43 H    0.968
                             3 C    0.956
    15   6 C    3.987 --    16 C    1.060    14 C    0.980    45 H    0.962
                            46 H    0.929
    16   6 C    3.567 --    17 N    1.383    15 C    1.060    48 H    0.958
    17   7 N    3.464 --    16 C    1.383    30 C    0.999    18 C    0.992
    18   6 C    3.949 --    17 N    0.992    50 H    0.968    49 H    0.965
                            19 C    0.954
    19   6 C    3.950 --    20 C    1.056    18 C    0.954    51 H    0.953
                            52 H    0.939
    20   6 C    2.996 --    29 C    1.790    19 C    1.056
    21   6 C    3.036 --    22 C    1.926    53 H    0.956
    22   6 C    3.954 --    21 C    1.926    23 C    1.076    54 H    0.892
    23   6 C    3.693 --    26 C    1.348    24 O    1.100    22 C    1.076
    24   8 O    2.233 --    23 C    1.100    25 C    0.982
    25   6 C    3.915 --    24 O    0.982    57 H    0.968    56 H    0.962
                            55 H    0.961
    26   6 C    3.754 --    23 C    1.348    29 C    1.132    27 O    1.094
    27   8 O    2.227 --    26 C    1.094    28 C    0.981
    28   6 C    3.929 --    27 O    0.981    58 H    0.972    60 H    0.971
                            59 H    0.968
    29   6 C    3.928 --    20 C    1.790    26 C    1.132    61 H    0.900
    30   6 C    3.958 --    17 N    0.999    64 H    0.978    62 H    0.966
                            63 H    0.961
    31   6 C    3.974 --    33 C    1.009    32 C    1.008    65 H    0.961
                             3 C    0.943
    32   6 C    3.981 --    31 C    1.008    67 H    0.982    68 H    0.982
                            66 H    0.975
    33   6 C    3.984 --    31 C    1.009    70 H    0.983    71 H    0.981
                            69 H    0.977
    34   1 H    0.996 --     5 C    0.958
    35   1 H    0.994 --     8 C    0.974
    36   1 H    0.993 --     8 C    0.977
    37   1 H    0.994 --     8 C    0.974
    38   1 H    0.993 --    11 C    0.974
    39   1 H    0.993 --    11 C    0.977
    40   1 H    0.994 --    11 C    0.974
    41   1 H    0.996 --    12 C    0.964
    42   1 H    0.998 --    13 C    0.963
    43   1 H    0.995 --    14 C    0.968
    44   1 H    0.996 --    14 C    0.973
    45   1 H    0.995 --    15 C    0.962
    46   1 H    0.969 --    15 C    0.929
    47   1 H    0.988 --     2 C    0.904
    48   1 H    0.995 --    16 C    0.958
    49   1 H    0.991 --    18 C    0.965
    50   1 H    0.993 --    18 C    0.968
    51   1 H    0.978 --    19 C    0.953
    52   1 H    0.956 --    19 C    0.939
    53   1 H    0.978 --    21 C    0.956
    54   1 H    0.930 --    22 C    0.892
    55   1 H    0.985 --    25 C    0.961
    56   1 H    0.986 --    25 C    0.962
    57   1 H    0.985 --    25 C    0.968
    58   1 H    0.990 --    28 C    0.972
    59   1 H    0.989 --    28 C    0.968
    60   1 H    0.990 --    28 C    0.971
    61   1 H    0.923 --    29 C    0.900
    62   1 H    0.985 --    30 C    0.966
    63   1 H    0.987 --    30 C    0.961
    64   1 H    0.994 --    30 C    0.978
    65   1 H    0.993 --    31 C    0.961
    66   1 H    0.992 --    32 C    0.975
    67   1 H    0.997 --    32 C    0.982
    68   1 H    0.995 --    32 C    0.982
    69   1 H    0.993 --    33 C    0.977
    70   1 H    0.997 --    33 C    0.983
    71   1 H    0.994 --    33 C    0.981
    72   1 H    0.971 --     1 N    0.943
 ---------------------------------------------------------------------------

molecular dipole:
                 x           y           z       tot (Debye)
 q only:        1.875      -0.135      -0.759
   full:        2.175      -0.472      -0.799       6.011

           -------------------------------------------------
          | TOTAL ENERGY              -99.162240553477 Eh   |
          | GRADIENT NORM               0.002079587767 Eh/α |
          | HOMO-LUMO GAP               0.286311581887 eV   |
           -------------------------------------------------

 * finished run on 2024/04/06 at 11:14:13.130
